
     Program PWSCF v.7.2 starts on  4May2023 at 18:12:20 

     This program is part of the open-source Quantum ESPRESSO suite
     for quantum simulation of materials; please cite
         "P. Giannozzi et al., J. Phys.:Condens. Matter 21 395502 (2009);
         "P. Giannozzi et al., J. Phys.:Condens. Matter 29 465901 (2017);
         "P. Giannozzi et al., J. Chem. Phys. 152 154105 (2020);
          URL http://www.quantum-espresso.org", 
     in publications or presentations arising from this work. More details at
     http://www.quantum-espresso.org/quote

     Parallel version (MPI), running on    12 processors

     MPI processes distributed on     1 nodes
     69356 MiB available memory on the printing compute node when the environment starts

     Reading input from D_Ta_system.in
Warning: card &CELL ignored
Warning: card / ignored

     Current dimensions of program PWSCF are:
     Max number of different atomic species (ntypx) = 10
     Max number of k-points (npk) =  40000
     Max angular momentum in pseudopotentials (lmaxx) =  4

     File ./pwscf.md deleted, as requested

     R & G space division:  proc/nbgrp/npool/nimage =      12
     Subspace diagonalization in iterative solution of the eigenvalue problem:
     a serial algorithm will be used


     Parallelization info
     --------------------
     sticks:   dense  smooth     PW     G-vecs:    dense   smooth      PW
     Min         197     197     49                19389    19389    2419
     Max         198     198     50                19400    19400    2424
     Sum        2375    2375    599               232765   232765   29075

     Using Slab Decomposition



     bravais-lattice index     =            0
     lattice parameter (alat)  =      18.7412  a.u.
     unit-cell volume          =   10483.6616 (a.u.)^3
     number of atoms/cell      =           19
     number of atomic types    =            2
     number of electrons       =       235.00
     number of Kohn-Sham states=          142
     kinetic-energy cutoff     =      30.0000  Ry
     charge density cutoff     =     120.0000  Ry
     scf convergence threshold =      1.0E-06
     mixing beta               =       0.7000
     number of iterations used =            8  plain     mixing
     energy convergence thresh.=      0.0E+00
     force convergence thresh. =      0.0E+00
     Exchange-correlation=  SLA  PW   PBX  PBC
                           (   1   4   3   4   0   0   0)
     nstep                     =            5


     celldm(1)=  18.741170  celldm(2)=   0.000000  celldm(3)=   0.000000
     celldm(4)=   0.000000  celldm(5)=   0.000000  celldm(6)=   0.000000

     crystal axes: (cart. coord. in units of alat)
               a(1) = (   1.000000   0.000000   0.000000 )  
               a(2) = (   0.500000   0.707107   0.000000 )  
               a(3) = (   0.000000   0.000000   2.252360 )  

     reciprocal axes: (cart. coord. in units 2 pi/alat)
               b(1) = (  1.000000 -0.707107  0.000000 )  
               b(2) = (  0.000000  1.414213  0.000000 )  
               b(3) = (  0.000000  0.000000  0.443979 )  


     PseudoPot. # 1 for Ta read from file:
     q-e/pseudo/ta_pbe_v1.uspp.F.UPF
     MD5 check sum: f8bbe9446314a3b8ea5d9f3e3836c939
     Pseudo is Ultrasoft + core correction, Zval = 13.0
     Generated by new atomic code, or converted to UPF format
     Using radial grid of  921 points,  7 beta functions with: 
                l(1) =   0
                l(2) =   0
                l(3) =   1
                l(4) =   1
                l(5) =   2
                l(6) =   2
                l(7) =   3
     Q(r) pseudized with  6 coefficients,  rinner =    1.300   1.300   1.300
                                                       1.300   1.300   1.300
                                                       1.300

     PseudoPot. # 2 for H  read from file:
     q-e/pseudo/h_pbe_v1.4.uspp.F.UPF
     MD5 check sum: 761ae9a214b05c3daf00ab9f6b793d6f
     Pseudo is Ultrasoft, Zval =  1.0
     Generated by new atomic code, or converted to UPF format
     Using radial grid of  615 points,  2 beta functions with: 
                l(1) =   0
                l(2) =   0
     Q(r) pseudized with  8 coefficients,  rinner =    0.700

     atomic species   valence    mass     pseudopotential
        Ta            13.00   180.94788     Ta( 1.00)
        H              1.00     2.01400     H ( 1.00)

     No symmetry found



   Cartesian axes

     site n.     atom                  positions (alat units)
         1           Ta  tau(   1) = (   0.0000000   0.2357023   1.0083288  )
         2           Ta  tau(   2) = (   0.3333333   0.2357023   1.0083288  )
         3           Ta  tau(   3) = (   0.6666667   0.2357023   1.0083288  )
         4           Ta  tau(   4) = (   0.1666667   0.4714045   1.0083288  )
         5           Ta  tau(   5) = (   0.5000000   0.4714045   1.0083288  )
         6           Ta  tau(   6) = (   0.8333333   0.4714045   1.0083288  )
         7           Ta  tau(   7) = (   0.3333333   0.7071068   1.0083288  )
         8           Ta  tau(   8) = (   0.6666667   0.7071068   1.0083288  )
         9           Ta  tau(   9) = (   1.0000000   0.7071068   1.0083288  )
        10           Ta  tau(  10) = (   0.0000000   0.0000000   1.2440310  )
        11           Ta  tau(  11) = (   0.3333333   0.0000000   1.2440310  )
        12           Ta  tau(  12) = (   0.6666667   0.0000000   1.2440310  )
        13           Ta  tau(  13) = (   0.1666667   0.2357023   1.2440310  )
        14           Ta  tau(  14) = (   0.5000000   0.2357023   1.2440310  )
        15           Ta  tau(  15) = (   0.8333333   0.2357023   1.2440310  )
        16           Ta  tau(  16) = (   0.3333333   0.4714045   1.2440310  )
        17           Ta  tau(  17) = (   0.6666667   0.4714045   1.2440310  )
        18           Ta  tau(  18) = (   1.0000000   0.4714045   1.2440310  )
        19           H   tau(  19) = (   0.5041644   0.4033315   0.5041644  )

     number of k points=     1  Gaussian smearing, width (Ry)=  0.0100
                       cart. coord. in units 2pi/alat
        k(    1) = (   0.0000000   0.0000000   0.0000000), wk =   2.0000000

     Dense  grid:   232765 G-vectors     FFT dimensions: (  72,  60, 150)

     Estimated max dynamical RAM per process >     157.65 MB

     Estimated total dynamical RAM >       1.85 GB

     Check: negative core charge=   -0.000003

     Initial potential from superposition of free atoms

     starting charge     234.9800, renormalised to     235.0000

     negative rho (up, down):  1.727E+00 0.000E+00
     Starting wfcs are  235 randomized atomic wfcs

     total cpu time spent up to now is        5.6 secs

     Self-consistent Calculation

     iteration #  1     ecut=    30.00 Ry     beta= 0.70
     Davidson diagonalization with overlap
     ethr =  1.00E-02,  avg # of iterations =  2.0

     negative rho (up, down):  1.727E+00 0.000E+00

     total cpu time spent up to now is       13.0 secs

     total energy              =   -2549.72998761 Ry
     estimated scf accuracy    <       5.23266018 Ry

     iteration #  2     ecut=    30.00 Ry     beta= 0.70
     Davidson diagonalization with overlap
     ethr =  2.23E-03,  avg # of iterations = 12.0

     negative rho (up, down):  1.702E+00 0.000E+00

     total cpu time spent up to now is       30.3 secs

     total energy              =   -2522.28108284 Ry
     estimated scf accuracy    <     490.72843418 Ry

     iteration #  3     ecut=    30.00 Ry     beta= 0.70
     Davidson diagonalization with overlap
     ethr =  2.23E-03,  avg # of iterations =  9.0

     negative rho (up, down):  1.703E+00 0.000E+00

     total cpu time spent up to now is       42.5 secs

     total energy              =   -2548.39082714 Ry
     estimated scf accuracy    <      58.06026595 Ry

     iteration #  4     ecut=    30.00 Ry     beta= 0.70
     Davidson diagonalization with overlap
     ethr =  2.23E-03,  avg # of iterations =  7.0

     negative rho (up, down):  1.705E+00 0.000E+00

     total cpu time spent up to now is       51.8 secs

     total energy              =   -2551.38928960 Ry
     estimated scf accuracy    <      59.73472543 Ry

     iteration #  5     ecut=    30.00 Ry     beta= 0.70
     Davidson diagonalization with overlap
     ethr =  2.23E-03,  avg # of iterations =  3.0

     negative rho (up, down):  1.706E+00 0.000E+00

     total cpu time spent up to now is       59.0 secs

     total energy              =   -2552.98383380 Ry
     estimated scf accuracy    <       1.08691756 Ry

     iteration #  6     ecut=    30.00 Ry     beta= 0.70
     Davidson diagonalization with overlap
     ethr =  4.63E-04,  avg # of iterations =  6.0

     negative rho (up, down):  1.709E+00 0.000E+00

     total cpu time spent up to now is       66.3 secs

     total energy              =   -2552.98712823 Ry
     estimated scf accuracy    <       0.64248414 Ry

     iteration #  7     ecut=    30.00 Ry     beta= 0.70
     Davidson diagonalization with overlap
     ethr =  2.73E-04,  avg # of iterations =  2.0

     negative rho (up, down):  1.710E+00 0.000E+00

     total cpu time spent up to now is       72.9 secs

     total energy              =   -2553.01017050 Ry
     estimated scf accuracy    <       1.12629513 Ry

     iteration #  8     ecut=    30.00 Ry     beta= 0.70
     Davidson diagonalization with overlap
     ethr =  2.73E-04,  avg # of iterations =  2.0

     negative rho (up, down):  1.711E+00 0.000E+00

     total cpu time spent up to now is       79.6 secs

     total energy              =   -2553.01304193 Ry
     estimated scf accuracy    <       0.49990312 Ry

     iteration #  9     ecut=    30.00 Ry     beta= 0.70
     Davidson diagonalization with overlap
     ethr =  2.13E-04,  avg # of iterations =  1.0

     negative rho (up, down):  1.712E+00 0.000E+00

     total cpu time spent up to now is       85.7 secs

     total energy              =   -2553.04433827 Ry
     estimated scf accuracy    <       0.58736485 Ry

     iteration # 10     ecut=    30.00 Ry     beta= 0.70
     Davidson diagonalization with overlap
     ethr =  2.13E-04,  avg # of iterations =  1.0

     negative rho (up, down):  1.713E+00 0.000E+00

     total cpu time spent up to now is       91.6 secs

     total energy              =   -2553.02824502 Ry
     estimated scf accuracy    <       0.47855453 Ry

     iteration # 11     ecut=    30.00 Ry     beta= 0.70
     Davidson diagonalization with overlap
     ethr =  2.04E-04,  avg # of iterations =  1.0

     negative rho (up, down):  1.726E+00 0.000E+00

     total cpu time spent up to now is       97.6 secs

     total energy              =   -2552.99993355 Ry
     estimated scf accuracy    <       0.06865797 Ry

     iteration # 12     ecut=    30.00 Ry     beta= 0.70
     Davidson diagonalization with overlap
     ethr =  2.92E-05,  avg # of iterations = 11.0

     negative rho (up, down):  1.724E+00 0.000E+00

     total cpu time spent up to now is      105.9 secs

     total energy              =   -2552.99262029 Ry
     estimated scf accuracy    <       0.87897296 Ry

     iteration # 13     ecut=    30.00 Ry     beta= 0.70
     Davidson diagonalization with overlap
     ethr =  2.92E-05,  avg # of iterations =  5.0

     negative rho (up, down):  1.724E+00 0.000E+00

     total cpu time spent up to now is      113.7 secs

     total energy              =   -2552.98256496 Ry
     estimated scf accuracy    <       0.27429628 Ry

     iteration # 14     ecut=    30.00 Ry     beta= 0.70
     Davidson diagonalization with overlap
     ethr =  2.92E-05,  avg # of iterations =  7.0

     negative rho (up, down):  1.728E+00 0.000E+00

     total cpu time spent up to now is      122.3 secs

     total energy              =   -2552.96432930 Ry
     estimated scf accuracy    <       1.76155460 Ry

     iteration # 15     ecut=    30.00 Ry     beta= 0.70
     Davidson diagonalization with overlap
     ethr =  2.92E-05,  avg # of iterations =  7.0

     negative rho (up, down):  1.730E+00 0.000E+00

     total cpu time spent up to now is      130.1 secs

     total energy              =   -2553.00992027 Ry
     estimated scf accuracy    <       0.01726299 Ry

     iteration # 16     ecut=    30.00 Ry     beta= 0.70
     Davidson diagonalization with overlap
     ethr =  7.35E-06,  avg # of iterations =  6.0

     negative rho (up, down):  1.730E+00 0.000E+00

     total cpu time spent up to now is      137.8 secs

     total energy              =   -2553.01022282 Ry
     estimated scf accuracy    <       0.02012273 Ry

     iteration # 17     ecut=    30.00 Ry     beta= 0.70
     Davidson diagonalization with overlap
     ethr =  7.35E-06,  avg # of iterations =  1.0

     negative rho (up, down):  1.730E+00 0.000E+00

     total cpu time spent up to now is      143.9 secs

     total energy              =   -2553.01170129 Ry
     estimated scf accuracy    <       0.00334882 Ry

     iteration # 18     ecut=    30.00 Ry     beta= 0.70
     Davidson diagonalization with overlap
     ethr =  1.43E-06,  avg # of iterations = 10.0

     negative rho (up, down):  1.731E+00 0.000E+00

     total cpu time spent up to now is      152.2 secs

     total energy              =   -2553.01184481 Ry
     estimated scf accuracy    <       0.00427671 Ry

     iteration # 19     ecut=    30.00 Ry     beta= 0.70
     Davidson diagonalization with overlap
     ethr =  1.43E-06,  avg # of iterations =  2.0

     negative rho (up, down):  1.731E+00 0.000E+00

     total cpu time spent up to now is      159.0 secs

     total energy              =   -2553.01213256 Ry
     estimated scf accuracy    <       0.00044757 Ry

     iteration # 20     ecut=    30.00 Ry     beta= 0.70
     Davidson diagonalization with overlap
     ethr =  1.90E-07,  avg # of iterations =  3.0

     negative rho (up, down):  1.731E+00 0.000E+00

     total cpu time spent up to now is      166.4 secs

     total energy              =   -2553.01215426 Ry
     estimated scf accuracy    <       0.00073074 Ry

     iteration # 21     ecut=    30.00 Ry     beta= 0.70
     Davidson diagonalization with overlap
     ethr =  1.90E-07,  avg # of iterations =  2.0

     negative rho (up, down):  1.731E+00 0.000E+00

     total cpu time spent up to now is      173.2 secs

     total energy              =   -2553.01218287 Ry
     estimated scf accuracy    <       0.00059094 Ry

     iteration # 22     ecut=    30.00 Ry     beta= 0.70
     Davidson diagonalization with overlap
     ethr =  1.90E-07,  avg # of iterations =  1.0

     negative rho (up, down):  1.732E+00 0.000E+00

     total cpu time spent up to now is      179.3 secs

     total energy              =   -2553.01217741 Ry
     estimated scf accuracy    <       0.00303594 Ry

     iteration # 23     ecut=    30.00 Ry     beta= 0.70
     Davidson diagonalization with overlap
     ethr =  1.90E-07,  avg # of iterations =  1.0

     negative rho (up, down):  1.732E+00 0.000E+00

     total cpu time spent up to now is      185.3 secs

     total energy              =   -2553.01219518 Ry
     estimated scf accuracy    <       0.00020931 Ry

     iteration # 24     ecut=    30.00 Ry     beta= 0.70
     Davidson diagonalization with overlap
     ethr =  8.91E-08,  avg # of iterations =  5.0

     negative rho (up, down):  1.732E+00 0.000E+00

     total cpu time spent up to now is      193.3 secs

     total energy              =   -2553.01212631 Ry
     estimated scf accuracy    <       0.00300313 Ry

     iteration # 25     ecut=    30.00 Ry     beta= 0.70
     Davidson diagonalization with overlap
     ethr =  8.91E-08,  avg # of iterations =  3.0

     negative rho (up, down):  1.732E+00 0.000E+00

     total cpu time spent up to now is      200.2 secs

     total energy              =   -2553.01220790 Ry
     estimated scf accuracy    <       0.00006951 Ry

     iteration # 26     ecut=    30.00 Ry     beta= 0.70
     Davidson diagonalization with overlap
     ethr =  2.96E-08,  avg # of iterations =  3.0

     negative rho (up, down):  1.732E+00 0.000E+00

     total cpu time spent up to now is      207.5 secs

     total energy              =   -2553.01221000 Ry
     estimated scf accuracy    <       0.00006949 Ry

     iteration # 27     ecut=    30.00 Ry     beta= 0.70
     Davidson diagonalization with overlap
     ethr =  2.96E-08,  avg # of iterations =  1.0

     negative rho (up, down):  1.732E+00 0.000E+00

     total cpu time spent up to now is      213.5 secs

     total energy              =   -2553.01221388 Ry
     estimated scf accuracy    <       0.00000597 Ry

     iteration # 28     ecut=    30.00 Ry     beta= 0.70
     Davidson diagonalization with overlap
     ethr =  2.54E-09,  avg # of iterations =  5.0

     negative rho (up, down):  1.732E+00 0.000E+00

     total cpu time spent up to now is      221.8 secs

     total energy              =   -2553.01221279 Ry
     estimated scf accuracy    <       0.00003301 Ry

     iteration # 29     ecut=    30.00 Ry     beta= 0.70
     Davidson diagonalization with overlap
     ethr =  2.54E-09,  avg # of iterations =  5.0

     negative rho (up, down):  1.732E+00 0.000E+00

     total cpu time spent up to now is      229.6 secs

     total energy              =   -2553.01221443 Ry
     estimated scf accuracy    <       0.00000719 Ry

     iteration # 30     ecut=    30.00 Ry     beta= 0.70
     Davidson diagonalization with overlap
     ethr =  2.54E-09,  avg # of iterations =  2.0

     negative rho (up, down):  1.732E+00 0.000E+00

     total cpu time spent up to now is      236.6 secs

     total energy              =   -2553.01221458 Ry
     estimated scf accuracy    <       0.00000831 Ry

     iteration # 31     ecut=    30.00 Ry     beta= 0.70
     Davidson diagonalization with overlap
     ethr =  2.54E-09,  avg # of iterations =  1.0

     negative rho (up, down):  1.732E+00 0.000E+00

     total cpu time spent up to now is      242.4 secs

     End of self-consistent calculation

          k = 0.0000 0.0000 0.0000 ( 29075 PWs)   bands (ev):

   -67.9781 -67.9239 -67.9238 -67.9228 -67.9224 -67.9213 -67.9003 -67.8997
   -67.8930 -67.8930 -67.8922 -67.8921 -67.8816 -67.8812 -67.8607 -67.8607
   -67.8536 -67.8532 -34.7949 -34.7288 -34.7287 -34.7278 -34.7277 -34.6890
   -34.6887 -34.6682 -34.6681 -34.6677 -34.6677 -34.6470 -34.6467 -34.6147
   -34.6145 -34.5998 -34.5997 -34.5767 -34.5765 -34.5350 -34.5345 -34.5155
   -34.5151 -34.4188 -34.4184 -34.4099 -34.4098 -34.4094 -34.4092 -34.2531
   -34.2530 -34.2416 -34.2414 -34.2407 -34.2405 -34.2307 -34.2134 -34.2129
   -34.2028 -34.2027 -34.1640 -34.1632 -34.1056 -33.9554 -33.9552 -33.9539
   -33.9539 -33.9216 -33.9203 -33.9202 -33.9193 -33.9191 -33.8632 -33.8526
    -7.0101  -4.9941  -4.5617  -4.5616  -4.5613  -4.5612  -3.9400  -3.9396
    -3.3166  -3.3166  -3.3158  -3.3157  -2.8634  -2.8627  -2.5683  -2.5683
    -2.3173  -2.3171  -2.2066  -2.2065  -1.7764  -1.7764  -1.5629  -1.5599
    -1.5597  -1.5595  -1.5594  -1.2480  -1.2479  -1.2469  -1.2469  -1.0861
    -1.0858  -0.6015  -0.5961  -0.5956  -0.5946  -0.5909  -0.4725  -0.4700
    -0.4530  -0.3138  -0.3043  -0.3041  -0.3036  -0.2633  -0.1570  -0.1459
    -0.1455  -0.1064  -0.1062   0.2295   0.2296   0.5173   0.5177   0.6748
     0.6748   0.7210   1.6092   1.8290   1.8294   2.0934   2.0939   2.2721
     2.2725   2.2735   2.2762   2.5127   2.5135   2.5148

     the Fermi energy is    -0.2321 ev

!    total energy              =   -2553.01221457 Ry
     estimated scf accuracy    <       0.00000062 Ry
     smearing contrib. (-TS)   =      -0.03952176 Ry
     internal energy E=F+TS    =   -2552.97269282 Ry

     convergence has been achieved in  31 iterations

     negative rho (up, down):  1.732E+00 0.000E+00

     Forces acting on atoms (cartesian axes, Ry/au):

     atom    1 type  1   force =    -0.00006928    0.00027396    0.02763441
     atom    2 type  1   force =    -0.00012775   -0.00027777    0.02659089
     atom    3 type  1   force =     0.00020883   -0.00027703    0.02655724
     atom    4 type  1   force =    -0.00008496   -0.00001591    0.02708684
     atom    5 type  1   force =     0.00002204    0.00019343    0.02514040
     atom    6 type  1   force =     0.00005616   -0.00005422    0.02707584
     atom    7 type  1   force =    -0.00031195    0.00023395    0.02750447
     atom    8 type  1   force =     0.00031556    0.00018400    0.02746251
     atom    9 type  1   force =    -0.00001684   -0.00024803    0.02749658
     atom   10 type  1   force =    -0.00000367   -0.00017528   -0.02764175
     atom   11 type  1   force =     0.00012483   -0.00004629   -0.02748783
     atom   12 type  1   force =    -0.00012388    0.00001129   -0.02748732
     atom   13 type  1   force =    -0.00023517    0.00021847   -0.02721627
     atom   14 type  1   force =     0.00006530    0.00026593   -0.02801219
     atom   15 type  1   force =     0.00017753    0.00022948   -0.02727463
     atom   16 type  1   force =    -0.00025380   -0.00014392   -0.02766878
     atom   17 type  1   force =     0.00027447   -0.00019600   -0.02773941
     atom   18 type  1   force =    -0.00001837   -0.00016888   -0.02675916
     atom   19 type  2   force =     0.00000094   -0.00000717    0.00473816
     The non-local contrib.  to forces
     atom    1 type  1   force =    -0.00002087    0.00036568   -0.20401981
     atom    2 type  1   force =     0.00098699    0.00019030   -0.20868369
     atom    3 type  1   force =    -0.00094631    0.00027396   -0.20879929
     atom    4 type  1   force =    -0.00041076    0.00018337   -0.20607743
     atom    5 type  1   force =     0.00015191   -0.00104528   -0.21130218
     atom    6 type  1   force =     0.00026259    0.00014105   -0.20624688
     atom    7 type  1   force =    -0.00037511    0.00051016   -0.20589531
     atom    8 type  1   force =     0.00036363    0.00044760   -0.20598603
     atom    9 type  1   force =     0.00000668   -0.00092613   -0.20500805
     atom   10 type  1   force =    -0.00000470    0.00043819    0.20082964
     atom   11 type  1   force =     0.00029032   -0.00037029    0.20050077
     atom   12 type  1   force =    -0.00029120   -0.00034946    0.20050273
     atom   13 type  1   force =    -0.00029842    0.00071714    0.20062949
     atom   14 type  1   force =     0.00004041    0.00053917    0.20106050
     atom   15 type  1   force =     0.00025994    0.00073163    0.20058019
     atom   16 type  1   force =    -0.00045193   -0.00062538    0.20089654
     atom   17 type  1   force =     0.00050537   -0.00066842    0.20088044
     atom   18 type  1   force =    -0.00002182   -0.00040403    0.20083193
     atom   19 type  2   force =     0.00000061    0.00001693    0.00103516
     The ionic contribution  to forces
     atom    1 type  1   force =     0.00072547    0.00681849  -59.49601596
     atom    2 type  1   force =    -0.03028631   -0.02521285  -59.44213235
     atom    3 type  1   force =     0.02958342   -0.02628534  -59.44015141
     atom    4 type  1   force =    -0.03374297    0.00302237  -59.47699100
     atom    5 type  1   force =    -0.00129376    0.01956713  -59.39178796
     atom    6 type  1   force =     0.03500091    0.00346098  -59.47489144
     atom    7 type  1   force =    -0.00946189    0.02019447  -59.46925342
     atom    8 type  1   force =     0.00930070    0.02155445  -59.46863418
     atom    9 type  1   force =     0.00016619   -0.02300660  -59.48338731
     atom   10 type  1   force =    -0.00004648    0.00574315   60.04964953
     atom   11 type  1   force =     0.00131395   -0.00160761   60.04669001
     atom   12 type  1   force =    -0.00126754   -0.00183216   60.04661200
     atom   13 type  1   force =    -0.00443721   -0.00001268   60.04602408
     atom   14 type  1   force =    -0.00014569   -0.00538203   60.05604343
     atom   15 type  1   force =     0.00458265   -0.00017022   60.04630607
     atom   16 type  1   force =    -0.00620500    0.00182657   60.05478880
     atom   17 type  1   force =     0.00603109    0.00189827   60.05518561
     atom   18 type  1   force =     0.00017426   -0.00046537   60.04250503
     atom   19 type  2   force =     0.00000820   -0.00011102   -5.30055952
     The local contribution  to forces
     atom    1 type  1   force =    -0.00106359   -0.00674197   59.75110116
     atom    2 type  1   force =     0.02934031    0.02497508   59.70048282
     atom    3 type  1   force =    -0.02828390    0.02603462   59.69884216
     atom    4 type  1   force =     0.03396345   -0.00327966   59.73334544
     atom    5 type  1   force =     0.00137435   -0.01862457   59.65137796
     atom    6 type  1   force =    -0.03529492   -0.00400573   59.73156862
     atom    7 type  1   force =     0.00949341   -0.02034009   59.72609007
     atom    8 type  1   force =    -0.00941864   -0.02206732   59.72544926
     atom    9 type  1   force =    -0.00008486    0.02381324   59.73881337
     atom   10 type  1   force =    -0.00006031   -0.00584378  -60.30226195
     atom   11 type  1   force =    -0.00171150    0.00169148  -60.29892390
     atom   12 type  1   force =     0.00178309    0.00241378  -60.29887184
     atom   13 type  1   force =     0.00385226   -0.00081359  -60.29807030
     atom   14 type  1   force =     0.00057663    0.00479864  -60.30968946
     atom   15 type  1   force =    -0.00442318   -0.00057122  -60.29843208
     atom   16 type  1   force =     0.00635984   -0.00083248  -60.30767285
     atom   17 type  1   force =    -0.00597195   -0.00128287  -60.30817280
     atom   18 type  1   force =    -0.00040990    0.00045468  -60.29429279
     atom   19 type  2   force =    -0.00000562    0.00008718    5.30416878
     The core correction contribution to forces
     atom    1 type  1   force =     0.00000560    0.00006276   -0.02389435
     atom    2 type  1   force =    -0.00021383   -0.00027809   -0.02427341
     atom    3 type  1   force =     0.00021162   -0.00028759   -0.02428031
     atom    4 type  1   force =    -0.00025026    0.00005122   -0.02411536
     atom    5 type  1   force =    -0.00000707    0.00020965   -0.02417274
     atom    6 type  1   force =     0.00025745    0.00005225   -0.02413218
     atom    7 type  1   force =    -0.00010450    0.00020707   -0.02410172
     atom    8 type  1   force =     0.00010626    0.00022244   -0.02411143
     atom    9 type  1   force =    -0.00000285   -0.00022845   -0.02404872
     atom   10 type  1   force =     0.00000019    0.00004121    0.02355692
     atom   11 type  1   force =     0.00006170   -0.00008373    0.02359419
     atom   12 type  1   force =    -0.00006372   -0.00009051    0.02359141
     atom   13 type  1   force =    -0.00011830    0.00016538    0.02359599
     atom   14 type  1   force =    -0.00000556    0.00005026    0.02347973
     atom   15 type  1   force =     0.00012184    0.00016528    0.02358936
     atom   16 type  1   force =    -0.00015978   -0.00007280    0.02342847
     atom   17 type  1   force =     0.00015127   -0.00007125    0.02342099
     atom   18 type  1   force =     0.00000440   -0.00010827    0.02358593
     atom   19 type  2   force =     0.00000000    0.00000000    0.00000000
     The Hubbard contrib.    to forces
     atom    1 type  1   force =     0.00000000    0.00000000    0.00000000
     atom    2 type  1   force =     0.00000000    0.00000000    0.00000000
     atom    3 type  1   force =     0.00000000    0.00000000    0.00000000
     atom    4 type  1   force =     0.00000000    0.00000000    0.00000000
     atom    5 type  1   force =     0.00000000    0.00000000    0.00000000
     atom    6 type  1   force =     0.00000000    0.00000000    0.00000000
     atom    7 type  1   force =     0.00000000    0.00000000    0.00000000
     atom    8 type  1   force =     0.00000000    0.00000000    0.00000000
     atom    9 type  1   force =     0.00000000    0.00000000    0.00000000
     atom   10 type  1   force =     0.00000000    0.00000000    0.00000000
     atom   11 type  1   force =     0.00000000    0.00000000    0.00000000
     atom   12 type  1   force =     0.00000000    0.00000000    0.00000000
     atom   13 type  1   force =     0.00000000    0.00000000    0.00000000
     atom   14 type  1   force =     0.00000000    0.00000000    0.00000000
     atom   15 type  1   force =     0.00000000    0.00000000    0.00000000
     atom   16 type  1   force =     0.00000000    0.00000000    0.00000000
     atom   17 type  1   force =     0.00000000    0.00000000    0.00000000
     atom   18 type  1   force =     0.00000000    0.00000000    0.00000000
     atom   19 type  2   force =     0.00000000    0.00000000    0.00000000
     The SCF correction term to forces
     atom    1 type  1   force =     0.00028577   -0.00022910    0.00036638
     atom    2 type  1   force =     0.00004674    0.00004970    0.00110054
     atom    3 type  1   force =    -0.00035435   -0.00001076    0.00084910
     atom    4 type  1   force =     0.00035724    0.00000869    0.00082819
     atom    5 type  1   force =    -0.00020173    0.00008841    0.00092832
     atom    6 type  1   force =    -0.00016821    0.00029914    0.00068073
     atom    7 type  1   force =     0.00013780   -0.00033575    0.00056785
     atom    8 type  1   force =    -0.00003473    0.00002874    0.00064790
     atom    9 type  1   force =    -0.00010034    0.00010182    0.00103029
     atom   10 type  1   force =     0.00010929   -0.00055214    0.00048711
     atom   11 type  1   force =     0.00017201    0.00032576    0.00055410
     atom   12 type  1   force =    -0.00028285   -0.00012845    0.00058138
     atom   13 type  1   force =     0.00076815    0.00016412    0.00050746
     atom   14 type  1   force =    -0.00039883    0.00026180    0.00099661
     atom   15 type  1   force =    -0.00036206    0.00007592    0.00058484
     atom   16 type  1   force =     0.00020472   -0.00043792    0.00079326
     atom   17 type  1   force =    -0.00043966   -0.00006982    0.00084935
     atom   18 type  1   force =     0.00023635    0.00035602    0.00051374
     atom   19 type  2   force =    -0.00000059    0.00000164   -0.00000327

     Total force =     0.115589     Total SCF correction =     0.003582

     Molecular Dynamics Calculation
     mass Ta               =   180.95
     mass H                =     2.01
     Time step             = 20671.00 a.u.,******** femto-seconds

     Entering Dynamics:    iteration =     1
                           time      =   1.0000 pico-seconds


ATOMIC_POSITIONS (angstrom)
Ta           -0.0474901135        2.5253543787       28.9435204735
Ta            3.2182275485        2.1471388451       28.2281851428
Ta            6.7547535868        2.1476510745       28.2051159559
Ta            1.5946602403        4.6641997970       28.5681570592
Ta            4.9738101860        4.8077021556       27.2338659237
Ta            8.3029957077        4.6379405153       28.5606208899
Ta            3.0919552435        7.1730332242       28.8544471581
Ta            6.8279203722        7.1387956940       28.8256827187
Ta            9.9058548788        6.8426335618       28.8490410120
Ta           -0.0025167731       -0.1201587006       -6.6109968843
Ta            3.3913718370       -0.0317351581       -6.5054898365
Ta            6.5266828788        0.0077386141       -6.5051382193
Ta            1.4916876345        2.4873128075       -6.3193334950
Ta            5.0034662204        2.5198535528       -6.8649388222
Ta            8.3862000293        2.4948631350       -6.3593357241
Ta            3.1318153220        4.5764525641       -6.6295303031
Ta            6.7997509823        4.5407502111       -6.6779450828
Ta            9.9048091198        4.5593404359       -6.0059823465
H             5.0579766177        3.5581633957      296.8194627307


     kinetic energy (Ekin) =           0.00000000 Ry
     temperature           =           0.00000000 K 
     Ekin + Etot (const)   =       -2553.01221457 Ry

     Linear momentum :    0.0000000000    0.0000000000    0.0000000000

     File ./pwscf.msd.dat deleted, as requested

     Writing config-only to output data dir ./pwscf.save/
     NEW-OLD atomic charge density approx. for the potential

     Check: negative core charge=   -0.000003

     negative rho (up, down):  6.129E+00 0.000E+00

     total cpu time spent up to now is      246.7 secs

     Self-consistent Calculation

     iteration #  1     ecut=    30.00 Ry     beta= 0.70
     Davidson diagonalization with overlap
     ethr =  1.00E-06,  avg # of iterations = 31.0

     negative rho (up, down):  2.871E+00 0.000E+00

     total cpu time spent up to now is      306.4 secs

     total energy              =   -2544.29186975 Ry
     estimated scf accuracy    <       9.77062837 Ry

     iteration #  2     ecut=    30.00 Ry     beta= 0.70
     Davidson diagonalization with overlap
     ethr =  4.16E-03,  avg # of iterations =  7.0

     negative rho (up, down):  2.811E+00 0.000E+00

     total cpu time spent up to now is      319.3 secs

     total energy              =   -2523.01572404 Ry
     estimated scf accuracy    <    1022.97839219 Ry

     iteration #  3     ecut=    30.00 Ry     beta= 0.70
     Davidson diagonalization with overlap
     ethr =  4.16E-03,  avg # of iterations = 15.0

     negative rho (up, down):  2.670E+00 0.000E+00

     total cpu time spent up to now is      339.1 secs

     total energy              =   -2537.75470394 Ry
     estimated scf accuracy    <     549.85616588 Ry

     iteration #  4     ecut=    30.00 Ry     beta= 0.70
     Davidson diagonalization with overlap
     ethr =  4.16E-03,  avg # of iterations =  9.0

     negative rho (up, down):  2.531E+00 0.000E+00

     total cpu time spent up to now is      352.4 secs

     total energy              =   -2548.40767964 Ry
     estimated scf accuracy    <      57.21916371 Ry

     iteration #  5     ecut=    30.00 Ry     beta= 0.70
     Davidson diagonalization with overlap
     ethr =  4.16E-03,  avg # of iterations =  3.0

     negative rho (up, down):  2.211E+00 0.000E+00

     total cpu time spent up to now is      359.7 secs

     total energy              =   -2550.08002223 Ry
     estimated scf accuracy    <       6.74733259 Ry

     iteration #  6     ecut=    30.00 Ry     beta= 0.70
     Davidson diagonalization with overlap
     ethr =  2.87E-03,  avg # of iterations =  2.0

     negative rho (up, down):  2.024E+00 0.000E+00

     total cpu time spent up to now is      367.4 secs

     total energy              =   -2550.29936108 Ry
     estimated scf accuracy    <       3.68442172 Ry

     iteration #  7     ecut=    30.00 Ry     beta= 0.70
     Davidson diagonalization with overlap
     ethr =  1.57E-03,  avg # of iterations =  2.0

     negative rho (up, down):  1.912E+00 0.000E+00

     total cpu time spent up to now is      373.9 secs

     total energy              =   -2550.51414675 Ry
     estimated scf accuracy    <       1.35985246 Ry

     iteration #  8     ecut=    30.00 Ry     beta= 0.70
     Davidson diagonalization with overlap
     ethr =  5.79E-04,  avg # of iterations =  8.0

     negative rho (up, down):  1.791E+00 0.000E+00

     total cpu time spent up to now is      381.4 secs

     total energy              =   -2550.62016189 Ry
     estimated scf accuracy    <       1.00397652 Ry

     iteration #  9     ecut=    30.00 Ry     beta= 0.70
     Davidson diagonalization with overlap
     ethr =  4.27E-04,  avg # of iterations =  3.0

     negative rho (up, down):  1.748E+00 0.000E+00

     total cpu time spent up to now is      388.4 secs

     total energy              =   -2550.62893320 Ry
     estimated scf accuracy    <       1.85081861 Ry

     iteration # 10     ecut=    30.00 Ry     beta= 0.70
     Davidson diagonalization with overlap
     ethr =  4.27E-04,  avg # of iterations =  2.0

     negative rho (up, down):  1.734E+00 0.000E+00

     total cpu time spent up to now is      395.3 secs

     total energy              =   -2550.66182663 Ry
     estimated scf accuracy    <       0.34113589 Ry

     iteration # 11     ecut=    30.00 Ry     beta= 0.70
     Davidson diagonalization with overlap
     ethr =  1.45E-04,  avg # of iterations =  8.0

     negative rho (up, down):  1.725E+00 0.000E+00

     total cpu time spent up to now is      402.9 secs

     total energy              =   -2550.67218279 Ry
     estimated scf accuracy    <       0.24255146 Ry

     iteration # 12     ecut=    30.00 Ry     beta= 0.70
     Davidson diagonalization with overlap
     ethr =  1.03E-04,  avg # of iterations =  2.0

     negative rho (up, down):  1.704E+00 0.000E+00

     total cpu time spent up to now is      409.4 secs

     total energy              =   -2550.66833539 Ry
     estimated scf accuracy    <       1.26520793 Ry

     iteration # 13     ecut=    30.00 Ry     beta= 0.70
     Davidson diagonalization with overlap
     ethr =  1.03E-04,  avg # of iterations =  1.0

     negative rho (up, down):  1.690E+00 0.000E+00

     total cpu time spent up to now is      415.6 secs

     total energy              =   -2550.67636341 Ry
     estimated scf accuracy    <       1.26078823 Ry

     iteration # 14     ecut=    30.00 Ry     beta= 0.70
     Davidson diagonalization with overlap
     ethr =  1.03E-04,  avg # of iterations =  2.0

     negative rho (up, down):  1.694E+00 0.000E+00

     total cpu time spent up to now is      422.4 secs

     total energy              =   -2550.67003390 Ry
     estimated scf accuracy    <       0.74242556 Ry

     iteration # 15     ecut=    30.00 Ry     beta= 0.70
     Davidson diagonalization with overlap
     ethr =  1.03E-04,  avg # of iterations =  1.0

     negative rho (up, down):  1.693E+00 0.000E+00

     total cpu time spent up to now is      428.5 secs

     total energy              =   -2550.68150023 Ry
     estimated scf accuracy    <       0.37396129 Ry

     iteration # 16     ecut=    30.00 Ry     beta= 0.70
     Davidson diagonalization with overlap
     ethr =  1.03E-04,  avg # of iterations =  1.0

     negative rho (up, down):  1.692E+00 0.000E+00

     total cpu time spent up to now is      434.5 secs

     total energy              =   -2550.69245061 Ry
     estimated scf accuracy    <       0.01478163 Ry

     iteration # 17     ecut=    30.00 Ry     beta= 0.70
     Davidson diagonalization with overlap
     ethr =  6.29E-06,  avg # of iterations = 10.0

     negative rho (up, down):  1.691E+00 0.000E+00

     total cpu time spent up to now is      442.7 secs

     total energy              =   -2550.69335222 Ry
     estimated scf accuracy    <       0.01530648 Ry

     iteration # 18     ecut=    30.00 Ry     beta= 0.70
     Davidson diagonalization with overlap
     ethr =  6.29E-06,  avg # of iterations =  2.0

     negative rho (up, down):  1.690E+00 0.000E+00

     total cpu time spent up to now is      449.5 secs

     total energy              =   -2550.69373345 Ry
     estimated scf accuracy    <       0.01204980 Ry

     iteration # 19     ecut=    30.00 Ry     beta= 0.70
     Davidson diagonalization with overlap
     ethr =  5.13E-06,  avg # of iterations =  1.0

     negative rho (up, down):  1.690E+00 0.000E+00

     total cpu time spent up to now is      455.4 secs

     total energy              =   -2550.69452168 Ry
     estimated scf accuracy    <       0.00245570 Ry

     iteration # 20     ecut=    30.00 Ry     beta= 0.70
     Davidson diagonalization with overlap
     ethr =  1.04E-06,  avg # of iterations =  7.0

     negative rho (up, down):  1.690E+00 0.000E+00

     total cpu time spent up to now is      462.8 secs

     total energy              =   -2550.69460622 Ry
     estimated scf accuracy    <       0.00470513 Ry

     iteration # 21     ecut=    30.00 Ry     beta= 0.70
     Davidson diagonalization with overlap
     ethr =  1.04E-06,  avg # of iterations =  2.0

     negative rho (up, down):  1.690E+00 0.000E+00

     total cpu time spent up to now is      469.4 secs

     total energy              =   -2550.69475415 Ry
     estimated scf accuracy    <       0.00134794 Ry

     iteration # 22     ecut=    30.00 Ry     beta= 0.70
     Davidson diagonalization with overlap
     ethr =  5.74E-07,  avg # of iterations =  2.0

     negative rho (up, down):  1.690E+00 0.000E+00

     total cpu time spent up to now is      476.5 secs

     total energy              =   -2550.69480885 Ry
     estimated scf accuracy    <       0.00118853 Ry

     iteration # 23     ecut=    30.00 Ry     beta= 0.70
     Davidson diagonalization with overlap
     ethr =  5.06E-07,  avg # of iterations =  1.0

     negative rho (up, down):  1.690E+00 0.000E+00

     total cpu time spent up to now is      482.3 secs

     total energy              =   -2550.69470295 Ry
     estimated scf accuracy    <       0.01034028 Ry

     iteration # 24     ecut=    30.00 Ry     beta= 0.70
     Davidson diagonalization with overlap
     ethr =  5.06E-07,  avg # of iterations =  3.0

     negative rho (up, down):  1.690E+00 0.000E+00

     total cpu time spent up to now is      490.2 secs

     total energy              =   -2550.69437374 Ry
     estimated scf accuracy    <       0.01135994 Ry

     iteration # 25     ecut=    30.00 Ry     beta= 0.70
     Davidson diagonalization with overlap
     ethr =  5.06E-07,  avg # of iterations =  3.0

     negative rho (up, down):  1.690E+00 0.000E+00

     total cpu time spent up to now is      497.0 secs

     total energy              =   -2550.69474763 Ry
     estimated scf accuracy    <       0.00436193 Ry

     iteration # 26     ecut=    30.00 Ry     beta= 0.70
     Davidson diagonalization with overlap
     ethr =  5.06E-07,  avg # of iterations =  2.0

     negative rho (up, down):  1.690E+00 0.000E+00

     total cpu time spent up to now is      503.5 secs

     total energy              =   -2550.69484347 Ry
     estimated scf accuracy    <       0.00022735 Ry

     iteration # 27     ecut=    30.00 Ry     beta= 0.70
     Davidson diagonalization with overlap
     ethr =  9.67E-08,  avg # of iterations =  4.0

     negative rho (up, down):  1.690E+00 0.000E+00

     total cpu time spent up to now is      510.6 secs

     total energy              =   -2550.69485842 Ry
     estimated scf accuracy    <       0.00012693 Ry

     iteration # 28     ecut=    30.00 Ry     beta= 0.70
     Davidson diagonalization with overlap
     ethr =  5.40E-08,  avg # of iterations =  4.0

     negative rho (up, down):  1.690E+00 0.000E+00

     total cpu time spent up to now is      517.6 secs

     total energy              =   -2550.69486339 Ry
     estimated scf accuracy    <       0.00003990 Ry

     iteration # 29     ecut=    30.00 Ry     beta= 0.70
     Davidson diagonalization with overlap
     ethr =  1.70E-08,  avg # of iterations =  5.0

     negative rho (up, down):  1.690E+00 0.000E+00

     total cpu time spent up to now is      527.0 secs

     total energy              =   -2550.69486431 Ry
     estimated scf accuracy    <       0.00003204 Ry

     iteration # 30     ecut=    30.00 Ry     beta= 0.70
     Davidson diagonalization with overlap
     ethr =  1.36E-08,  avg # of iterations =  6.0

     negative rho (up, down):  1.690E+00 0.000E+00

     total cpu time spent up to now is      537.0 secs

     total energy              =   -2550.69484331 Ry
     estimated scf accuracy    <       0.00057376 Ry

     iteration # 31     ecut=    30.00 Ry     beta= 0.70
     Davidson diagonalization with overlap
     ethr =  1.36E-08,  avg # of iterations =  6.0

     negative rho (up, down):  1.690E+00 0.000E+00

     total cpu time spent up to now is      546.3 secs

     total energy              =   -2550.69486750 Ry
     estimated scf accuracy    <       0.00002747 Ry

     iteration # 32     ecut=    30.00 Ry     beta= 0.70
     Davidson diagonalization with overlap
     ethr =  1.17E-08,  avg # of iterations =  2.0

     negative rho (up, down):  1.690E+00 0.000E+00

     total cpu time spent up to now is      553.8 secs

     total energy              =   -2550.69486795 Ry
     estimated scf accuracy    <       0.00003823 Ry

     iteration # 33     ecut=    30.00 Ry     beta= 0.70
     Davidson diagonalization with overlap
     ethr =  1.17E-08,  avg # of iterations =  1.0

     negative rho (up, down):  1.690E+00 0.000E+00

     total cpu time spent up to now is      559.7 secs

     total energy              =   -2550.69486788 Ry
     estimated scf accuracy    <       0.00013954 Ry

     iteration # 34     ecut=    30.00 Ry     beta= 0.70
     Davidson diagonalization with overlap
     ethr =  1.17E-08,  avg # of iterations =  1.0

     negative rho (up, down):  1.690E+00 0.000E+00

     total cpu time spent up to now is      565.8 secs

     total energy              =   -2550.69486884 Ry
     estimated scf accuracy    <       0.00002720 Ry

     iteration # 35     ecut=    30.00 Ry     beta= 0.70
     Davidson diagonalization with overlap
     ethr =  1.16E-08,  avg # of iterations =  1.0

     negative rho (up, down):  1.690E+00 0.000E+00

     total cpu time spent up to now is      571.8 secs

     total energy              =   -2550.69486822 Ry
     estimated scf accuracy    <       0.00001548 Ry

     iteration # 36     ecut=    30.00 Ry     beta= 0.70
     Davidson diagonalization with overlap
     ethr =  6.59E-09,  avg # of iterations =  3.0

     negative rho (up, down):  1.690E+00 0.000E+00

     total cpu time spent up to now is      579.5 secs

     total energy              =   -2550.69486559 Ry
     estimated scf accuracy    <       0.00021444 Ry

     iteration # 37     ecut=    30.00 Ry     beta= 0.70
     Davidson diagonalization with overlap
     ethr =  6.59E-09,  avg # of iterations =  3.0

     negative rho (up, down):  1.690E+00 0.000E+00

     total cpu time spent up to now is      588.5 secs

     total energy              =   -2550.69486730 Ry
     estimated scf accuracy    <       0.00003679 Ry

     iteration # 38     ecut=    30.00 Ry     beta= 0.70
     Davidson diagonalization with overlap
     ethr =  6.59E-09,  avg # of iterations =  2.0

     negative rho (up, down):  1.690E+00 0.000E+00

     total cpu time spent up to now is      596.5 secs

     total energy              =   -2550.69486802 Ry
     estimated scf accuracy    <       0.00002956 Ry

     iteration # 39     ecut=    30.00 Ry     beta= 0.70
     Davidson diagonalization with overlap
     ethr =  6.59E-09,  avg # of iterations =  2.0

     negative rho (up, down):  1.690E+00 0.000E+00

     total cpu time spent up to now is      604.8 secs

     total energy              =   -2550.69486819 Ry
     estimated scf accuracy    <       0.00002368 Ry

     iteration # 40     ecut=    30.00 Ry     beta= 0.70
     Davidson diagonalization with overlap
     ethr =  6.59E-09,  avg # of iterations =  1.0

     negative rho (up, down):  1.690E+00 0.000E+00

     total cpu time spent up to now is      611.9 secs

     total energy              =   -2550.69486924 Ry
     estimated scf accuracy    <       0.00000440 Ry

     iteration # 41     ecut=    30.00 Ry     beta= 0.70
     Davidson diagonalization with overlap
     ethr =  1.87E-09,  avg # of iterations =  2.0

     negative rho (up, down):  1.690E+00 0.000E+00

     total cpu time spent up to now is      619.0 secs

     total energy              =   -2550.69486940 Ry
     estimated scf accuracy    <       0.00000153 Ry

     iteration # 42     ecut=    30.00 Ry     beta= 0.70
     Davidson diagonalization with overlap
     ethr =  6.52E-10,  avg # of iterations =  5.0

     negative rho (up, down):  1.690E+00 0.000E+00

     total cpu time spent up to now is      626.9 secs

     total energy              =   -2550.69486934 Ry
     estimated scf accuracy    <       0.00000390 Ry

     iteration # 43     ecut=    30.00 Ry     beta= 0.70
     Davidson diagonalization with overlap
     ethr =  6.52E-10,  avg # of iterations =  6.0

     negative rho (up, down):  1.690E+00 0.000E+00

     total cpu time spent up to now is      635.5 secs

     total energy              =   -2550.69486822 Ry
     estimated scf accuracy    <       0.00010912 Ry

     iteration # 44     ecut=    30.00 Ry     beta= 0.70
     Davidson diagonalization with overlap
     ethr =  6.52E-10,  avg # of iterations =  5.0

     negative rho (up, down):  1.690E+00 0.000E+00

     total cpu time spent up to now is      644.0 secs

     total energy              =   -2550.69486783 Ry
     estimated scf accuracy    <       0.00009382 Ry

     iteration # 45     ecut=    30.00 Ry     beta= 0.70
     Davidson diagonalization with overlap
     ethr =  6.52E-10,  avg # of iterations =  6.0

     negative rho (up, down):  1.690E+00 0.000E+00

     total cpu time spent up to now is      654.2 secs

     total energy              =   -2550.69486714 Ry
     estimated scf accuracy    <       0.00015480 Ry

     iteration # 46     ecut=    30.00 Ry     beta= 0.70
     Davidson diagonalization with overlap
     c_bands:  1 eigenvalues not converged
     ethr =  6.52E-10,  avg # of iterations = 20.0

     negative rho (up, down):  1.690E+00 0.000E+00

     total cpu time spent up to now is      665.8 secs

     End of self-consistent calculation

          k = 0.0000 0.0000 0.0000 ( 29075 PWs)   bands (ev):

   -68.5494 -68.0614 -67.9856 -67.9382 -67.6846 -67.6652 -67.6213 -67.6037
   -67.5717 -67.4979 -67.4715 -67.4636 -67.4512 -67.4501 -67.4140 -67.3640
   -67.3219 -67.1531 -34.9648 -34.8749 -34.8225 -34.5903 -34.5218 -34.4868
   -34.4655 -34.4010 -34.3943 -34.3821 -34.3563 -34.3405 -34.3323 -34.3145
   -34.3113 -34.2872 -34.2722 -34.2588 -34.2588 -34.2523 -34.2404 -34.2285
   -34.2249 -34.1878 -34.1871 -34.1732 -34.1649 -34.1491 -34.0935 -34.0788
   -34.0741 -34.0571 -34.0528 -34.0212 -34.0095 -33.9800 -33.9763 -33.9340
   -33.9210 -33.8565 -33.7701 -33.7629 -33.6681 -33.5947 -33.5350 -33.5050
   -33.4768 -33.4730 -33.4044 -33.3313 -33.2612 -33.1842 -33.1094 -33.0259
    -5.1473  -5.0073  -3.8432  -2.7368  -2.6784  -2.5856  -2.5613  -2.5450
    -2.4257  -2.2911  -2.2246  -1.9395  -1.9323  -1.8443  -1.2848  -0.8467
    -0.8076  -0.7531  -0.6643  -0.5999  -0.5707  -0.5135  -0.5056  -0.4737
    -0.4181  -0.3827  -0.3274  -0.3213  -0.2969  -0.2397  -0.1618  -0.1281
    -0.0196   0.0131   0.0329   0.0614   0.1252   0.1998   0.2233   0.3218
     0.3259   0.3475   0.4327   0.4373   0.4625   0.4701   0.4998   0.5300
     0.5521   0.6763   0.6903   0.7911   0.8769   0.9536   0.9748   1.0739
     1.1894   1.2002   1.2569   1.2947   1.3420   1.4563   1.5373   1.5479
     1.5731   1.6085   1.6472   1.7185   1.9145   1.9698

     the Fermi energy is     0.4877 ev

!    total energy              =   -2550.69486892 Ry
     estimated scf accuracy    <       0.00000080 Ry
     smearing contrib. (-TS)   =      -0.04221678 Ry
     internal energy E=F+TS    =   -2550.65265214 Ry

     convergence has been achieved in  46 iterations

     negative rho (up, down):  1.690E+00 0.000E+00

     Forces acting on atoms (cartesian axes, Ry/au):

     atom    1 type  1   force =     0.00766942   -0.02747847   -0.02336312
     atom    2 type  1   force =     0.02230967    0.05740102    0.00524219
     atom    3 type  1   force =    -0.03167037    0.06772217   -0.00292525
     atom    4 type  1   force =    -0.04710379    0.00383521    0.00336172
     atom    5 type  1   force =     0.00700714   -0.03391665    0.08561428
     atom    6 type  1   force =     0.04074160    0.00884474   -0.00015212
     atom    7 type  1   force =     0.02700166   -0.03735333    0.00356040
     atom    8 type  1   force =    -0.02785810   -0.02534064   -0.00321012
     atom    9 type  1   force =     0.00523967   -0.01749763   -0.04261257
     atom   10 type  1   force =     0.00684902   -0.00539203    0.01682412
     atom   11 type  1   force =     0.01624737   -0.00263220   -0.00377834
     atom   12 type  1   force =    -0.02050534   -0.00157444    0.00003919
     atom   13 type  1   force =    -0.00285962   -0.04708109   -0.01223209
     atom   14 type  1   force =     0.00332266   -0.05705621    0.01798941
     atom   15 type  1   force =    -0.00438222   -0.05154820   -0.01521490
     atom   16 type  1   force =     0.02088626    0.04292154   -0.00692818
     atom   17 type  1   force =    -0.02174525    0.04875590   -0.00565296
     atom   18 type  1   force =     0.00219005    0.07349433    0.00889769
     atom   19 type  2   force =    -0.00333982    0.00389599   -0.02545934
     The non-local contrib.  to forces
     atom    1 type  1   force =     0.02616163    0.01989806    0.13998249
     atom    2 type  1   force =     0.06863204    0.12177941   -0.08623732
     atom    3 type  1   force =    -0.07473794    0.08190302   -0.11389929
     atom    4 type  1   force =     0.05286548    0.01505078   -0.02152682
     atom    5 type  1   force =    -0.00714929    0.07494360   -0.46271872
     atom    6 type  1   force =    -0.05751513    0.00254034   -0.01460561
     atom    7 type  1   force =     0.11301934   -0.03373536    0.17313953
     atom    8 type  1   force =    -0.13973542   -0.03354075    0.18441888
     atom    9 type  1   force =     0.02143725   -0.08261808    0.08949991
     atom   10 type  1   force =     0.00333104    0.03463144   -0.01423217
     atom   11 type  1   force =    -0.05453095    0.01445110   -0.02456404
     atom   12 type  1   force =     0.05712436    0.01328741   -0.01712432
     atom   13 type  1   force =     0.06340070   -0.02446673    0.03523511
     atom   14 type  1   force =    -0.01360808   -0.03149999   -0.07401436
     atom   15 type  1   force =    -0.06246432   -0.01234501    0.01957853
     atom   16 type  1   force =     0.04704984    0.00484527   -0.02599847
     atom   17 type  1   force =    -0.03174443   -0.00253560   -0.03064158
     atom   18 type  1   force =    -0.00276169   -0.00918097    0.15086000
     atom   19 type  2   force =     0.00056048    0.00570194   -0.03737914
     The ionic contribution  to forces
     atom    1 type  1   force =     1.47152228   -5.12831596    0.82853642
     atom    2 type  1   force =     3.24990589    5.72209697  -18.23121115
     atom    3 type  1   force =    -4.50944858    5.03327840  -19.43582376
     atom    4 type  1   force =     6.79674886   -1.04109999  -10.19465976
     atom    5 type  1   force =    -0.54294791    2.54900227  -35.08426971
     atom    6 type  1   force =    -6.28586381    0.13664448  -10.26666639
     atom    7 type  1   force =     7.31272706   -6.55832269    0.41659349
     atom    8 type  1   force =    -7.51787853   -4.88844682   -0.43983692
     atom    9 type  1   force =     0.13396638    3.94561274   -0.71825565
     atom   10 type  1   force =     0.25780123   -0.25124950    7.50028054
     atom   11 type  1   force =    -1.70816796    3.29679987    9.84283850
     atom   12 type  1   force =     1.43450250    1.88018175    9.95722111
     atom   13 type  1   force =     3.90647812   -7.18098567   13.93922074
     atom   14 type  1   force =    -1.47443883   -2.66767409    1.33397382
     atom   15 type  1   force =    -2.46464522   -7.51711227   13.17055389
     atom   16 type  1   force =     2.74729632    2.51877461    6.71916940
     atom   17 type  1   force =    -3.17243299    4.12300996    5.41775072
     atom   18 type  1   force =     0.47047308    5.80214631   23.92824947
     atom   19 type  2   force =    -0.10559789    0.22565962    1.31633522
     The local contribution  to forces
     atom    1 type  1   force =    -1.49231909    5.10235721   -1.01419604
     atom    2 type  1   force =    -3.30751169   -5.80900309   18.33607742
     atom    3 type  1   force =     4.56395961   -5.06823645   19.56354360
     atom    4 type  1   force =    -6.91397846    1.01720964   10.22133761
     atom    5 type  1   force =     0.55898666   -2.68668847   35.70017047
     atom    6 type  1   force =     6.40125070   -0.14516044   10.28185439
     atom    7 type  1   force =    -7.41465693    6.57686670   -0.60594542
     atom    8 type  1   force =     7.64588729    4.91455237    0.23214151
     atom    9 type  1   force =    -0.15093881   -3.87252229    0.57607826
     atom   10 type  1   force =    -0.25551126    0.21857868   -7.46513684
     atom   11 type  1   force =     1.77995291   -3.32843889   -9.81497463
     atom   12 type  1   force =    -1.51304753   -1.90358343   -9.93558740
     atom   13 type  1   force =    -3.97680431    7.18247711  -13.98848286
     atom   14 type  1   force =     1.49383401    2.64823259   -1.22436067
     atom   15 type  1   force =     2.52591687    7.50274089  -13.20575480
     atom   16 type  1   force =    -2.77350000   -2.48888480   -6.69803372
     atom   17 type  1   force =     3.18405072   -4.08611037   -5.38917590
     atom   18 type  1   force =    -0.46791360   -5.73662500  -24.09101356
     atom   19 type  2   force =     0.10170639   -0.22743255   -1.30439725
     The core correction contribution to forces
     atom    1 type  1   force =     0.00237757   -0.02123626    0.02270937
     atom    2 type  1   force =     0.01147251    0.02319458   -0.01320980
     atom    3 type  1   force =    -0.01163128    0.02105242   -0.01668893
     atom    4 type  1   force =     0.01760396    0.01295049   -0.00147389
     atom    5 type  1   force =    -0.00203562    0.02885922   -0.06736604
     atom    6 type  1   force =    -0.01735536    0.01478966   -0.00050491
     atom    7 type  1   force =     0.01580779   -0.02261264    0.01989514
     atom    8 type  1   force =    -0.01647330   -0.01832487    0.02043583
     atom    9 type  1   force =     0.00121661   -0.00830457    0.01029748
     atom   10 type  1   force =     0.00145910   -0.00687934   -0.00391456
     atom   11 type  1   force =    -0.00088755    0.01448604   -0.00687153
     atom   12 type  1   force =     0.00048240    0.00895394   -0.00429002
     atom   13 type  1   force =     0.00351243   -0.02380861    0.00215971
     atom   14 type  1   force =    -0.00244963   -0.00596443   -0.01769915
     atom   15 type  1   force =    -0.00270198   -0.02390959    0.00061037
     atom   16 type  1   force =     0.00021430    0.00723913   -0.00190801
     atom   17 type  1   force =    -0.00121970    0.01372968   -0.00349285
     atom   18 type  1   force =     0.00176849    0.01636029    0.02113398
     atom   19 type  2   force =     0.00000000    0.00000000    0.00000000
     The Hubbard contrib.    to forces
     atom    1 type  1   force =     0.00000000    0.00000000    0.00000000
     atom    2 type  1   force =     0.00000000    0.00000000    0.00000000
     atom    3 type  1   force =     0.00000000    0.00000000    0.00000000
     atom    4 type  1   force =     0.00000000    0.00000000    0.00000000
     atom    5 type  1   force =     0.00000000    0.00000000    0.00000000
     atom    6 type  1   force =     0.00000000    0.00000000    0.00000000
     atom    7 type  1   force =     0.00000000    0.00000000    0.00000000
     atom    8 type  1   force =     0.00000000    0.00000000    0.00000000
     atom    9 type  1   force =     0.00000000    0.00000000    0.00000000
     atom   10 type  1   force =     0.00000000    0.00000000    0.00000000
     atom   11 type  1   force =     0.00000000    0.00000000    0.00000000
     atom   12 type  1   force =     0.00000000    0.00000000    0.00000000
     atom   13 type  1   force =     0.00000000    0.00000000    0.00000000
     atom   14 type  1   force =     0.00000000    0.00000000    0.00000000
     atom   15 type  1   force =     0.00000000    0.00000000    0.00000000
     atom   16 type  1   force =     0.00000000    0.00000000    0.00000000
     atom   17 type  1   force =     0.00000000    0.00000000    0.00000000
     atom   18 type  1   force =     0.00000000    0.00000000    0.00000000
     atom   19 type  2   force =     0.00000000    0.00000000    0.00000000
     The SCF correction term to forces
     atom    1 type  1   force =    -0.00007445   -0.00017943   -0.00037404
     atom    2 type  1   force =    -0.00019057   -0.00066476   -0.00015563
     atom    3 type  1   force =     0.00018633   -0.00027313   -0.00003556
     atom    4 type  1   force =    -0.00034513   -0.00027362   -0.00029410
     atom    5 type  1   force =     0.00015181   -0.00003118   -0.00018039
     atom    6 type  1   force =     0.00022370    0.00003279   -0.00020828
     atom    7 type  1   force =     0.00010291    0.00045275   -0.00010101
     atom    8 type  1   force =     0.00034037    0.00042152   -0.00034810
     atom    9 type  1   force =    -0.00044324    0.00033666   -0.00021125
     atom   10 type  1   force =    -0.00023258   -0.00047122   -0.00015153
     atom   11 type  1   force =    -0.00012057    0.00007178   -0.00018531
     atom   12 type  1   force =     0.00043145   -0.00041201   -0.00015886
     atom   13 type  1   force =     0.00055194   -0.00029509   -0.00034347
     atom   14 type  1   force =    -0.00001629   -0.00014821    0.00011109
     atom   15 type  1   force =    -0.00048906   -0.00092013   -0.00018158
     atom   16 type  1   force =    -0.00017569    0.00094943   -0.00013606
     atom   17 type  1   force =    -0.00040033    0.00066432   -0.00007203
     atom   18 type  1   force =     0.00062229    0.00079579   -0.00031086
     atom   19 type  2   force =    -0.00001028   -0.00003093    0.00000316

     Total force =     0.224305     Total SCF correction =     0.002700

     Entering Dynamics:    iteration =     2
                           time      =   2.0000 pico-seconds


ATOMIC_POSITIONS (angstrom)
Ta           10.4198733261      -34.9600984174       15.8559730326
Ta           33.7174279564       80.6540692973       53.6434699299
Ta          -36.5224815595       94.8054977107       42.3996816096
Ta          -63.0433313981        9.9114049208       51.7452585154
Ta           14.5957698459      -41.5597624978      161.8457266040
Ta           64.1986156028       16.7269996824       46.9126847358
Ta           39.8976459860      -43.8783636665       52.5902392582
Ta          -31.1494816714      -27.4773347861       43.2502561498
Ta           17.0779542407      -17.3168074680      -10.7241584273
Ta            9.3850360821       -7.6328468423       -2.4935102062
Ta           25.7522426750       -3.6722370530      -30.5286702337
Ta          -21.6712589648       -2.1430956481      -25.2941031670
Ta           -2.5900924375      -61.9115494170      -41.7465348791
Ta            9.6036275436      -75.5224659143       -1.4037751971
Ta            2.4998356632      -68.0209074590      -45.9160032709
Ta           31.5930929909       63.3236434708      -35.0952211307
Ta          -22.8250468914       71.2511982706      -33.4437066398
Ta           12.8947993713      105.2050034814      -12.1506958452
H          -406.2771160581      483.0178493517    -2547.4013632443


     kinetic energy (Ekin) =          33.86998789 Ry
     temperature           =      198061.04195897 K 
     Ekin + Etot (const)   =       -2516.82488103 Ry

     Linear momentum :    0.0000000000   -0.0000000000    0.0000000000

     Writing config-only to output data dir ./pwscf.save/
     NEW-OLD atomic charge density approx. for the potential

     Check: negative core charge=   -0.000004

     negative rho (up, down):  5.817E+00 0.000E+00

     total cpu time spent up to now is      670.2 secs

     Self-consistent Calculation

     iteration #  1     ecut=    30.00 Ry     beta= 0.70
     Davidson diagonalization with overlap
     c_bands:  5 eigenvalues not converged
     ethr =  1.00E-06,  avg # of iterations = 40.0

     negative rho (up, down):  2.515E+00 0.000E+00

     total cpu time spent up to now is      744.2 secs

     total energy              =   -2496.30845781 Ry
     estimated scf accuracy    <      57.65663204 Ry

     iteration #  2     ecut=    30.00 Ry     beta= 0.70
     Davidson diagonalization with overlap
     ethr =  1.00E-02,  avg # of iterations =  9.0

     negative rho (up, down):  2.201E+00 0.000E+00

     total cpu time spent up to now is      763.8 secs

     total energy              =   -2409.04780986 Ry
     estimated scf accuracy    <    2195.43636459 Ry

     iteration #  3     ecut=    30.00 Ry     beta= 0.70
     Davidson diagonalization with overlap
     ethr =  1.00E-02,  avg # of iterations = 11.0

     negative rho (up, down):  1.919E+00 0.000E+00

     total cpu time spent up to now is      785.8 secs

     total energy              =   -2506.18488255 Ry
     estimated scf accuracy    <    1049.88267219 Ry

     iteration #  4     ecut=    30.00 Ry     beta= 0.70
     Davidson diagonalization with overlap
     ethr =  1.00E-02,  avg # of iterations = 12.0

     negative rho (up, down):  1.898E+00 0.000E+00

     total cpu time spent up to now is      800.5 secs

     total energy              =   -2532.36789717 Ry
     estimated scf accuracy    <     219.82014933 Ry

     iteration #  5     ecut=    30.00 Ry     beta= 0.70
     Davidson diagonalization with overlap
     ethr =  1.00E-02,  avg # of iterations =  7.0

     negative rho (up, down):  1.896E+00 0.000E+00

     total cpu time spent up to now is      812.1 secs

     total energy              =   -2540.67723814 Ry
     estimated scf accuracy    <     404.49067825 Ry

     iteration #  6     ecut=    30.00 Ry     beta= 0.70
     Davidson diagonalization with overlap
     ethr =  1.00E-02,  avg # of iterations =  2.0

     negative rho (up, down):  1.881E+00 0.000E+00

     total cpu time spent up to now is      819.3 secs

     total energy              =   -2539.92223455 Ry
     estimated scf accuracy    <     139.30292012 Ry

     iteration #  7     ecut=    30.00 Ry     beta= 0.70
     Davidson diagonalization with overlap
     ethr =  1.00E-02,  avg # of iterations =  1.0

     negative rho (up, down):  1.868E+00 0.000E+00

     total cpu time spent up to now is      826.1 secs

     total energy              =   -2540.08254560 Ry
     estimated scf accuracy    <      74.55697311 Ry

     iteration #  8     ecut=    30.00 Ry     beta= 0.70
     Davidson diagonalization with overlap
     ethr =  1.00E-02,  avg # of iterations =  1.0

     negative rho (up, down):  1.842E+00 0.000E+00

     total cpu time spent up to now is      832.6 secs

     total energy              =   -2540.39799073 Ry
     estimated scf accuracy    <      92.86731318 Ry

     iteration #  9     ecut=    30.00 Ry     beta= 0.70
     Davidson diagonalization with overlap
     ethr =  1.00E-02,  avg # of iterations =  1.0

     negative rho (up, down):  1.821E+00 0.000E+00

     total cpu time spent up to now is      839.0 secs

     total energy              =   -2540.00949381 Ry
     estimated scf accuracy    <      83.63803864 Ry

     iteration # 10     ecut=    30.00 Ry     beta= 0.70
     Davidson diagonalization with overlap
     ethr =  1.00E-02,  avg # of iterations =  1.0

     negative rho (up, down):  1.674E+00 0.000E+00

     total cpu time spent up to now is      845.6 secs

     total energy              =   -2536.44898296 Ry
     estimated scf accuracy    <      43.68786477 Ry

     iteration # 11     ecut=    30.00 Ry     beta= 0.70
     Davidson diagonalization with overlap
     ethr =  1.00E-02,  avg # of iterations =  7.0

     negative rho (up, down):  1.648E+00 0.000E+00

     total cpu time spent up to now is      857.4 secs

     total energy              =   -2541.51804333 Ry
     estimated scf accuracy    <     204.23384983 Ry

     iteration # 12     ecut=    30.00 Ry     beta= 0.70
     Davidson diagonalization with overlap
     ethr =  1.00E-02,  avg # of iterations =  3.0

     negative rho (up, down):  1.645E+00 0.000E+00

     total cpu time spent up to now is      865.3 secs

     total energy              =   -2539.44918084 Ry
     estimated scf accuracy    <      96.65540198 Ry

     iteration # 13     ecut=    30.00 Ry     beta= 0.70
     Davidson diagonalization with overlap
     ethr =  1.00E-02,  avg # of iterations =  3.0

     negative rho (up, down):  1.643E+00 0.000E+00

     total cpu time spent up to now is      872.7 secs

     total energy              =   -2541.27832189 Ry
     estimated scf accuracy    <      65.81521446 Ry

     iteration # 14     ecut=    30.00 Ry     beta= 0.70
     Davidson diagonalization with overlap
     ethr =  1.00E-02,  avg # of iterations =  1.0

     negative rho (up, down):  1.637E+00 0.000E+00

     total cpu time spent up to now is      879.1 secs

     total energy              =   -2538.25720346 Ry
     estimated scf accuracy    <     102.33043024 Ry

     iteration # 15     ecut=    30.00 Ry     beta= 0.70
     Davidson diagonalization with overlap
     ethr =  1.00E-02,  avg # of iterations =  6.0

     negative rho (up, down):  1.637E+00 0.000E+00

     total cpu time spent up to now is      890.3 secs

     total energy              =   -2535.86802654 Ry
     estimated scf accuracy    <     231.42749258 Ry

     iteration # 16     ecut=    30.00 Ry     beta= 0.70
     Davidson diagonalization with overlap
     ethr =  1.00E-02,  avg # of iterations =  3.0

     negative rho (up, down):  1.635E+00 0.000E+00

     total cpu time spent up to now is      898.6 secs

     total energy              =   -2538.07271334 Ry
     estimated scf accuracy    <      82.64861618 Ry

     iteration # 17     ecut=    30.00 Ry     beta= 0.70
     Davidson diagonalization with overlap
     ethr =  1.00E-02,  avg # of iterations =  2.0

     negative rho (up, down):  1.635E+00 0.000E+00

     total cpu time spent up to now is      906.6 secs

     total energy              =   -2538.66883076 Ry
     estimated scf accuracy    <      43.83436241 Ry

     iteration # 18     ecut=    30.00 Ry     beta= 0.70
     Davidson diagonalization with overlap
     ethr =  1.00E-02,  avg # of iterations =  6.0

     negative rho (up, down):  1.634E+00 0.000E+00

     total cpu time spent up to now is      914.7 secs

     total energy              =   -2538.94286024 Ry
     estimated scf accuracy    <      51.18562248 Ry

     iteration # 19     ecut=    30.00 Ry     beta= 0.70
     Davidson diagonalization with overlap
     ethr =  1.00E-02,  avg # of iterations =  5.0

     negative rho (up, down):  1.626E+00 0.000E+00

     total cpu time spent up to now is      923.1 secs

     total energy              =   -2532.86334310 Ry
     estimated scf accuracy    <      60.74869156 Ry

     iteration # 20     ecut=    30.00 Ry     beta= 0.70
     Davidson diagonalization with overlap
     ethr =  1.00E-02,  avg # of iterations =  6.0

     negative rho (up, down):  1.634E+00 0.000E+00

     total cpu time spent up to now is      935.1 secs

     total energy              =   -2535.01101992 Ry
     estimated scf accuracy    <     647.95314072 Ry

     iteration # 21     ecut=    30.00 Ry     beta= 0.70
     Davidson diagonalization with overlap
     ethr =  1.00E-02,  avg # of iterations =  7.0

     negative rho (up, down):  1.631E+00 0.000E+00

     total cpu time spent up to now is      944.4 secs

     total energy              =   -2539.16371796 Ry
     estimated scf accuracy    <     121.60771859 Ry

     iteration # 22     ecut=    30.00 Ry     beta= 0.70
     Davidson diagonalization with overlap
     ethr =  1.00E-02,  avg # of iterations =  5.0

     negative rho (up, down):  1.632E+00 0.000E+00

     total cpu time spent up to now is      952.3 secs

     total energy              =   -2537.86327159 Ry
     estimated scf accuracy    <     124.39625501 Ry

     iteration # 23     ecut=    30.00 Ry     beta= 0.70
     Davidson diagonalization with overlap
     ethr =  1.00E-02,  avg # of iterations =  6.0

     negative rho (up, down):  1.629E+00 0.000E+00

     total cpu time spent up to now is      960.1 secs

     total energy              =   -2535.45474283 Ry
     estimated scf accuracy    <     142.13599882 Ry

     iteration # 24     ecut=    30.00 Ry     beta= 0.70
     Davidson diagonalization with overlap
     ethr =  1.00E-02,  avg # of iterations =  7.0

     negative rho (up, down):  1.632E+00 0.000E+00

     total cpu time spent up to now is      971.5 secs

     total energy              =   -2535.07058964 Ry
     estimated scf accuracy    <     321.31436129 Ry

     iteration # 25     ecut=    30.00 Ry     beta= 0.70
     Davidson diagonalization with overlap
     ethr =  1.00E-02,  avg # of iterations =  7.0

     negative rho (up, down):  1.632E+00 0.000E+00

     total cpu time spent up to now is      979.9 secs

     total energy              =   -2537.87304724 Ry
     estimated scf accuracy    <     117.70010670 Ry

     iteration # 26     ecut=    30.00 Ry     beta= 0.70
     Davidson diagonalization with overlap
     ethr =  1.00E-02,  avg # of iterations =  3.0

     negative rho (up, down):  1.630E+00 0.000E+00

     total cpu time spent up to now is      987.1 secs

     total energy              =   -2537.66567315 Ry
     estimated scf accuracy    <      85.30956697 Ry

     iteration # 27     ecut=    30.00 Ry     beta= 0.70
     Davidson diagonalization with overlap
     ethr =  1.00E-02,  avg # of iterations =  7.0

     negative rho (up, down):  1.631E+00 0.000E+00

     total cpu time spent up to now is      998.1 secs

     total energy              =   -2534.74186909 Ry
     estimated scf accuracy    <     144.89588348 Ry

     iteration # 28     ecut=    30.00 Ry     beta= 0.70
     Davidson diagonalization with overlap
     ethr =  1.00E-02,  avg # of iterations =  7.0

     negative rho (up, down):  1.630E+00 0.000E+00

     total cpu time spent up to now is     1012.1 secs

     total energy              =   -2533.73239362 Ry
     estimated scf accuracy    <     140.16708508 Ry

     iteration # 29     ecut=    30.00 Ry     beta= 0.70
     Davidson diagonalization with overlap
     ethr =  1.00E-02,  avg # of iterations =  9.0

     negative rho (up, down):  1.633E+00 0.000E+00

     total cpu time spent up to now is     1025.1 secs

     total energy              =   -2534.61334385 Ry
     estimated scf accuracy    <     133.19996930 Ry

     iteration # 30     ecut=    30.00 Ry     beta= 0.70
     Davidson diagonalization with overlap
     ethr =  1.00E-02,  avg # of iterations =  6.0

     negative rho (up, down):  1.633E+00 0.000E+00

     total cpu time spent up to now is     1034.1 secs

     total energy              =   -2538.06868242 Ry
     estimated scf accuracy    <      91.45998966 Ry

     iteration # 31     ecut=    30.00 Ry     beta= 0.70
     Davidson diagonalization with overlap
     ethr =  1.00E-02,  avg # of iterations =  8.0

     negative rho (up, down):  1.633E+00 0.000E+00

     total cpu time spent up to now is     1044.1 secs

     total energy              =   -2536.11492472 Ry
     estimated scf accuracy    <     216.05016098 Ry

     iteration # 32     ecut=    30.00 Ry     beta= 0.70
     Davidson diagonalization with overlap
     ethr =  1.00E-02,  avg # of iterations =  5.0

     negative rho (up, down):  1.633E+00 0.000E+00

     total cpu time spent up to now is     1054.1 secs

     total energy              =   -2533.22286279 Ry
     estimated scf accuracy    <     245.03957708 Ry

     iteration # 33     ecut=    30.00 Ry     beta= 0.70
     Davidson diagonalization with overlap
     ethr =  1.00E-02,  avg # of iterations =  8.0

     negative rho (up, down):  1.633E+00 0.000E+00

     total cpu time spent up to now is     1065.1 secs

     total energy              =   -2531.46243212 Ry
     estimated scf accuracy    <     363.56481876 Ry

     iteration # 34     ecut=    30.00 Ry     beta= 0.70
     Davidson diagonalization with overlap
     ethr =  1.00E-02,  avg # of iterations =  8.0

     negative rho (up, down):  1.634E+00 0.000E+00

     total cpu time spent up to now is     1075.6 secs

     total energy              =   -2535.83180492 Ry
     estimated scf accuracy    <     185.25220541 Ry

     iteration # 35     ecut=    30.00 Ry     beta= 0.70
     Davidson diagonalization with overlap
     ethr =  1.00E-02,  avg # of iterations =  9.0

     negative rho (up, down):  1.635E+00 0.000E+00

     total cpu time spent up to now is     1086.4 secs

     total energy              =   -2532.45606868 Ry
     estimated scf accuracy    <     323.86011458 Ry

     iteration # 36     ecut=    30.00 Ry     beta= 0.70
     Davidson diagonalization with overlap
     ethr =  1.00E-02,  avg # of iterations =  7.0

     negative rho (up, down):  1.634E+00 0.000E+00

     total cpu time spent up to now is     1096.1 secs

     total energy              =   -2535.25393377 Ry
     estimated scf accuracy    <     143.15796313 Ry

     iteration # 37     ecut=    30.00 Ry     beta= 0.70
     Davidson diagonalization with overlap
     ethr =  1.00E-02,  avg # of iterations =  8.0

     negative rho (up, down):  1.634E+00 0.000E+00

     total cpu time spent up to now is     1106.1 secs

     total energy              =   -2535.11820795 Ry
     estimated scf accuracy    <     124.73993574 Ry

     iteration # 38     ecut=    30.00 Ry     beta= 0.70
     Davidson diagonalization with overlap
     ethr =  1.00E-02,  avg # of iterations =  6.0

     negative rho (up, down):  1.634E+00 0.000E+00

     total cpu time spent up to now is     1116.0 secs

     total energy              =   -2534.51450090 Ry
     estimated scf accuracy    <     167.60574430 Ry

     iteration # 39     ecut=    30.00 Ry     beta= 0.70
     Davidson diagonalization with overlap
     ethr =  1.00E-02,  avg # of iterations =  8.0

     negative rho (up, down):  1.634E+00 0.000E+00

     total cpu time spent up to now is     1125.3 secs

     total energy              =   -2535.89918501 Ry
     estimated scf accuracy    <      88.66717916 Ry

     iteration # 40     ecut=    30.00 Ry     beta= 0.70
     Davidson diagonalization with overlap
     ethr =  1.00E-02,  avg # of iterations =  7.0

     negative rho (up, down):  1.634E+00 0.000E+00

     total cpu time spent up to now is     1135.6 secs

     total energy              =   -2534.06981213 Ry
     estimated scf accuracy    <     175.77350988 Ry

     iteration # 41     ecut=    30.00 Ry     beta= 0.70
     Davidson diagonalization with overlap
     ethr =  1.00E-02,  avg # of iterations =  8.0

     negative rho (up, down):  1.633E+00 0.000E+00

     total cpu time spent up to now is     1145.7 secs

     total energy              =   -2535.43927180 Ry
     estimated scf accuracy    <     212.09491263 Ry

     iteration # 42     ecut=    30.00 Ry     beta= 0.70
     Davidson diagonalization with overlap
     ethr =  1.00E-02,  avg # of iterations =  6.0

     negative rho (up, down):  1.633E+00 0.000E+00

     total cpu time spent up to now is     1155.4 secs

     total energy              =   -2535.21428348 Ry
     estimated scf accuracy    <     239.86814118 Ry

     iteration # 43     ecut=    30.00 Ry     beta= 0.70
     Davidson diagonalization with overlap
     ethr =  1.00E-02,  avg # of iterations =  4.0

     negative rho (up, down):  1.633E+00 0.000E+00

     total cpu time spent up to now is     1163.1 secs

     total energy              =   -2533.40289282 Ry
     estimated scf accuracy    <     149.89523361 Ry

     iteration # 44     ecut=    30.00 Ry     beta= 0.70
     Davidson diagonalization with overlap
     ethr =  1.00E-02,  avg # of iterations =  6.0

     negative rho (up, down):  1.634E+00 0.000E+00

     total cpu time spent up to now is     1174.2 secs

     total energy              =   -2527.88401088 Ry
     estimated scf accuracy    <     652.89707156 Ry

     iteration # 45     ecut=    30.00 Ry     beta= 0.70
     Davidson diagonalization with overlap
     ethr =  1.00E-02,  avg # of iterations =  9.0

     negative rho (up, down):  1.634E+00 0.000E+00

     total cpu time spent up to now is     1185.8 secs

[...]

     negative rho (up, down):  1.633E+00 0.000E+00

     total cpu time spent up to now is     1267.1 secs

     total energy              =   -2532.59931743 Ry
     estimated scf accuracy    <     217.27652748 Ry

     iteration # 54     ecut=    30.00 Ry     beta= 0.70
     Davidson diagonalization with overlap
     ethr =  1.00E-02,  avg # of iterations =  7.0

     negative rho (up, down):  1.633E+00 0.000E+00

     total cpu time spent up to now is     1278.2 secs

     total energy              =   -2533.44790096 Ry
     estimated scf accuracy    <     387.02198364 Ry

     iteration # 55     ecut=    30.00 Ry     beta= 0.70
     Davidson diagonalization with overlap
     ethr =  1.00E-02,  avg # of iterations =  8.0

     negative rho (up, down):  1.634E+00 0.000E+00

     total cpu time spent up to now is     1289.4 secs

     total energy              =   -2531.63132674 Ry
     estimated scf accuracy    <     477.65469804 Ry

     iteration # 56     ecut=    30.00 Ry     beta= 0.70
     Davidson diagonalization with overlap
     ethr =  1.00E-02,  avg # of iterations =  9.0

     negative rho (up, down):  1.634E+00 0.000E+00

     total cpu time spent up to now is     1300.0 secs

     total energy              =   -2534.41853179 Ry
     estimated scf accuracy    <     145.51458838 Ry

     iteration # 57     ecut=    30.00 Ry     beta= 0.70
     Davidson diagonalization with overlap
     ethr =  1.00E-02,  avg # of iterations =  9.0

     negative rho (up, down):  1.634E+00 0.000E+00

     total cpu time spent up to now is     1310.1 secs

     total energy              =   -2534.15372348 Ry
     estimated scf accuracy    <     149.90659937 Ry

     iteration # 58     ecut=    30.00 Ry     beta= 0.70
     Davidson diagonalization with overlap
     ethr =  1.00E-02,  avg # of iterations =  8.0

     negative rho (up, down):  1.634E+00 0.000E+00

     total cpu time spent up to now is     1320.5 secs

     total energy              =   -2534.54783880 Ry
     estimated scf accuracy    <     164.67503834 Ry

     iteration # 59     ecut=    30.00 Ry     beta= 0.70
     Davidson diagonalization with overlap
     ethr =  1.00E-02,  avg # of iterations =  7.0

     negative rho (up, down):  1.634E+00 0.000E+00

     total cpu time spent up to now is     1330.3 secs

     total energy              =   -2534.13817646 Ry
     estimated scf accuracy    <     122.21808831 Ry

     iteration # 60     ecut=    30.00 Ry     beta= 0.70
     Davidson diagonalization with overlap
     ethr =  1.00E-02,  avg # of iterations =  8.0

     negative rho (up, down):  1.634E+00 0.000E+00

     total cpu time spent up to now is     1341.1 secs

     total energy              =   -2533.61989609 Ry
     estimated scf accuracy    <     153.58837765 Ry

     iteration # 61     ecut=    30.00 Ry     beta= 0.70
     Davidson diagonalization with overlap
     ethr =  1.00E-02,  avg # of iterations =  7.0

     negative rho (up, down):  1.633E+00 0.000E+00

     total cpu time spent up to now is     1351.4 secs

     total energy              =   -2534.16399478 Ry
     estimated scf accuracy    <     218.16560492 Ry

     iteration # 62     ecut=    30.00 Ry     beta= 0.70
     Davidson diagonalization with overlap
     ethr =  1.00E-02,  avg # of iterations =  7.0

     negative rho (up, down):  1.634E+00 0.000E+00

     total cpu time spent up to now is     1361.3 secs

     total energy              =   -2534.96839320 Ry
     estimated scf accuracy    <     230.57090363 Ry

     iteration # 63     ecut=    30.00 Ry     beta= 0.70
     Davidson diagonalization with overlap
     ethr =  1.00E-02,  avg # of iterations =  5.0

     negative rho (up, down):  1.633E+00 0.000E+00

     total cpu time spent up to now is     1370.7 secs

     total energy              =   -2533.18049015 Ry
     estimated scf accuracy    <     190.34474930 Ry

     iteration # 64     ecut=    30.00 Ry     beta= 0.70
     Davidson diagonalization with overlap
     ethr =  1.00E-02,  avg # of iterations =  6.0

     negative rho (up, down):  1.634E+00 0.000E+00

     total cpu time spent up to now is     1383.4 secs

     total energy              =   -2531.30689003 Ry
     estimated scf accuracy    <     500.99675843 Ry

     iteration # 65     ecut=    30.00 Ry     beta= 0.70
     Davidson diagonalization with overlap
     ethr =  1.00E-02,  avg # of iterations = 10.0

     negative rho (up, down):  1.634E+00 0.000E+00

     total cpu time spent up to now is     1396.0 secs

     total energy              =   -2533.94165202 Ry
     estimated scf accuracy    <     376.28393842 Ry

     iteration # 66     ecut=    30.00 Ry     beta= 0.70
     Davidson diagonalization with overlap
     ethr =  1.00E-02,  avg # of iterations =  8.0

     negative rho (up, down):  1.634E+00 0.000E+00

     total cpu time spent up to now is     1406.4 secs

     total energy              =   -2533.49405696 Ry
     estimated scf accuracy    <     160.52444592 Ry

     iteration # 67     ecut=    30.00 Ry     beta= 0.70
     Davidson diagonalization with overlap
     ethr =  1.00E-02,  avg # of iterations =  8.0

     negative rho (up, down):  1.634E+00 0.000E+00

     total cpu time spent up to now is     1417.4 secs

     total energy              =   -2533.76725911 Ry
     estimated scf accuracy    <     166.40324877 Ry

     iteration # 68     ecut=    30.00 Ry     beta= 0.70
     Davidson diagonalization with overlap
     ethr =  1.00E-02,  avg # of iterations =  8.0

     negative rho (up, down):  1.634E+00 0.000E+00

     total cpu time spent up to now is     1427.8 secs

     total energy              =   -2534.57035574 Ry
     estimated scf accuracy    <     151.45261484 Ry

     iteration # 69     ecut=    30.00 Ry     beta= 0.70
     Davidson diagonalization with overlap
     ethr =  1.00E-02,  avg # of iterations =  6.0

     negative rho (up, down):  1.635E+00 0.000E+00

     total cpu time spent up to now is     1437.9 secs

     total energy              =   -2532.40277691 Ry
     estimated scf accuracy    <     164.60996858 Ry

     iteration # 70     ecut=    30.00 Ry     beta= 0.70
     Davidson diagonalization with overlap
     ethr =  1.00E-02,  avg # of iterations =  7.0

     negative rho (up, down):  1.634E+00 0.000E+00

     total cpu time spent up to now is     1448.5 secs

     total energy              =   -2533.75934008 Ry
     estimated scf accuracy    <     170.10718107 Ry

     iteration # 71     ecut=    30.00 Ry     beta= 0.70
     Davidson diagonalization with overlap
     ethr =  1.00E-02,  avg # of iterations =  8.0

     negative rho (up, down):  1.634E+00 0.000E+00

     total cpu time spent up to now is     1459.8 secs

     total energy              =   -2534.58408836 Ry
     estimated scf accuracy    <     201.95923040 Ry

     iteration # 72     ecut=    30.00 Ry     beta= 0.70
     Davidson diagonalization with overlap
     ethr =  1.00E-02,  avg # of iterations =  6.0

     negative rho (up, down):  1.634E+00 0.000E+00

     total cpu time spent up to now is     1471.3 secs

     total energy              =   -2535.18201400 Ry
     estimated scf accuracy    <     233.75883855 Ry

     iteration # 73     ecut=    30.00 Ry     beta= 0.70
     Davidson diagonalization with overlap
     ethr =  1.00E-02,  avg # of iterations =  6.0

     negative rho (up, down):  1.633E+00 0.000E+00

     total cpu time spent up to now is     1482.0 secs

     total energy              =   -2534.92763316 Ry
     estimated scf accuracy    <     152.03126308 Ry

     iteration # 74     ecut=    30.00 Ry     beta= 0.70
     Davidson diagonalization with overlap
     ethr =  1.00E-02,  avg # of iterations =  6.0

     negative rho (up, down):  1.633E+00 0.000E+00

     total cpu time spent up to now is     1492.5 secs

     total energy              =   -2532.51170351 Ry
     estimated scf accuracy    <     430.28699836 Ry

     iteration # 75     ecut=    30.00 Ry     beta= 0.70
     Davidson diagonalization with overlap
     ethr =  1.00E-02,  avg # of iterations =  9.0

     negative rho (up, down):  1.634E+00 0.000E+00

     total cpu time spent up to now is     1503.7 secs

     total energy              =   -2531.84557940 Ry
     estimated scf accuracy    <     452.55340626 Ry

     iteration # 76     ecut=    30.00 Ry     beta= 0.70
     Davidson diagonalization with overlap
     ethr =  1.00E-02,  avg # of iterations =  8.0

     negative rho (up, down):  1.634E+00 0.000E+00

     total cpu time spent up to now is     1514.1 secs

     total energy              =   -2533.65291364 Ry
     estimated scf accuracy    <     168.05576161 Ry

     iteration # 77     ecut=    30.00 Ry     beta= 0.70
     Davidson diagonalization with overlap
     ethr =  1.00E-02,  avg # of iterations =  8.0

     negative rho (up, down):  1.634E+00 0.000E+00

     total cpu time spent up to now is     1525.1 secs

     total energy              =   -2533.76548348 Ry
     estimated scf accuracy    <     176.82751677 Ry

     iteration # 78     ecut=    30.00 Ry     beta= 0.70
     Davidson diagonalization with overlap
     ethr =  1.00E-02,  avg # of iterations =  8.0

     negative rho (up, down):  1.634E+00 0.000E+00

     total cpu time spent up to now is     1535.4 secs

     total energy              =   -2534.22730718 Ry
     estimated scf accuracy    <     158.12898379 Ry

     iteration # 79     ecut=    30.00 Ry     beta= 0.70
     Davidson diagonalization with overlap
     ethr =  1.00E-02,  avg # of iterations =  7.0

     negative rho (up, down):  1.634E+00 0.000E+00

     total cpu time spent up to now is     1545.7 secs

     total energy              =   -2531.98261358 Ry
     estimated scf accuracy    <     199.24272613 Ry

     iteration # 80     ecut=    30.00 Ry     beta= 0.70
     Davidson diagonalization with overlap
     ethr =  1.00E-02,  avg # of iterations =  8.0

     negative rho (up, down):  1.634E+00 0.000E+00

     total cpu time spent up to now is     1556.5 secs

     total energy              =   -2533.96727964 Ry
     estimated scf accuracy    <     162.74064957 Ry

     iteration # 81     ecut=    30.00 Ry     beta= 0.70
     Davidson diagonalization with overlap
     ethr =  1.00E-02,  avg # of iterations =  8.0

     negative rho (up, down):  1.634E+00 0.000E+00

     total cpu time spent up to now is     1567.5 secs

     total energy              =   -2534.26043037 Ry
     estimated scf accuracy    <     206.86942371 Ry

     iteration # 82     ecut=    30.00 Ry     beta= 0.70
     Davidson diagonalization with overlap
     ethr =  1.00E-02,  avg # of iterations =  5.0

     negative rho (up, down):  1.634E+00 0.000E+00

     total cpu time spent up to now is     1577.2 secs

     total energy              =   -2534.94035289 Ry
     estimated scf accuracy    <     233.34421971 Ry

     iteration # 83     ecut=    30.00 Ry     beta= 0.70
     Davidson diagonalization with overlap
     ethr =  1.00E-02,  avg # of iterations =  5.0

     negative rho (up, down):  1.634E+00 0.000E+00

     total cpu time spent up to now is     1587.6 secs

     total energy              =   -2532.88297632 Ry
     estimated scf accuracy    <     166.01399623 Ry

     iteration # 84     ecut=    30.00 Ry     beta= 0.70
     Davidson diagonalization with overlap
     ethr =  1.00E-02,  avg # of iterations =  6.0

     negative rho (up, down):  1.634E+00 0.000E+00

     total cpu time spent up to now is     1599.1 secs

     total energy              =   -2531.10929990 Ry
     estimated scf accuracy    <     553.30348521 Ry

     iteration # 85     ecut=    30.00 Ry     beta= 0.70
     Davidson diagonalization with overlap
     ethr =  1.00E-02,  avg # of iterations = 10.0

     negative rho (up, down):  1.634E+00 0.000E+00

     total cpu time spent up to now is     1610.4 secs

     total energy              =   -2533.91264201 Ry
     estimated scf accuracy    <     358.51895021 Ry

     iteration # 86     ecut=    30.00 Ry     beta= 0.70
     Davidson diagonalization with overlap
     ethr =  1.00E-02,  avg # of iterations =  7.0

     negative rho (up, down):  1.634E+00 0.000E+00

     total cpu time spent up to now is     1620.8 secs

     total energy              =   -2533.92084710 Ry
     estimated scf accuracy    <     157.55106978 Ry

     iteration # 87     ecut=    30.00 Ry     beta= 0.70
     Davidson diagonalization with overlap
     ethr =  1.00E-02,  avg # of iterations =  8.0

     negative rho (up, down):  1.634E+00 0.000E+00

     total cpu time spent up to now is     1631.5 secs

     total energy              =   -2533.44767292 Ry
     estimated scf accuracy    <     183.87915021 Ry

     iteration # 88     ecut=    30.00 Ry     beta= 0.70
     Davidson diagonalization with overlap
     ethr =  1.00E-02,  avg # of iterations =  8.0

     negative rho (up, down):  1.634E+00 0.000E+00

     total cpu time spent up to now is     1644.9 secs

     total energy              =   -2534.17574142 Ry
     estimated scf accuracy    <     161.28026694 Ry

     iteration # 89     ecut=    30.00 Ry     beta= 0.70
     Davidson diagonalization with overlap
     ethr =  1.00E-02,  avg # of iterations =  7.0

     negative rho (up, down):  1.635E+00 0.000E+00

     total cpu time spent up to now is     1656.8 secs

     total energy              =   -2532.36159169 Ry
     estimated scf accuracy    <     215.77830968 Ry

     iteration # 90     ecut=    30.00 Ry     beta= 0.70
     Davidson diagonalization with overlap
     ethr =  1.00E-02,  avg # of iterations =  8.0

     negative rho (up, down):  1.634E+00 0.000E+00

     total cpu time spent up to now is     1667.4 secs

     total energy              =   -2534.42116591 Ry
     estimated scf accuracy    <     148.28481971 Ry

     iteration # 91     ecut=    30.00 Ry     beta= 0.70
     Davidson diagonalization with overlap
     ethr =  1.00E-02,  avg # of iterations =  6.0

     negative rho (up, down):  1.634E+00 0.000E+00

     total cpu time spent up to now is     1678.1 secs

     total energy              =   -2534.68489788 Ry
     estimated scf accuracy    <     200.39463574 Ry

     iteration # 92     ecut=    30.00 Ry     beta= 0.70
     Davidson diagonalization with overlap
     ethr =  1.00E-02,  avg # of iterations =  6.0

     negative rho (up, down):  1.634E+00 0.000E+00

     total cpu time spent up to now is     1687.7 secs

     total energy              =   -2535.13862699 Ry
     estimated scf accuracy    <     226.97826795 Ry

     iteration # 93     ecut=    30.00 Ry     beta= 0.70
     Davidson diagonalization with overlap
     ethr =  1.00E-02,  avg # of iterations =  5.0

     negative rho (up, down):  1.633E+00 0.000E+00

     total cpu time spent up to now is     1697.5 secs

     total energy              =   -2533.24382220 Ry
     estimated scf accuracy    <     146.49404951 Ry

     iteration # 94     ecut=    30.00 Ry     beta= 0.70
     Davidson diagonalization with overlap
     ethr =  1.00E-02,  avg # of iterations =  6.0

     negative rho (up, down):  1.634E+00 0.000E+00

     total cpu time spent up to now is     1707.9 secs

     total energy              =   -2529.22523262 Ry
     estimated scf accuracy    <     705.77281329 Ry

     iteration # 95     ecut=    30.00 Ry     beta= 0.70
     Davidson diagonalization with overlap
     ethr =  1.00E-02,  avg # of iterations =  9.0

     negative rho (up, down):  1.634E+00 0.000E+00

     total cpu time spent up to now is     1719.5 secs

     total energy              =   -2532.33973141 Ry
     estimated scf accuracy    <     399.59287749 Ry

     iteration # 96     ecut=    30.00 Ry     beta= 0.70
     Davidson diagonalization with overlap
     ethr =  1.00E-02,  avg # of iterations =  7.0

     negative rho (up, down):  1.634E+00 0.000E+00

     total cpu time spent up to now is     1729.7 secs

     total energy              =   -2534.10350241 Ry
     estimated scf accuracy    <     158.35969471 Ry

     iteration # 97     ecut=    30.00 Ry     beta= 0.70
     Davidson diagonalization with overlap
     ethr =  1.00E-02,  avg # of iterations =  8.0

     negative rho (up, down):  1.635E+00 0.000E+00

     total cpu time spent up to now is     1740.6 secs

     total energy              =   -2533.32127231 Ry
     estimated scf accuracy    <     181.35354945 Ry

     iteration # 98     ecut=    30.00 Ry     beta= 0.70
     Davidson diagonalization with overlap
     ethr =  1.00E-02,  avg # of iterations =  8.0

     negative rho (up, down):  1.634E+00 0.000E+00

     total cpu time spent up to now is     1751.2 secs

     total energy              =   -2534.17572541 Ry
     estimated scf accuracy    <     157.08743842 Ry

     iteration # 99     ecut=    30.00 Ry     beta= 0.70
     Davidson diagonalization with overlap
     ethr =  1.00E-02,  avg # of iterations =  6.0

     negative rho (up, down):  1.635E+00 0.000E+00

     total cpu time spent up to now is     1761.1 secs

     total energy              =   -2533.03324110 Ry
     estimated scf accuracy    <     215.15966634 Ry

     iteration #100     ecut=    30.00 Ry     beta= 0.70
     Davidson diagonalization with overlap
     ethr =  1.00E-02,  avg # of iterations =  8.0

     negative rho (up, down):  1.635E+00 0.000E+00

     total cpu time spent up to now is     1771.9 secs

     total energy              =   -2534.66039464 Ry
     estimated scf accuracy    <     135.02746615 Ry

     End of self-consistent calculation

     convergence NOT achieved after 100 iterations: stopping

     Writing config to output data dir ./pwscf.save/
     Message from routine punch:
     wavefunctions written to file

     init_run     :      5.16s CPU      5.27s WALL (       1 calls)
     electrons    :   1732.99s CPU   1757.65s WALL (       3 calls)
     update_pot   :      0.92s CPU      0.92s WALL (       2 calls)
     forces       :      6.61s CPU      6.70s WALL (       2 calls)

     Called by init_run:
     wfcinit      :      3.76s CPU      3.82s WALL (       1 calls)
     potinit      :      0.20s CPU      0.21s WALL (       1 calls)
     hinit0       :      0.64s CPU      0.65s WALL (       1 calls)

     Called by electrons:
     c_bands      :   1457.36s CPU   1469.02s WALL (     177 calls)
     sum_band     :    178.40s CPU    186.11s WALL (     177 calls)
     v_of_rho     :      6.00s CPU      6.14s WALL (     180 calls)
     newd         :     91.01s CPU     96.17s WALL (     180 calls)
     mix_rho      :      1.58s CPU      1.58s WALL (     177 calls)

     Called by c_bands:
     init_us_2    :      2.16s CPU      2.19s WALL (     355 calls)
     init_us_2:cp :      2.16s CPU      2.18s WALL (     355 calls)
     cegterg      :   1442.90s CPU   1454.49s WALL (     179 calls)

     Called by *egterg:
     cdiaghg      :     85.76s CPU     85.86s WALL (    1219 calls)
     h_psi        :    576.18s CPU    586.27s WALL (    1224 calls)
     s_psi        :    214.73s CPU    215.02s WALL (    1224 calls)
     g_psi        :      0.60s CPU      0.60s WALL (    1044 calls)

     Called by h_psi:
     h_psi:calbec :    234.01s CPU    234.78s WALL (    1224 calls)
     vloc_psi     :    125.51s CPU    134.48s WALL (    1224 calls)
     add_vuspsi   :    215.63s CPU    215.88s WALL (    1224 calls)

     General routines
     calbec       :    313.14s CPU    314.08s WALL (    1409 calls)
     fft          :      7.30s CPU      7.44s WALL (    2005 calls)
     ffts         :      0.27s CPU      0.28s WALL (     177 calls)
     fftw         :    132.96s CPU    142.50s WALL (  178930 calls)
     davcio       :      0.00s CPU      0.02s WALL (      19 calls)

     Parallel routines

     PWSCF        :  29m 6.99s CPU  29m31.94s WALL


   This run was terminated on:  18:41:52   4May2023            

=------------------------------------------------------------------------------=
   JOB DONE.
=------------------------------------------------------------------------------=
