
     Program PWSCF v.7.2 starts on 22May2023 at 21:14:12 

     This program is part of the open-source Quantum ESPRESSO suite
     for quantum simulation of materials; please cite
         "P. Giannozzi et al., J. Phys.:Condens. Matter 21 395502 (2009);
         "P. Giannozzi et al., J. Phys.:Condens. Matter 29 465901 (2017);
         "P. Giannozzi et al., J. Chem. Phys. 152 154105 (2020);
          URL http://www.quantum-espresso.org", 
     in publications or presentations arising from this work. More details at
     http://www.quantum-espresso.org/quote

     Parallel version (MPI), running on    12 processors

     MPI processes distributed on     1 nodes
     74620 MiB available memory on the printing compute node when the environment starts

     Reading input from HfNbTaZr_16_MD_nsteps_50.in
Warning: card &CELL ignored
Warning: card / ignored
Warning: card TA 0.0 0.0 0.0 ignored
Warning: card NB 0.0 0.0 0.0 ignored
Warning: card HF 0.0 0.0 0.0 ignored
Warning: card ZR 0.0 0.0 0.0 ignored
Warning: card H 0.0 0.0 -0.03464 ignored

     Current dimensions of program PWSCF are:
     Max number of different atomic species (ntypx) = 10
     Max number of k-points (npk) =  40000
     Max angular momentum in pseudopotentials (lmaxx) =  4

     File ./pwscf.md deleted, as requested

     R & G space division:  proc/nbgrp/npool/nimage =      12
     Subspace diagonalization in iterative solution of the eigenvalue problem:
     a serial algorithm will be used


     Parallelization info
     --------------------
     sticks:   dense  smooth     PW     G-vecs:    dense   smooth      PW
     Min         126     126     31                17826    17826    2217
     Max         127     127     32                17839    17839    2234
     Sum        1517    1517    377               213975   213975   26649

     Using Slab Decomposition



     bravais-lattice index     =            0
     lattice parameter (alat)  =       6.3117  a.u.
     unit-cell volume          =    1205.8245 (a.u.)^3
     number of atoms/cell      =           17
     number of atomic types    =            5
     number of electrons       =       201.00
     number of Kohn-Sham states=          121
     kinetic-energy cutoff     =     120.0000  Ry
     charge density cutoff     =     480.0000  Ry
     scf convergence threshold =      1.0E-06
     mixing beta               =       0.7000
     number of iterations used =            8  TF        mixing
     energy convergence thresh.=      0.0E+00
     force convergence thresh. =      0.0E+00
     Exchange-correlation=  SLA  PW   PBX  PBC
                           (   1   4   3   4   0   0   0)
     nstep                     =           50


     celldm(1)=   6.311685  celldm(2)=   0.000000  celldm(3)=   0.000000
     celldm(4)=   0.000000  celldm(5)=   0.000000  celldm(6)=   0.000000

     crystal axes: (cart. coord. in units of alat)
               a(1) = (   1.000000   0.000000   0.000000 )  
               a(2) = (   0.000000   1.000000   0.000000 )  
               a(3) = (   0.000000   0.000000   4.795658 )  

     reciprocal axes: (cart. coord. in units 2 pi/alat)
               b(1) = (  1.000000  0.000000  0.000000 )  
               b(2) = (  0.000000  1.000000  0.000000 )  
               b(3) = (  0.000000  0.000000  0.208522 )  


     PseudoPot. # 1 for Hf read from file:
     q-e/pseudo/hf_pbe_v1.uspp.F.UPF
     MD5 check sum: 8ee9378dfe14276e333edf04c5e4aa26
     Pseudo is Ultrasoft + core correction, Zval = 12.0
     Generated by new atomic code, or converted to UPF format
     Using radial grid of  921 points,  8 beta functions with: 
                l(1) =   0
                l(2) =   0
                l(3) =   0
                l(4) =   1
                l(5) =   1
                l(6) =   2
                l(7) =   2
                l(8) =   3
     Q(r) pseudized with  6 coefficients,  rinner =    1.200   1.200   1.200
                                                       1.200   1.200   1.200
                                                       1.200

     PseudoPot. # 2 for Nb read from file:
     q-e/pseudo/nb_pbe_v1.uspp.F.UPF
     MD5 check sum: 573aab8a2fa660278ed4a62cd769473f
     Pseudo is Ultrasoft + core correction, Zval = 13.0
     Generated by new atomic code, or converted to UPF format
     Using radial grid of  887 points,  6 beta functions with: 
                l(1) =   0
                l(2) =   0
                l(3) =   1
                l(4) =   1
                l(5) =   2
                l(6) =   2
     Q(r) pseudized with  6 coefficients,  rinner =    1.000   1.000   1.000
                                                       1.000   1.000

     PseudoPot. # 3 for Ta read from file:
     q-e/pseudo/ta_pbe_v1.uspp.F.UPF
     MD5 check sum: f8bbe9446314a3b8ea5d9f3e3836c939
     Pseudo is Ultrasoft + core correction, Zval = 13.0
     Generated by new atomic code, or converted to UPF format
     Using radial grid of  921 points,  7 beta functions with: 
                l(1) =   0
                l(2) =   0
                l(3) =   1
                l(4) =   1
                l(5) =   2
                l(6) =   2
                l(7) =   3
     Q(r) pseudized with  6 coefficients,  rinner =    1.300   1.300   1.300
                                                       1.300   1.300   1.300
                                                       1.300

     PseudoPot. # 4 for Zr read from file:
     q-e/pseudo/zr_pbe_v1.uspp.F.UPF
     MD5 check sum: 5db81b1e868ab7776c4564c113de050b
     Pseudo is Ultrasoft + core correction, Zval = 12.0
     Generated by new atomic code, or converted to UPF format
     Using radial grid of  887 points,  6 beta functions with: 
                l(1) =   0
                l(2) =   0
                l(3) =   1
                l(4) =   1
                l(5) =   2
                l(6) =   2
     Q(r) pseudized with  6 coefficients,  rinner =    1.200   1.200   1.200
                                                       1.200   1.200

     PseudoPot. # 5 for H  read from file:
     q-e/pseudo/h_pbe_v1.4.uspp.F.UPF
     MD5 check sum: 761ae9a214b05c3daf00ab9f6b793d6f
     Pseudo is Ultrasoft, Zval =  1.0
     Generated by new atomic code, or converted to UPF format
     Using radial grid of  615 points,  2 beta functions with: 
                l(1) =   0
                l(2) =   0
     Q(r) pseudized with  8 coefficients,  rinner =    0.700

     atomic species   valence    mass     pseudopotential
        Hf            12.00   178.49000     Hf( 1.00)
        Nb            13.00    92.90637     Nb( 1.00)
        Ta            13.00   180.94788     Ta( 1.00)
        Zr            12.00    91.22400     Zr( 1.00)
        H              1.00     2.01400     H ( 1.00)

     Starting magnetic structure 
     atomic species   magnetization
        Hf           0.000
        Nb           0.000
        Ta           0.000
        Zr           0.000
        H            0.000

     No symmetry found



   Cartesian axes

     site n.     atom                  positions (alat units)
         1           Hf  tau(   1) = (   0.0257126  -0.2380670   2.2314993  )
         2           Hf  tau(   2) = (   0.2958296   0.5692939   2.5037300  )
         3           Nb  tau(   3) = (   0.3217662   0.0406148   2.0418082  )
         4           Nb  tau(   4) = (   0.4937457   0.2582876   2.7527939  )
         5           Ta  tau(   5) = (   0.0212498  -0.2341460   2.8101201  )
         6           Ta  tau(   6) = (   0.5845723   0.2992196   2.2933701  )
         7           Zr  tau(   7) = (   0.2986909   0.5225072   1.9927540  )
         8           Zr  tau(   8) = (   0.7544410   0.0627153   2.9992503  )
         9           Hf  tau(   9) = (   0.5802524  -0.2154994   2.2600362  )
        10           Hf  tau(  10) = (  -0.1941074   0.5101935   2.5308539  )
        11           Nb  tau(  11) = (   0.7250384   0.4803520   1.9329121  )
        12           Nb  tau(  12) = (   0.0441887   0.2749999   2.2631228  )
        13           Ta  tau(  13) = (   0.2698528   0.0362638   2.5181471  )
        14           Ta  tau(  14) = (   0.7908960   1.0015695   2.5327994  )
        15           Zr  tau(  15) = (   0.5521811   0.7840991   1.7964073  )
        16           Zr  tau(  16) = (   0.0558847   0.2677700   2.8092407  )
        17           H   tau(  17) = (   1.4970061   1.1976048   1.4970061  )

     number of k points=     1  Gaussian smearing, width (Ry)=  0.0220
                       cart. coord. in units 2pi/alat
        k(    1) = (   0.0000000   0.0000000   0.0000000), wk =   1.0000000

     Dense  grid:   213975 G-vectors     FFT dimensions: (  45,  45, 216)

     Estimated max dynamical RAM per process >     170.15 MB

     Estimated total dynamical RAM >       1.99 GB

     Check: negative core charge=   -0.000004
     Generating pointlists ...
     new r_m :   0.1597 (alat units)  1.0080 (a.u.) for type    1
     new r_m :   0.1548 (alat units)  0.9769 (a.u.) for type    2
     new r_m :   0.1597 (alat units)  1.0080 (a.u.) for type    3
     new r_m :   0.1548 (alat units)  0.9769 (a.u.) for type    4
     new r_m :   0.2118 (alat units)  1.3369 (a.u.) for type    5

     Initial potential from superposition of free atoms

     starting charge     192.9760, renormalised to     201.0000

     negative rho (up, down):  3.317E-01 3.317E-01
     Starting wfcs are  209 randomized atomic wfcs

     total cpu time spent up to now is        7.9 secs

     Self-consistent Calculation

     iteration #  1     ecut=   120.00 Ry     beta= 0.70
     Davidson diagonalization with overlap
     ethr =  1.00E-02,  avg # of iterations =  6.0

     negative rho (up, down):  2.038E-01 2.036E-01

     total cpu time spent up to now is       25.5 secs

     total energy              =   -1899.66792791 Ry
     estimated scf accuracy    <     149.89063570 Ry

     total magnetization       =    -0.00 Bohr mag/cell
     absolute magnetization    =     0.06 Bohr mag/cell

     iteration #  2     ecut=   120.00 Ry     beta= 0.70
     Davidson diagonalization with overlap
     ethr =  1.00E-02,  avg # of iterations =  2.0

     negative rho (up, down):  1.868E-01 1.868E-01

     total cpu time spent up to now is       35.8 secs

     total energy              =   -1898.35017784 Ry
     estimated scf accuracy    <      41.77090068 Ry

     total magnetization       =     0.00 Bohr mag/cell
     absolute magnetization    =     0.03 Bohr mag/cell

     iteration #  3     ecut=   120.00 Ry     beta= 0.70
     Davidson diagonalization with overlap
     ethr =  1.00E-02,  avg # of iterations =  2.0

     negative rho (up, down):  1.725E-01 1.725E-01

     total cpu time spent up to now is       45.6 secs

     total energy              =   -1898.05757428 Ry
     estimated scf accuracy    <      12.52291174 Ry

     total magnetization       =    -0.00 Bohr mag/cell
     absolute magnetization    =     0.03 Bohr mag/cell

     iteration #  4     ecut=   120.00 Ry     beta= 0.70
     Davidson diagonalization with overlap
     ethr =  6.23E-03,  avg # of iterations =  2.0

     negative rho (up, down):  1.633E-01 1.633E-01

     total cpu time spent up to now is       54.9 secs

     total energy              =   -1898.08087178 Ry
     estimated scf accuracy    <       4.74646326 Ry

     total magnetization       =    -0.00 Bohr mag/cell
     absolute magnetization    =     0.03 Bohr mag/cell

     iteration #  5     ecut=   120.00 Ry     beta= 0.70
     Davidson diagonalization with overlap
     ethr =  2.36E-03,  avg # of iterations =  2.0

     negative rho (up, down):  1.736E-01 1.736E-01

     total cpu time spent up to now is       64.6 secs

     total energy              =   -1897.25208620 Ry
     estimated scf accuracy    <       3.36786787 Ry

     total magnetization       =    -0.00 Bohr mag/cell
     absolute magnetization    =     0.02 Bohr mag/cell

     iteration #  6     ecut=   120.00 Ry     beta= 0.70
     Davidson diagonalization with overlap
     ethr =  1.68E-03,  avg # of iterations =  6.0

     negative rho (up, down):  1.912E-01 1.909E-01

     total cpu time spent up to now is       74.5 secs

     total energy              =   -1897.13749247 Ry
     estimated scf accuracy    <       1.84714054 Ry

     total magnetization       =    -0.00 Bohr mag/cell
     absolute magnetization    =     0.01 Bohr mag/cell

     iteration #  7     ecut=   120.00 Ry     beta= 0.70
     Davidson diagonalization with overlap
     ethr =  9.19E-04,  avg # of iterations =  7.0

     negative rho (up, down):  3.383E-01 3.381E-01

     total cpu time spent up to now is       84.5 secs

     total energy              =   -1896.99472348 Ry
     estimated scf accuracy    <       1.17516779 Ry

     total magnetization       =    -0.00 Bohr mag/cell
     absolute magnetization    =     0.01 Bohr mag/cell

     iteration #  8     ecut=   120.00 Ry     beta= 0.70
     Davidson diagonalization with overlap
     ethr =  5.85E-04,  avg # of iterations =  2.0

     negative rho (up, down):  3.550E-01 3.550E-01

     total cpu time spent up to now is       93.9 secs

     total energy              =   -1896.91847992 Ry
     estimated scf accuracy    <       0.84868474 Ry

     total magnetization       =    -0.00 Bohr mag/cell
     absolute magnetization    =     0.01 Bohr mag/cell

     iteration #  9     ecut=   120.00 Ry     beta= 0.70
     Davidson diagonalization with overlap
     ethr =  4.22E-04,  avg # of iterations =  3.0

     negative rho (up, down):  3.174E-01 3.174E-01

     total cpu time spent up to now is      103.2 secs

     total energy              =   -1896.78012197 Ry
     estimated scf accuracy    <       0.62165976 Ry

     total magnetization       =     0.00 Bohr mag/cell
     absolute magnetization    =     0.00 Bohr mag/cell

     iteration # 10     ecut=   120.00 Ry     beta= 0.70
     Davidson diagonalization with overlap
     ethr =  3.09E-04,  avg # of iterations =  2.0

     negative rho (up, down):  3.885E-01 3.885E-01

     total cpu time spent up to now is      112.6 secs

     total energy              =   -1896.73710723 Ry
     estimated scf accuracy    <       0.59227587 Ry

     total magnetization       =     0.00 Bohr mag/cell
     absolute magnetization    =     0.00 Bohr mag/cell

     iteration # 11     ecut=   120.00 Ry     beta= 0.70
     Davidson diagonalization with overlap
     ethr =  2.95E-04,  avg # of iterations =  7.0

     negative rho (up, down):  3.050E-01 3.049E-01

     total cpu time spent up to now is      122.7 secs

     total energy              =   -1896.63277833 Ry
     estimated scf accuracy    <       0.37527116 Ry

     total magnetization       =     0.00 Bohr mag/cell
     absolute magnetization    =     0.00 Bohr mag/cell

     iteration # 12     ecut=   120.00 Ry     beta= 0.70
     Davidson diagonalization with overlap
     ethr =  1.87E-04,  avg # of iterations =  3.0

     negative rho (up, down):  3.623E-01 3.622E-01

     total cpu time spent up to now is      132.1 secs

     total energy              =   -1896.57061953 Ry
     estimated scf accuracy    <       0.47313185 Ry

     total magnetization       =    -0.00 Bohr mag/cell
     absolute magnetization    =     0.00 Bohr mag/cell

     iteration # 13     ecut=   120.00 Ry     beta= 0.70
     Davidson diagonalization with overlap
     ethr =  1.87E-04,  avg # of iterations =  8.0

     negative rho (up, down):  3.367E-01 3.367E-01

     total cpu time spent up to now is      142.0 secs

     total energy              =   -1896.45771423 Ry
     estimated scf accuracy    <       0.26495903 Ry

     total magnetization       =    -0.00 Bohr mag/cell
     absolute magnetization    =     0.00 Bohr mag/cell

     iteration # 14     ecut=   120.00 Ry     beta= 0.70
     Davidson diagonalization with overlap
     ethr =  1.32E-04,  avg # of iterations =  6.0

     negative rho (up, down):  2.953E-01 2.953E-01

     total cpu time spent up to now is      152.3 secs

     total energy              =   -1896.41778230 Ry
     estimated scf accuracy    <       0.09120500 Ry

     total magnetization       =     0.00 Bohr mag/cell
     absolute magnetization    =     0.00 Bohr mag/cell

     iteration # 15     ecut=   120.00 Ry     beta= 0.70
     Davidson diagonalization with overlap
     ethr =  4.54E-05,  avg # of iterations =  6.0

     negative rho (up, down):  2.273E-01 2.273E-01

     total cpu time spent up to now is      163.0 secs

     total energy              =   -1896.40827476 Ry
     estimated scf accuracy    <       0.03645789 Ry

     total magnetization       =     0.00 Bohr mag/cell
     absolute magnetization    =     0.00 Bohr mag/cell

     iteration # 16     ecut=   120.00 Ry     beta= 0.70
     Davidson diagonalization with overlap
     ethr =  1.81E-05,  avg # of iterations =  3.0

     negative rho (up, down):  2.008E-01 2.008E-01

     total cpu time spent up to now is      176.0 secs

     total energy              =   -1896.41161217 Ry
     estimated scf accuracy    <       0.00894168 Ry

     total magnetization       =     0.00 Bohr mag/cell
     absolute magnetization    =     0.00 Bohr mag/cell

     iteration # 17     ecut=   120.00 Ry     beta= 0.70
     Davidson diagonalization with overlap
     ethr =  4.45E-06,  avg # of iterations =  6.0

     negative rho (up, down):  1.736E-01 1.736E-01

     total cpu time spent up to now is      188.9 secs

     total energy              =   -1896.41230215 Ry
     estimated scf accuracy    <       0.00250234 Ry

     total magnetization       =     0.00 Bohr mag/cell
     absolute magnetization    =     0.00 Bohr mag/cell

     iteration # 18     ecut=   120.00 Ry     beta= 0.70
     Davidson diagonalization with overlap
     ethr =  1.24E-06,  avg # of iterations =  9.0

     negative rho (up, down):  1.705E-01 1.705E-01

     total cpu time spent up to now is      203.6 secs

     total energy              =   -1896.41259035 Ry
     estimated scf accuracy    <       0.00134028 Ry

     total magnetization       =    -0.00 Bohr mag/cell
     absolute magnetization    =     0.00 Bohr mag/cell

     iteration # 19     ecut=   120.00 Ry     beta= 0.70
     Davidson diagonalization with overlap
     ethr =  6.67E-07,  avg # of iterations =  5.0

     negative rho (up, down):  1.673E-01 1.673E-01

     total cpu time spent up to now is      215.6 secs

     total energy              =   -1896.41250949 Ry
     estimated scf accuracy    <       0.00031839 Ry

     total magnetization       =    -0.00 Bohr mag/cell
     absolute magnetization    =     0.00 Bohr mag/cell

     iteration # 20     ecut=   120.00 Ry     beta= 0.70
     Davidson diagonalization with overlap
     ethr =  1.58E-07,  avg # of iterations =  4.0

     negative rho (up, down):  1.662E-01 1.662E-01

     total cpu time spent up to now is      225.4 secs

     total energy              =   -1896.41238729 Ry
     estimated scf accuracy    <       0.00021856 Ry

     total magnetization       =    -0.00 Bohr mag/cell
     absolute magnetization    =     0.00 Bohr mag/cell

     iteration # 21     ecut=   120.00 Ry     beta= 0.70
     Davidson diagonalization with overlap
     ethr =  1.09E-07,  avg # of iterations =  2.0

     negative rho (up, down):  1.649E-01 1.649E-01

     total cpu time spent up to now is      234.7 secs

     total energy              =   -1896.41240861 Ry
     estimated scf accuracy    <       0.00015832 Ry

     total magnetization       =    -0.00 Bohr mag/cell
     absolute magnetization    =     0.00 Bohr mag/cell

     iteration # 22     ecut=   120.00 Ry     beta= 0.70
     Davidson diagonalization with overlap
     ethr =  7.88E-08,  avg # of iterations =  6.0

     negative rho (up, down):  1.631E-01 1.631E-01

     total cpu time spent up to now is      244.8 secs

     total energy              =   -1896.41238495 Ry
     estimated scf accuracy    <       0.00011066 Ry

     total magnetization       =    -0.00 Bohr mag/cell
     absolute magnetization    =     0.00 Bohr mag/cell

     iteration # 23     ecut=   120.00 Ry     beta= 0.70
     Davidson diagonalization with overlap
     ethr =  5.51E-08,  avg # of iterations =  7.0

     negative rho (up, down):  1.635E-01 1.635E-01

     total cpu time spent up to now is      255.0 secs

     total energy              =   -1896.41248799 Ry
     estimated scf accuracy    <       0.00005521 Ry

     total magnetization       =    -0.00 Bohr mag/cell
     absolute magnetization    =     0.00 Bohr mag/cell

     iteration # 24     ecut=   120.00 Ry     beta= 0.70
     Davidson diagonalization with overlap
     ethr =  2.75E-08,  avg # of iterations =  3.0

     negative rho (up, down):  1.635E-01 1.635E-01

     total cpu time spent up to now is      264.6 secs

     total energy              =   -1896.41251348 Ry
     estimated scf accuracy    <       0.00003634 Ry

     total magnetization       =     0.00 Bohr mag/cell
     absolute magnetization    =     0.00 Bohr mag/cell

     iteration # 25     ecut=   120.00 Ry     beta= 0.70
     Davidson diagonalization with overlap
     ethr =  1.81E-08,  avg # of iterations =  2.0

     negative rho (up, down):  1.623E-01 1.623E-01

     total cpu time spent up to now is      274.6 secs

     total energy              =   -1896.41248658 Ry
     estimated scf accuracy    <       0.00002232 Ry

     total magnetization       =     0.00 Bohr mag/cell
     absolute magnetization    =     0.00 Bohr mag/cell

     iteration # 26     ecut=   120.00 Ry     beta= 0.70
     Davidson diagonalization with overlap
     ethr =  1.11E-08,  avg # of iterations =  2.0

     negative rho (up, down):  1.623E-01 1.623E-01

     total cpu time spent up to now is      284.1 secs

     total energy              =   -1896.41248502 Ry
     estimated scf accuracy    <       0.00000701 Ry

     total magnetization       =     0.00 Bohr mag/cell
     absolute magnetization    =     0.00 Bohr mag/cell

     iteration # 27     ecut=   120.00 Ry     beta= 0.70
     Davidson diagonalization with overlap
     ethr =  3.49E-09,  avg # of iterations =  2.0

     negative rho (up, down):  1.622E-01 1.622E-01

     total cpu time spent up to now is      293.3 secs

     total energy              =   -1896.41249523 Ry
     estimated scf accuracy    <       0.00000365 Ry

     total magnetization       =     0.00 Bohr mag/cell
     absolute magnetization    =     0.00 Bohr mag/cell

     iteration # 28     ecut=   120.00 Ry     beta= 0.70
     Davidson diagonalization with overlap
     ethr =  1.81E-09,  avg # of iterations =  2.0

     negative rho (up, down):  1.624E-01 1.624E-01

     Magnetic moment per site  (integrated on atomic sphere of radius R)
     atom   1 (R=0.160)  charge=  4.5294  magn= -0.0000
     atom   2 (R=0.160)  charge=  4.5752  magn= -0.0000
     atom   3 (R=0.155)  charge=  4.3344  magn= -0.0000
     atom   4 (R=0.155)  charge=  4.4452  magn= -0.0000
     atom   5 (R=0.160)  charge=  4.6785  magn= -0.0000
     atom   6 (R=0.160)  charge=  5.4000  magn= -0.0000
     atom   7 (R=0.155)  charge=  3.6596  magn= -0.0000
     atom   8 (R=0.155)  charge=  3.3141  magn= -0.0000
     atom   9 (R=0.160)  charge=  4.7336  magn=  0.0000
     atom  10 (R=0.160)  charge=  4.7479  magn= -0.0000
     atom  11 (R=0.155)  charge=  4.2647  magn=  0.0000
     atom  12 (R=0.155)  charge=  4.6235  magn= -0.0000
     atom  13 (R=0.160)  charge=  5.3972  magn= -0.0000
     atom  14 (R=0.160)  charge=  5.3504  magn= -0.0000
     atom  15 (R=0.155)  charge=  3.4477  magn=  0.0000
     atom  16 (R=0.155)  charge=  3.6900  magn= -0.0000
     atom  17 (R=0.212)  charge=  1.0536  magn=  0.0000

     total cpu time spent up to now is      303.0 secs

     End of self-consistent calculation

 ------ SPIN UP ------------


          k = 0.0000 0.0000 0.0000 ( 26649 PWs)   bands (ev):

   -88.6819 -77.2026 -74.6701 -73.7983 -71.3122 -66.5980 -63.4869 -60.7552
   -59.5412 -57.3397 -56.9364 -56.3103 -54.2676 -51.8637 -49.0531 -46.3938
   -44.8233 -43.9782 -42.3945 -40.2620 -39.0978 -37.1223 -35.1016 -33.6400
   -31.9857 -30.9661 -30.0256 -28.5960 -27.8330 -26.6808 -26.4888 -24.7061
   -23.7370 -22.5163 -21.7342 -20.8194 -18.8652 -18.7574 -17.4559 -16.7505
   -15.7403 -15.5521 -14.2677 -13.8298 -12.7116 -11.3089 -10.9809 -10.4525
   -10.0498  -8.4199  -7.5438  -7.1865  -6.9769  -6.0567  -5.0778  -4.3867
    -4.1332  -2.7913  -2.2437  -1.5752  -1.1508   0.4611   0.8445   1.7551
     2.4347   2.9290   3.4511   4.9647   5.2702   6.5727   7.1768   7.8992
     8.5832   9.4282   9.8712  10.4423  10.8908  11.1116  12.5066  12.9242
    13.8062  15.0298  15.8143  16.1449  17.9207  18.8886  19.6409  20.4750
    20.8635  21.2971  21.9503  22.4534  23.2895  23.9998  24.1897  24.3103
    25.1833  25.3713  26.0920  26.4206  27.5910  27.8738  27.9750  28.4459
    29.2933  29.6269  30.5588  30.7134  31.0059  31.1592  31.6811  31.8919
    32.3775  33.0066  33.7970  34.0685  34.5720  35.0067  35.2090  35.7409
    36.0891

 ------ SPIN DOWN ----------


          k = 0.0000 0.0000 0.0000 ( 26649 PWs)   bands (ev):

   -88.6819 -77.2026 -74.6701 -73.7983 -71.3122 -66.5980 -63.4869 -60.7552
   -59.5412 -57.3397 -56.9364 -56.3103 -54.2676 -51.8637 -49.0531 -46.3938
   -44.8233 -43.9782 -42.3945 -40.2620 -39.0978 -37.1223 -35.1016 -33.6400
   -31.9857 -30.9661 -30.0256 -28.5960 -27.8330 -26.6808 -26.4888 -24.7061
   -23.7370 -22.5163 -21.7342 -20.8194 -18.8652 -18.7574 -17.4559 -16.7505
   -15.7403 -15.5521 -14.2677 -13.8298 -12.7116 -11.3089 -10.9809 -10.4525
   -10.0498  -8.4199  -7.5438  -7.1865  -6.9769  -6.0567  -5.0778  -4.3867
    -4.1332  -2.7913  -2.2437  -1.5752  -1.1508   0.4611   0.8445   1.7551
     2.4347   2.9290   3.4511   4.9647   5.2702   6.5727   7.1768   7.8992
     8.5832   9.4282   9.8712  10.4423  10.8908  11.1116  12.5066  12.9242
    13.8062  15.0298  15.8143  16.1449  17.9207  18.8886  19.6409  20.4750
    20.8635  21.2971  21.9503  22.4534  23.2895  23.9998  24.1897  24.3103
    25.1833  25.3713  26.0920  26.4206  27.5910  27.8738  27.9750  28.4459
    29.2933  29.6269  30.5588  30.7134  31.0059  31.1592  31.6811  31.8919
    32.3775  33.0066  33.7970  34.0685  34.5720  35.0067  35.2090  35.7409
    36.0891

     the Fermi energy is    27.5468 ev

!    total energy              =   -1896.41250391 Ry
     estimated scf accuracy    <       0.00000080 Ry
     smearing contrib. (-TS)   =      -0.01751052 Ry
     internal energy E=F+TS    =   -1896.39499340 Ry

     total magnetization       =    -0.00 Bohr mag/cell
     absolute magnetization    =     0.00 Bohr mag/cell

     convergence has been achieved in  28 iterations

     negative rho (up, down):  1.624E-01 1.624E-01

     Forces acting on atoms (cartesian axes, Ry/au):

     atom    1 type  1   force =    -1.68770632    2.44537288  -11.29067373
     atom    2 type  1   force =     1.64496187   -0.49484314    8.54542303
     atom    3 type  2   force =    -3.46931714    3.27492383  -12.26615210
     atom    4 type  2   force =     1.19315710    6.86044168   14.76815429
     atom    5 type  3   force =     5.11361299   -4.20771515   16.20744984
     atom    6 type  3   force =    -3.46741549   -4.91270402  -10.88500716
     atom    7 type  4   force =    -6.56278791   -3.55508780   -9.54601082
     atom    8 type  4   force =    -3.78154754   -2.42014660   14.29285885
     atom    9 type  1   force =    -0.44635584    1.70251325   -5.70806057
     atom   10 type  1   force =    -0.22364541    3.31000872   10.93763932
     atom   11 type  2   force =    10.66907993   -8.95600053   -8.44850618
     atom   12 type  2   force =    -2.12030539    0.25133437  -10.26910242
     atom   13 type  3   force =     1.93669647   -6.88959196    2.82974860
     atom   14 type  3   force =    -1.78638364   -0.37129189    4.85887381
     atom   15 type  4   force =     1.15076637    9.05823713  -14.90819469
     atom   16 type  4   force =     1.89154322    4.84249409   11.03984481
     atom   17 type  5   force =    -0.05435327    0.06205516   -0.15828489
     The non-local contrib.  to forces
     atom    1 type  1   force =     1.77364176   -0.89927756    1.31037844
     atom    2 type  1   force =    -0.39540353   -1.43773609   -0.82688944
     atom    3 type  2   force =    -0.31447703    0.38719975   -1.87857232
     atom    4 type  2   force =     0.43639145    0.66882132    2.52973436
     atom    5 type  3   force =    -1.88755403    1.76788535   -4.12422716
     atom    6 type  3   force =     0.98323514    1.81026570    0.76656680
     atom    7 type  4   force =    -1.51934464   -0.20419822   -2.07949832
     atom    8 type  4   force =    -0.52378891   -0.42112002    2.45305695
     atom    9 type  1   force =    -0.91362416    0.56900844    0.02781144
     atom   10 type  1   force =    -0.20003062   -2.25039316   -2.11543267
     atom   11 type  2   force =     1.29137493   -0.68159171   -1.67911009
     atom   12 type  2   force =    -0.30881626    0.16177299   -1.00369294
     atom   13 type  3   force =    -0.19618831    3.25150212    0.76792546
     atom   14 type  3   force =    -0.21403921    0.38189007   -0.54252728
     atom   15 type  4   force =     0.79087837    1.16323287   -2.38809081
     atom   16 type  4   force =     0.57146439    0.59833024    2.10043718
     atom   17 type  5   force =    -0.00425718   -0.00315883    0.06031221
     The ionic contribution  to forces
     atom    1 type  1   force =   -10.66675780   10.79128113 -181.10173659
     atom    2 type  1   force =     9.26553664   13.66355243  139.18899239
     atom    3 type  2   force =   -18.26774304    9.66487371 -381.00461442
     atom    4 type  2   force =    -4.05350171   24.13971834  397.08165268
     atom    5 type  3   force =    17.86057527  -21.69940614  435.98181554
     atom    6 type  3   force =     1.43695786  -13.05264925 -121.30879814
     atom    7 type  4   force =   -33.89117065  -12.24671736 -378.69870189
     atom    8 type  4   force =   -18.94716947  -14.80637996  494.09887115
     atom    9 type  1   force =     8.35717236    8.74724533 -124.45176951
     atom   10 type  1   force =    -6.39865824   19.21801906  163.74583935
     atom   11 type  2   force =    44.57897858  -33.40289398 -447.56771338
     atom   12 type  2   force =   -13.38179881   -5.37769438 -167.06844280
     atom   13 type  3   force =     8.88804225  -26.66465432  145.82814270
     atom   14 type  3   force =    -9.67170570  -15.82951562  151.82088891
     atom   15 type  4   force =    12.76690194   34.57123576 -487.65593985
     atom   16 type  4   force =    12.26765848   22.15213262  400.13999605
     atom   17 type  5   force =    -0.14331797    0.13185264  -39.02848218
     The local contribution  to forces
     atom    1 type  1   force =     7.06190385   -7.29812519  168.02552773
     atom    2 type  1   force =    -7.11427090  -12.63059425 -129.47418445
     atom    3 type  2   force =    15.09711528   -6.75276422  370.51466840
     atom    4 type  2   force =     4.80224614  -17.91805729 -384.72764375
     atom    5 type  3   force =   -10.67250128   15.57022551 -415.08789862
     atom    6 type  3   force =    -5.95728112    6.11838323  109.38370098
     atom    7 type  4   force =    28.74776350    8.86633163  371.12055544
     atom    8 type  4   force =    15.65846745   12.77442898 -482.10554050
     atom    9 type  1   force =    -7.85413246   -7.47167689  118.60913291
     atom   10 type  1   force =     6.28793864  -13.49579805 -150.25359382
     atom   11 type  2   force =   -35.10361667   25.03143727  440.71597811
     atom   12 type  2   force =    11.55182070    5.46633176  157.75640839
     atom   13 type  3   force =    -6.68109511   16.31107067 -143.70654872
     atom   14 type  3   force =     7.99432261   15.04609245 -146.31680993
     atom   15 type  4   force =   -12.37985386  -26.56079572  474.96671582
     atom   16 type  4   force =   -10.90173371  -17.86165575 -391.08775580
     atom   17 type  5   force =     0.09320903   -0.06662340   38.80999143
     The core correction contribution to forces
     atom    1 type  1   force =     0.14355391   -0.14844018    0.47658729
     atom    2 type  1   force =    -0.11089373   -0.09021922   -0.34242481
     atom    3 type  2   force =     0.01578437   -0.02428607    0.10502065
     atom    4 type  2   force =     0.00811836   -0.03006889   -0.11656267
     atom    5 type  3   force =    -0.18690029    0.15355314   -0.56302546
     atom    6 type  3   force =     0.06970336    0.21116928    0.27505003
     atom    7 type  4   force =     0.09997079    0.02947660    0.11394504
     atom    8 type  4   force =     0.03075925    0.03292874   -0.15444241
     atom    9 type  1   force =    -0.03583252   -0.14197378    0.10809796
     atom   10 type  1   force =     0.08703422   -0.16211195   -0.43920591
     atom   11 type  2   force =    -0.09767175    0.09693876    0.08487688
     atom   12 type  2   force =     0.01836786    0.00085432    0.04841101
     atom   13 type  3   force =    -0.07399420    0.21270755   -0.05970507
     atom   14 type  3   force =     0.10497357    0.03060947   -0.10261403
     atom   15 type  4   force =    -0.02715507   -0.11547166    0.17088985
     atom   16 type  4   force =    -0.04584844   -0.04623279   -0.11374225
     atom   17 type  5   force =     0.00000000    0.00000000    0.00000000
     The Hubbard contrib.    to forces
     atom    1 type  1   force =     0.00000000    0.00000000    0.00000000
     atom    2 type  1   force =     0.00000000    0.00000000    0.00000000
     atom    3 type  2   force =     0.00000000    0.00000000    0.00000000
     atom    4 type  2   force =     0.00000000    0.00000000    0.00000000
     atom    5 type  3   force =     0.00000000    0.00000000    0.00000000
     atom    6 type  3   force =     0.00000000    0.00000000    0.00000000
     atom    7 type  4   force =     0.00000000    0.00000000    0.00000000
     atom    8 type  4   force =     0.00000000    0.00000000    0.00000000
     atom    9 type  1   force =     0.00000000    0.00000000    0.00000000
     atom   10 type  1   force =     0.00000000    0.00000000    0.00000000
     atom   11 type  2   force =     0.00000000    0.00000000    0.00000000
     atom   12 type  2   force =     0.00000000    0.00000000    0.00000000
     atom   13 type  3   force =     0.00000000    0.00000000    0.00000000
     atom   14 type  3   force =     0.00000000    0.00000000    0.00000000
     atom   15 type  4   force =     0.00000000    0.00000000    0.00000000
     atom   16 type  4   force =     0.00000000    0.00000000    0.00000000
     atom   17 type  5   force =     0.00000000    0.00000000    0.00000000
     The SCF correction term to forces
     atom    1 type  1   force =    -0.00000000   -0.00000000   -0.00000000
     atom    2 type  1   force =    -0.00000000    0.00000000   -0.00000000
     atom    3 type  2   force =    -0.00000000   -0.00000000   -0.00000000
     atom    4 type  2   force =    -0.00000000    0.00000000    0.00000000
     atom    5 type  3   force =    -0.00000000    0.00000000    0.00000000
     atom    6 type  3   force =    -0.00000000    0.00000000   -0.00000000
     atom    7 type  4   force =    -0.00000000    0.00000000   -0.00000000
     atom    8 type  4   force =     0.00000000    0.00000000    0.00000000
     atom    9 type  1   force =     0.00000000   -0.00000000   -0.00000000
     atom   10 type  1   force =     0.00000000    0.00000000    0.00000000
     atom   11 type  2   force =    -0.00000000    0.00000000   -0.00000000
     atom   12 type  2   force =     0.00000000    0.00000000   -0.00000000
     atom   13 type  3   force =    -0.00000000   -0.00000000   -0.00000000
     atom   14 type  3   force =     0.00000000   -0.00000000   -0.00000000
     atom   15 type  4   force =    -0.00000000    0.00000000   -0.00000000
     atom   16 type  4   force =    -0.00000000   -0.00000000    0.00000000
     atom   17 type  5   force =    -0.00000223    0.00000022   -0.00004830

     Total force =     0.178492     Total SCF correction =     0.000048

     Molecular Dynamics Calculation

     Starting temperature  =   300.00 K

     temperature is set once at start

     mass Hf               =   178.49
     mass Nb               =    92.91
     mass Ta               =   180.95
     mass Zr               =    91.22
     mass H                =     2.01
     Time step             =     2.00 a.u.,  0.0968 femto-seconds

     Entering Dynamics:    iteration =     1
                           time      =   0.0001 pico-seconds


ATOMIC_POSITIONS (angstrom)
Hf            0.0858800679       -0.7951436715        7.4532072815    0   0   0
Hf            0.9880709739        1.9014415882        8.3624579711    0   0   0
Nb            1.0746989219        0.1356535858        6.8196389631    0   0   0
Nb            1.6491103981        0.8626804318        9.1943310858    0   0   0
Ta            0.0709744107       -0.7820475991        9.3858007313    0   0   0
Ta            1.9524714937        0.9993933557        7.6598559185    0   0   0
Zr            0.9976274959        1.7451739843        6.6557981874    0   0   0
Zr            2.5198328619        0.2094691683       10.0174953943    0   0   0
Hf            1.9380429646       -0.7197681019        7.5485206618    0   0   0
Hf           -0.6483186390        1.7040463621        8.4530515930    0   0   0
Nb            2.4216282335        1.6043757567        6.4559262597    0   0   0
Nb            0.1475903912        0.9184995235        7.5588298057    0   0   0
Ta            0.9013084356        0.1211212120        8.4106110025    0   0   0
Ta            2.6415926642        3.3452418198        8.4595496119    0   0   0
Zr            1.8442847182        2.6188909264        6.0000000000    0   0   0
Zr            0.1866550429        0.8943516698        9.3828635984    0   0   0
H             5.0013402405        4.0012451531        4.9995420127


     kinetic energy (Ekin) =           0.00285013 Ry
     temperature           =         300.00000000 K 
     Ekin + Etot (const)   =       -1896.40965378 Ry

     File ./pwscf.msd.dat deleted, as requested

     Writing config-only to output data dir ./pwscf.save/
     NEW-OLD atomic charge density approx. for the potential

     Check: negative core charge=   -0.000004

     negative rho (up, down):  1.624E-01 1.624E-01
     Generating pointlists ...

     total cpu time spent up to now is      309.5 secs

     Self-consistent Calculation

     iteration #  1     ecut=   120.00 Ry     beta= 0.70
     Davidson diagonalization with overlap
     ethr =  1.00E-06,  avg # of iterations =  2.0

     Threshold (ethr) on eigenvalues was too large:
     Diagonalizing with lowered threshold

     Davidson diagonalization with overlap
     ethr =  1.08E-08,  avg # of iterations =  1.0

     negative rho (up, down):  1.624E-01 1.624E-01

     total cpu time spent up to now is      326.3 secs

     total energy              =   -1896.41264889 Ry
     estimated scf accuracy    <       0.00002268 Ry

     total magnetization       =    -0.00 Bohr mag/cell
     absolute magnetization    =     0.00 Bohr mag/cell

     iteration #  2     ecut=   120.00 Ry     beta= 0.70
     Davidson diagonalization with overlap
     ethr =  1.13E-08,  avg # of iterations =  1.0

     negative rho (up, down):  1.624E-01 1.624E-01

     total cpu time spent up to now is      335.0 secs

     total energy              =   -1896.41264925 Ry
     estimated scf accuracy    <       0.00000310 Ry

     total magnetization       =    -0.00 Bohr mag/cell
     absolute magnetization    =     0.00 Bohr mag/cell

     iteration #  3     ecut=   120.00 Ry     beta= 0.70
     Davidson diagonalization with overlap
     ethr =  1.54E-09,  avg # of iterations =  2.0

     negative rho (up, down):  1.624E-01 1.624E-01

     Magnetic moment per site  (integrated on atomic sphere of radius R)
     atom   1 (R=0.160)  charge=  4.5294  magn= -0.0000
     atom   2 (R=0.160)  charge=  4.5752  magn= -0.0000
     atom   3 (R=0.155)  charge=  4.3344  magn= -0.0000
     atom   4 (R=0.155)  charge=  4.4451  magn= -0.0000
     atom   5 (R=0.160)  charge=  4.6785  magn= -0.0000
     atom   6 (R=0.160)  charge=  5.3999  magn= -0.0000
     atom   7 (R=0.155)  charge=  3.6596  magn=  0.0000
     atom   8 (R=0.155)  charge=  3.3141  magn=  0.0000
     atom   9 (R=0.160)  charge=  4.7336  magn=  0.0000
     atom  10 (R=0.160)  charge=  4.7478  magn= -0.0000
     atom  11 (R=0.155)  charge=  4.2647  magn= -0.0000
     atom  12 (R=0.155)  charge=  4.6235  magn=  0.0000
     atom  13 (R=0.160)  charge=  5.3972  magn=  0.0000
     atom  14 (R=0.160)  charge=  5.3503  magn= -0.0000
     atom  15 (R=0.155)  charge=  3.4477  magn= -0.0000
     atom  16 (R=0.155)  charge=  3.6900  magn= -0.0000
     atom  17 (R=0.212)  charge=  1.0532  magn=  0.0000

     total cpu time spent up to now is      344.4 secs

     End of self-consistent calculation

 ------ SPIN UP ------------


          k = 0.0000 0.0000 0.0000 ( 26649 PWs)   bands (ev):

   -88.6760 -77.1967 -74.6643 -73.7924 -71.3065 -66.5922 -63.4812 -60.7495
   -59.5354 -57.3339 -56.9306 -56.3045 -54.2618 -51.8580 -49.0474 -46.3881
   -44.8177 -43.9724 -42.3888 -40.2563 -39.0921 -37.1167 -35.0958 -33.6343
   -31.9801 -30.9605 -30.0200 -28.5901 -27.8272 -26.6751 -26.4831 -24.7006
   -23.7313 -22.5107 -21.7285 -20.8137 -18.8597 -18.7516 -17.4503 -16.7449
   -15.7346 -15.5464 -14.2619 -13.8242 -12.7062 -11.3033 -10.9752 -10.4468
   -10.0442  -8.4143  -7.5383  -7.1809  -6.9714  -6.0509  -5.0720  -4.3811
    -4.1275  -2.7856  -2.2381  -1.5696  -1.1452   0.4666   0.8501   1.7608
     2.4404   2.9346   3.4568   4.9705   5.2756   6.5784   7.1824   7.9048
     8.5888   9.4338   9.8768  10.4480  10.8966  11.1172  12.5121  12.9298
    13.8117  15.0350  15.8197  16.1508  17.9262  18.8940  19.6461  20.4814
    20.8680  21.3009  21.9559  22.4587  23.2948  24.0051  24.1954  24.3156
    25.1892  25.3772  26.0969  26.4251  27.5964  27.8791  27.9805  28.4495
    29.2974  29.6316  30.5490  30.7177  31.0109  31.1592  31.6872  31.8929
    32.3920  32.9970  33.8020  34.0714  34.5770  35.0122  35.2139  35.7408
    36.0928

 ------ SPIN DOWN ----------


          k = 0.0000 0.0000 0.0000 ( 26649 PWs)   bands (ev):

   -88.6760 -77.1967 -74.6643 -73.7924 -71.3065 -66.5922 -63.4812 -60.7495
   -59.5354 -57.3339 -56.9306 -56.3045 -54.2618 -51.8580 -49.0474 -46.3881
   -44.8177 -43.9724 -42.3888 -40.2563 -39.0921 -37.1167 -35.0958 -33.6343
   -31.9801 -30.9605 -30.0200 -28.5901 -27.8272 -26.6751 -26.4831 -24.7006
   -23.7313 -22.5107 -21.7285 -20.8137 -18.8597 -18.7516 -17.4503 -16.7449
   -15.7346 -15.5464 -14.2619 -13.8242 -12.7062 -11.3033 -10.9752 -10.4468
   -10.0442  -8.4143  -7.5383  -7.1809  -6.9714  -6.0509  -5.0720  -4.3811
    -4.1275  -2.7856  -2.2381  -1.5696  -1.1452   0.4666   0.8501   1.7608
     2.4404   2.9346   3.4568   4.9705   5.2756   6.5784   7.1824   7.9048
     8.5888   9.4338   9.8768  10.4480  10.8966  11.1172  12.5121  12.9298
    13.8117  15.0350  15.8197  16.1508  17.9262  18.8940  19.6461  20.4814
    20.8680  21.3009  21.9559  22.4587  23.2948  24.0051  24.1954  24.3156
    25.1892  25.3772  26.0969  26.4251  27.5964  27.8791  27.9805  28.4495
    29.2974  29.6316  30.5490  30.7177  31.0109  31.1592  31.6872  31.8929
    32.3920  32.9970  33.8020  34.0714  34.5770  35.0122  35.2139  35.7408
    36.0928

     the Fermi energy is    27.5522 ev

!    total energy              =   -1896.41264855 Ry
     estimated scf accuracy    <       0.00000092 Ry
     smearing contrib. (-TS)   =      -0.01751161 Ry
     internal energy E=F+TS    =   -1896.39513694 Ry

     total magnetization       =    -0.00 Bohr mag/cell
     absolute magnetization    =     0.00 Bohr mag/cell

     convergence has been achieved in   3 iterations

     negative rho (up, down):  1.624E-01 1.624E-01

     Forces acting on atoms (cartesian axes, Ry/au):

     atom    1 type  1   force =    -1.68776152    2.44529192  -11.29137702
     atom    2 type  1   force =     1.64482926   -0.49454591    8.54510725
     atom    3 type  2   force =    -3.46898764    3.27467964  -12.26483845
     atom    4 type  2   force =     1.19314787    6.85913159   14.76707985
     atom    5 type  3   force =     5.11355457   -4.20752926   16.20746887
     atom    6 type  3   force =    -3.46726839   -4.91248282  -10.88462725
     atom    7 type  4   force =    -6.56249708   -3.55470621   -9.54602239
     atom    8 type  4   force =    -3.78104744   -2.41930212   14.29137539
     atom    9 type  1   force =    -0.44619425    1.70249932   -5.70842995
     atom   10 type  1   force =    -0.22386468    3.31000940   10.93709994
     atom   11 type  2   force =    10.66834207   -8.95538610   -8.44697734
     atom   12 type  2   force =    -2.11960251    0.25155247  -10.26776096
     atom   13 type  3   force =     1.93654449   -6.88966305    2.82969095
     atom   14 type  3   force =    -1.78648947   -0.37136776    4.85902749
     atom   15 type  4   force =     1.15048631    9.05857907  -14.90861316
     atom   16 type  4   force =     1.89111875    4.84171192   11.03970454
     atom   17 type  5   force =    -0.05431034    0.06152790   -0.15790775
     The non-local contrib.  to forces
     atom    1 type  1   force =     1.77348723   -0.89938538    1.31008439
     atom    2 type  1   force =    -0.39549505   -1.43746246   -0.82720368
     atom    3 type  2   force =    -0.31408080    0.38716650   -1.87752153
     atom    4 type  2   force =     0.43629624    0.66737122    2.52843381
     atom    5 type  3   force =    -1.88760188    1.76798643   -4.12447088
     atom    6 type  3   force =     0.98349417    1.81043006    0.76674258
     atom    7 type  4   force =    -1.51894721   -0.20393924   -2.07971545
     atom    8 type  4   force =    -0.52328804   -0.42038379    2.45134914
     atom    9 type  1   force =    -0.91330234    0.56893054    0.02781775
     atom   10 type  1   force =    -0.20019413   -2.25039389   -2.11596998
     atom   11 type  2   force =     1.29076502   -0.68090352   -1.67780984
     atom   12 type  2   force =    -0.30819157    0.16199897   -1.00242934
     atom   13 type  3   force =    -0.19633463    3.25139312    0.76769676
     atom   14 type  3   force =    -0.21408390    0.38172231   -0.54271582
     atom   15 type  4   force =     0.79084726    1.16293962   -2.38814473
     atom   16 type  4   force =     0.57089227    0.59757788    2.09994185
     atom   17 type  5   force =    -0.00428014   -0.00309201    0.06022730
     The ionic contribution  to forces
     atom    1 type  1   force =   -10.66659832   10.79142904 -181.10192764
     atom    2 type  1   force =     9.26553496   13.66356389  139.18877545
     atom    3 type  2   force =   -18.26760205    9.66495191 -381.00657707
     atom    4 type  2   force =    -4.05350979   24.13971024  397.08141550
     atom    5 type  3   force =    17.86058065  -21.69940106  435.98158168
     atom    6 type  3   force =     1.43679829  -13.05279644 -121.30893798
     atom    7 type  4   force =   -33.89139536  -12.24681543 -378.69869360
     atom    8 type  4   force =   -18.94716996  -14.80638053  494.09865486
     atom    9 type  1   force =     8.35702902    8.74741595 -124.45200143
     atom   10 type  1   force =    -6.39865468   19.21802271  163.74567885
     atom   11 type  2   force =    44.57908338  -33.40236215 -447.56554968
     atom   12 type  2   force =   -13.38159822   -5.37783237 -167.06865933
     atom   13 type  3   force =     8.88805226  -26.66465819  145.82783711
     atom   14 type  3   force =    -9.67171005  -15.82951790  151.82065887
     atom   15 type  4   force =    12.76509030   34.57450504 -487.65659961
     atom   16 type  4   force =    12.26766397   22.15212787  400.13977971
     atom   17 type  5   force =    -0.14159442    0.12803742  -39.02543570
     The local contribution  to forces
     atom    1 type  1   force =     7.06173834   -7.29830638  168.02186538
     atom    2 type  1   force =    -7.11435132  -12.63048495 -129.47515199
     atom    3 type  2   force =    15.09687988   -6.75301323  370.51059284
     atom    4 type  2   force =     4.80229406  -17.91793621 -384.72658731
     atom    5 type  3   force =   -10.67252489   15.57029747 -415.08666873
     atom    6 type  3   force =    -5.95712728    6.11862989  109.38021378
     atom    7 type  4   force =    28.74781163    8.86640799  371.11479653
     atom    8 type  4   force =    15.65872355   12.77449734 -482.10336676
     atom    9 type  1   force =    -7.85395759   -7.47189609  118.60582446
     atom   10 type  1   force =     6.28802414  -13.49558891 -150.25444943
     atom   11 type  2   force =   -35.10367918   25.03062404  440.70713306
     atom   12 type  2   force =    11.55170959    5.46648042  157.75246719
     atom   13 type  3   force =    -6.68119888   16.31091231 -143.70745572
     atom   14 type  3   force =     7.99440228   15.04586266 -146.31758685
     atom   15 type  4   force =   -12.37815623  -26.56341062  474.96077393
     atom   16 type  4   force =   -10.90161349  -17.86177343 -391.08636676
     atom   17 type  5   force =     0.09161762   -0.06341068   38.80679897
     The core correction contribution to forces
     atom    1 type  1   force =     0.14355068   -0.14844137    0.47658371
     atom    2 type  1   force =    -0.11089280   -0.09021715   -0.34242391
     atom    3 type  2   force =     0.01577827   -0.02429281    0.10503420
     atom    4 type  2   force =     0.00812340   -0.03006481   -0.11656563
     atom    5 type  3   force =    -0.18690708    0.15355100   -0.56303063
     atom    6 type  3   force =     0.06970602    0.21116938    0.27505371
     atom    7 type  4   force =     0.09996698    0.02947538    0.11394982
     atom    8 type  4   force =     0.03076191    0.03292989   -0.15444958
     atom    9 type  1   force =    -0.03583703   -0.14193636    0.10808604
     atom   10 type  1   force =     0.08703244   -0.16211639   -0.43920768
     atom   11 type  2   force =    -0.09768072    0.09693903    0.08487082
     atom   12 type  2   force =     0.01837187    0.00084957    0.04840988
     atom   13 type  3   force =    -0.07399625    0.21270685   -0.05969732
     atom   14 type  3   force =     0.10497214    0.03059838   -0.10261878
     atom   15 type  4   force =    -0.02715572   -0.11546666    0.17089166
     atom   16 type  4   force =    -0.04583851   -0.04623179   -0.11374738
     atom   17 type  5   force =     0.00000000    0.00000000    0.00000000
     The Hubbard contrib.    to forces
     atom    1 type  1   force =     0.00000000    0.00000000    0.00000000
     atom    2 type  1   force =     0.00000000    0.00000000    0.00000000
     atom    3 type  2   force =     0.00000000    0.00000000    0.00000000
     atom    4 type  2   force =     0.00000000    0.00000000    0.00000000
     atom    5 type  3   force =     0.00000000    0.00000000    0.00000000
     atom    6 type  3   force =     0.00000000    0.00000000    0.00000000
     atom    7 type  4   force =     0.00000000    0.00000000    0.00000000
     atom    8 type  4   force =     0.00000000    0.00000000    0.00000000
     atom    9 type  1   force =     0.00000000    0.00000000    0.00000000
     atom   10 type  1   force =     0.00000000    0.00000000    0.00000000
     atom   11 type  2   force =     0.00000000    0.00000000    0.00000000
     atom   12 type  2   force =     0.00000000    0.00000000    0.00000000
     atom   13 type  3   force =     0.00000000    0.00000000    0.00000000
     atom   14 type  3   force =     0.00000000    0.00000000    0.00000000
     atom   15 type  4   force =     0.00000000    0.00000000    0.00000000
     atom   16 type  4   force =     0.00000000    0.00000000    0.00000000
     atom   17 type  5   force =     0.00000000    0.00000000    0.00000000
     The SCF correction term to forces
     atom    1 type  1   force =     0.00000000   -0.00000000    0.00000000
     atom    2 type  1   force =     0.00000000    0.00000000    0.00000000
     atom    3 type  2   force =     0.00000000   -0.00000000    0.00000000
     atom    4 type  2   force =    -0.00000000    0.00000000    0.00000000
     atom    5 type  3   force =     0.00000000    0.00000000   -0.00000000
     atom    6 type  3   force =    -0.00000000    0.00000000    0.00000000
     atom    7 type  4   force =     0.00000000    0.00000000    0.00000000
     atom    8 type  4   force =    -0.00000000    0.00000000   -0.00000000
     atom    9 type  1   force =    -0.00000000   -0.00000000    0.00000000
     atom   10 type  1   force =    -0.00000000    0.00000000    0.00000000
     atom   11 type  2   force =    -0.00000000    0.00000000    0.00000000
     atom   12 type  2   force =     0.00000000    0.00000000    0.00000000
     atom   13 type  3   force =     0.00000000   -0.00000000    0.00000000
     atom   14 type  3   force =    -0.00000000   -0.00000000    0.00000000
     atom   15 type  4   force =    -0.00000000   -0.00000000    0.00000000
     atom   16 type  4   force =     0.00000000   -0.00000000   -0.00000000
     atom   17 type  5   force =    -0.00002989   -0.00003124    0.00031026

     Total force =     0.177961     Total SCF correction =     0.000313

     Entering Dynamics:    iteration =     2
                           time      =   0.0002 pico-seconds


ATOMIC_POSITIONS (angstrom)
Hf            0.0858800679       -0.7951436715        7.4532072815    0   0   0
Hf            0.9880709739        1.9014415882        8.3624579711    0   0   0
Nb            1.0746989219        0.1356535858        6.8196389631    0   0   0
Nb            1.6491103981        0.8626804318        9.1943310858    0   0   0
Ta            0.0709744107       -0.7820475991        9.3858007313    0   0   0
Ta            1.9524714937        0.9993933557        7.6598559185    0   0   0
Zr            0.9976274959        1.7451739843        6.6557981874    0   0   0
Zr            2.5198328619        0.2094691683       10.0174953943    0   0   0
Hf            1.9380429646       -0.7197681019        7.5485206618    0   0   0
Hf           -0.6483186390        1.7040463621        8.4530515930    0   0   0
Nb            2.4216282335        1.6043757567        6.4559262597    0   0   0
Nb            0.1475903912        0.9184995235        7.5588298057    0   0   0
Ta            0.9013084356        0.1211212120        8.4106110025    0   0   0
Ta            2.6415926642        3.3452418198        8.4595496119    0   0   0
Zr            1.8442847182        2.6188909264        6.0000000000    0   0   0
Zr            0.1866550429        0.8943516698        9.3828635984    0   0   0
H             5.0026178550        4.0025612548        4.9989019401


     kinetic energy (Ekin) =           0.00299470 Ry
     temperature           =         315.21678572 K 
     Ekin + Etot (const)   =       -1896.40965385 Ry

     Writing config-only to output data dir ./pwscf.save/
     NEW-OLD atomic charge density approx. for the potential

     Check: negative core charge=   -0.000004

     negative rho (up, down):  1.624E-01 1.624E-01
     Generating pointlists ...

     total cpu time spent up to now is      350.9 secs

     Self-consistent Calculation

     iteration #  1     ecut=   120.00 Ry     beta= 0.70
     Davidson diagonalization with overlap
     ethr =  1.00E-06,  avg # of iterations =  2.0

     Threshold (ethr) on eigenvalues was too large:
     Diagonalizing with lowered threshold

     Davidson diagonalization with overlap
     ethr =  5.15E-08,  avg # of iterations =  1.0

     negative rho (up, down):  1.624E-01 1.624E-01

     total cpu time spent up to now is      367.8 secs

     total energy              =   -1896.41286088 Ry
     estimated scf accuracy    <       0.00010765 Ry

     total magnetization       =    -0.00 Bohr mag/cell
     absolute magnetization    =     0.00 Bohr mag/cell

     iteration #  2     ecut=   120.00 Ry     beta= 0.70
     Davidson diagonalization with overlap
     ethr =  5.36E-08,  avg # of iterations =  1.0

     negative rho (up, down):  1.624E-01 1.624E-01

     total cpu time spent up to now is      376.0 secs

     total energy              =   -1896.41286197 Ry
     estimated scf accuracy    <       0.00001585 Ry

     total magnetization       =    -0.00 Bohr mag/cell
     absolute magnetization    =     0.00 Bohr mag/cell

     iteration #  3     ecut=   120.00 Ry     beta= 0.70
     Davidson diagonalization with overlap
     ethr =  7.89E-09,  avg # of iterations =  2.0

     negative rho (up, down):  1.624E-01 1.624E-01

     total cpu time spent up to now is      385.0 secs

     total energy              =   -1896.41286166 Ry
     estimated scf accuracy    <       0.00000493 Ry

     total magnetization       =    -0.00 Bohr mag/cell
     absolute magnetization    =     0.00 Bohr mag/cell

     iteration #  4     ecut=   120.00 Ry     beta= 0.70
     Davidson diagonalization with overlap
     ethr =  2.45E-09,  avg # of iterations =  2.0

     negative rho (up, down):  1.623E-01 1.623E-01

     total cpu time spent up to now is      394.4 secs

     total energy              =   -1896.41286152 Ry
     estimated scf accuracy    <       0.00000136 Ry

     total magnetization       =    -0.00 Bohr mag/cell
     absolute magnetization    =     0.00 Bohr mag/cell

     iteration #  5     ecut=   120.00 Ry     beta= 0.70
     Davidson diagonalization with overlap
     ethr =  6.79E-10,  avg # of iterations =  2.0

     negative rho (up, down):  1.624E-01 1.624E-01

     Magnetic moment per site  (integrated on atomic sphere of radius R)
     atom   1 (R=0.160)  charge=  4.5294  magn=  0.0000
     atom   2 (R=0.160)  charge=  4.5752  magn=  0.0000
     atom   3 (R=0.155)  charge=  4.3344  magn=  0.0000
     atom   4 (R=0.155)  charge=  4.4451  magn=  0.0000
     atom   5 (R=0.160)  charge=  4.6785  magn= -0.0000
     atom   6 (R=0.160)  charge=  5.4000  magn=  0.0000
     atom   7 (R=0.155)  charge=  3.6596  magn=  0.0000
     atom   8 (R=0.155)  charge=  3.3141  magn=  0.0000
     atom   9 (R=0.160)  charge=  4.7336  magn=  0.0000
     atom  10 (R=0.160)  charge=  4.7479  magn=  0.0000
     atom  11 (R=0.155)  charge=  4.2648  magn= -0.0000
     atom  12 (R=0.155)  charge=  4.6235  magn=  0.0000
     atom  13 (R=0.160)  charge=  5.3972  magn=  0.0000
     atom  14 (R=0.160)  charge=  5.3503  magn= -0.0000
     atom  15 (R=0.155)  charge=  3.4478  magn= -0.0000
     atom  16 (R=0.155)  charge=  3.6900  magn=  0.0000
     atom  17 (R=0.212)  charge=  1.0524  magn= -0.0000

     total cpu time spent up to now is      403.6 secs

     End of self-consistent calculation

 ------ SPIN UP ------------


          k = 0.0000 0.0000 0.0000 ( 26649 PWs)   bands (ev):

   -88.6829 -77.2036 -74.6712 -73.7993 -71.3134 -66.5991 -63.4883 -60.7565
   -59.5423 -57.3408 -56.9375 -56.3114 -54.2687 -51.8650 -49.0544 -46.3950
   -44.8247 -43.9794 -42.3958 -40.2634 -39.0992 -37.1237 -35.1028 -33.6413
   -31.9872 -30.9675 -30.0270 -28.5970 -27.8341 -26.6822 -26.4901 -24.7077
   -23.7383 -22.5177 -21.7354 -20.8207 -18.8668 -18.7586 -17.4574 -16.7518
   -15.7415 -15.5533 -14.2688 -13.8312 -12.7133 -11.3102 -10.9821 -10.4537
   -10.0512  -8.4212  -7.5452  -7.1879  -6.9784  -6.0579  -5.0788  -4.3881
    -4.1344  -2.7926  -2.2450  -1.5766  -1.1522   0.4596   0.8431   1.7537
     2.4335   2.9276   3.4498   4.9635   5.2686   6.5714   7.1754   7.8979
     8.5817   9.4268   9.8698  10.4411  10.8899  11.1102  12.5051  12.9228
    13.8047  15.0281  15.8127  16.1443  17.9197  18.8870  19.6389  20.4756
    20.8606  21.2945  21.9491  22.4517  23.2881  23.9984  24.1885  24.3086
    25.1827  25.3713  26.0897  26.4181  27.5895  27.8722  27.9738  28.4433
    29.2911  29.6249  30.5449  30.7117  31.0051  31.1533  31.6809  31.8868
    32.3895  32.9911  33.7957  34.0632  34.5704  35.0064  35.2077  35.7347
    36.0871

 ------ SPIN DOWN ----------


          k = 0.0000 0.0000 0.0000 ( 26649 PWs)   bands (ev):

   -88.6829 -77.2036 -74.6712 -73.7993 -71.3134 -66.5991 -63.4883 -60.7565
   -59.5423 -57.3408 -56.9375 -56.3114 -54.2687 -51.8650 -49.0544 -46.3950
   -44.8247 -43.9794 -42.3958 -40.2634 -39.0992 -37.1237 -35.1028 -33.6413
   -31.9872 -30.9675 -30.0270 -28.5970 -27.8341 -26.6822 -26.4901 -24.7077
   -23.7383 -22.5177 -21.7354 -20.8207 -18.8668 -18.7586 -17.4574 -16.7518
   -15.7415 -15.5533 -14.2688 -13.8312 -12.7133 -11.3102 -10.9821 -10.4537
   -10.0512  -8.4212  -7.5452  -7.1879  -6.9784  -6.0579  -5.0788  -4.3881
    -4.1344  -2.7926  -2.2450  -1.5766  -1.1522   0.4596   0.8431   1.7537
     2.4335   2.9276   3.4498   4.9635   5.2686   6.5714   7.1754   7.8979
     8.5817   9.4268   9.8698  10.4411  10.8899  11.1102  12.5051  12.9228
    13.8047  15.0281  15.8127  16.1443  17.9197  18.8870  19.6389  20.4756
    20.8606  21.2945  21.9491  22.4517  23.2881  23.9984  24.1885  24.3086
    25.1827  25.3713  26.0897  26.4181  27.5895  27.8722  27.9738  28.4433
    29.2911  29.6249  30.5449  30.7117  31.0051  31.1533  31.6809  31.8868
    32.3895  32.9911  33.7957  34.0632  34.5704  35.0064  35.2077  35.7347
    36.0871

     the Fermi energy is    27.5453 ev

!    total energy              =   -1896.41286145 Ry
     estimated scf accuracy    <       0.00000044 Ry
     smearing contrib. (-TS)   =      -0.01751066 Ry
     internal energy E=F+TS    =   -1896.39535079 Ry

     total magnetization       =    -0.00 Bohr mag/cell
     absolute magnetization    =     0.00 Bohr mag/cell

     convergence has been achieved in   5 iterations

     negative rho (up, down):  1.624E-01 1.624E-01

     Forces acting on atoms (cartesian axes, Ry/au):

     atom    1 type  1   force =    -1.68752014    2.44535641  -11.29115115
     atom    2 type  1   force =     1.64493497   -0.49470300    8.54545582
     atom    3 type  2   force =    -3.46924051    3.27501343  -12.26647514
     atom    4 type  2   force =     1.19320717    6.86033136   14.76804331
     atom    5 type  3   force =     5.11356024   -4.20755795   16.20764510
     atom    6 type  3   force =    -3.46746098   -4.91244444  -10.88493851
     atom    7 type  4   force =    -6.56283563   -3.55503776   -9.54628385
     atom    8 type  4   force =    -3.78143554   -2.42009574   14.29316202
     atom    9 type  1   force =    -0.44624823    1.70226163   -5.70805349
     atom   10 type  1   force =    -0.22385250    3.31008639   10.93743955
     atom   11 type  2   force =    10.66948716   -8.95662646   -8.44783151
     atom   12 type  2   force =    -2.12029401    0.25140401  -10.26888241
     atom   13 type  3   force =     1.93672621   -6.88980393    2.82986916
     atom   14 type  3   force =    -1.78648507   -0.37128278    4.85919045
     atom   15 type  4   force =     1.15032874    9.05977296  -14.90949320
     atom   16 type  4   force =     1.89139506    4.84232652   11.04011229
     atom   17 type  5   force =    -0.05426694    0.06099936   -0.15780844
     The non-local contrib.  to forces
     atom    1 type  1   force =     1.77364481   -0.89931754    1.31005129
     atom    2 type  1   force =    -0.39539914   -1.43759266   -0.82685862
     atom    3 type  2   force =    -0.31437092    0.38771600   -1.87907054
     atom    4 type  2   force =     0.43615087    0.66852048    2.52978509
     atom    5 type  3   force =    -1.88765325    1.76799733   -4.12409559
     atom    6 type  3   force =     0.98327210    1.81048556    0.76655489
     atom    7 type  4   force =    -1.51935340   -0.20438965   -2.07996458
     atom    8 type  4   force =    -0.52382562   -0.42117012    2.45343492
     atom    9 type  1   force =    -0.91333200    0.56869365    0.02794218
     atom   10 type  1   force =    -0.20020185   -2.25022086   -2.11558249
     atom   11 type  2   force =     1.29208220   -0.68195242   -1.67874249
     atom   12 type  2   force =    -0.30895696    0.16193937   -1.00343377
     atom   13 type  3   force =    -0.19615928    3.25127460    0.76810530
     atom   14 type  3   force =    -0.21409481    0.38178367   -0.54241345
     atom   15 type  4   force =     0.79094572    1.16347745   -2.38846295
     atom   16 type  4   force =     0.57120551    0.59824751    2.10046096
     atom   17 type  5   force =    -0.00431383   -0.00300849    0.06018346
     The ionic contribution  to forces
     atom    1 type  1   force =   -10.66644272   10.79159095 -181.10216685
     atom    2 type  1   force =     9.26553766   13.66357317  139.18847721
     atom    3 type  2   force =   -18.26732418    9.66510084 -381.00872793
     atom    4 type  2   force =    -4.05351744   24.13970133  397.08108309
     atom    5 type  3   force =    17.86058589  -21.69939545  435.98125586
     atom    6 type  3   force =     1.43663340  -13.05296488 -121.30920682
     atom    7 type  4   force =   -33.89154145  -12.24698582 -378.69866377
     atom    8 type  4   force =   -18.94717067  -14.80638100  494.09835225
     atom    9 type  1   force =     8.35688249    8.74760844 -124.45232173
     atom   10 type  1   force =    -6.39865499   19.21802331  163.74543519
     atom   11 type  2   force =    44.57906832  -33.40200942 -447.56341149
     atom   12 type  2   force =   -13.38139878   -5.37798446 -167.06895460
     atom   13 type  3   force =     8.88806761  -26.66465907  145.82743543
     atom   14 type  3   force =    -9.67171922  -15.82951668  151.82033248
     atom   15 type  4   force =    12.76328872   34.57816479 -487.65719352
     atom   16 type  4   force =    12.26766948   22.15212262  400.13947758
     atom   17 type  5   force =    -0.13996413    0.12401133  -39.02120237
     The local contribution  to forces
     atom    1 type  1   force =     7.06172734   -7.29848862  168.02444064
     atom    2 type  1   force =    -7.11432369  -12.63045001 -129.47377654
     atom    3 type  2   force =    15.09666192   -6.75347705  370.51643204
     atom    4 type  2   force =     4.80249400  -17.91786103 -384.72629170
     atom    5 type  3   force =   -10.67251803   15.57029393 -415.08646971
     atom    6 type  3   force =    -5.95704530    6.11885896  109.38268890
     atom    7 type  4   force =    28.74807899    8.86683666  371.11872507
     atom    8 type  4   force =    15.65885992   12.77447382 -482.10411854
     atom    9 type  1   force =    -7.85395524   -7.47214138  118.60829830
     atom   10 type  1   force =     6.28799091  -13.49557565 -150.25321475
     atom   11 type  2   force =   -35.10393862   25.03031288  440.70998025
     atom   12 type  2   force =    11.55166026    5.46660888  157.75513543
     atom   13 type  3   force =    -6.68118204   16.31085447 -143.70598729
     atom   14 type  3   force =     7.99438261   15.04582663 -146.31607031
     atom   15 type  4   force =   -12.37678654  -26.56629992  474.96616386
     atom   16 type  4   force =   -10.90169931  -17.86180611 -391.08607000
     atom   17 type  5   force =     0.09000484   -0.06001595   38.80342376
     The core correction contribution to forces
     atom    1 type  1   force =     0.14355323   -0.14843622    0.47656085
     atom    2 type  1   force =    -0.11090197   -0.09021215   -0.34243027
     atom    3 type  2   force =     0.01577497   -0.02429922    0.10504494
     atom    4 type  2   force =     0.00813076   -0.03006047   -0.11657234
     atom    5 type  3   force =    -0.18691262    0.15355570   -0.56303231
     atom    6 type  3   force =     0.06970205    0.21118112    0.27505326
     atom    7 type  4   force =     0.09996858    0.02948107    0.11395257
     atom    8 type  4   force =     0.03076542    0.03292998   -0.15445643
     atom    9 type  1   force =    -0.03584499   -0.14190828    0.10807140
     atom   10 type  1   force =     0.08704804   -0.16212092   -0.43920014
     atom   11 type  2   force =    -0.09768878    0.09693475    0.08486181
     atom   12 type  2   force =     0.01837517    0.00084699    0.04841077
     atom   13 type  3   force =    -0.07399847    0.21270462   -0.05969223
     atom   14 type  3   force =     0.10496808    0.03059553   -0.10262104
     atom   15 type  4   force =    -0.02715681   -0.11546164    0.17088017
     atom   16 type  4   force =    -0.04583754   -0.04623294   -0.11374422
     atom   17 type  5   force =     0.00000000    0.00000000    0.00000000
     The Hubbard contrib.    to forces
     atom    1 type  1   force =     0.00000000    0.00000000    0.00000000
     atom    2 type  1   force =     0.00000000    0.00000000    0.00000000
     atom    3 type  2   force =     0.00000000    0.00000000    0.00000000
     atom    4 type  2   force =     0.00000000    0.00000000    0.00000000
     atom    5 type  3   force =     0.00000000    0.00000000    0.00000000
     atom    6 type  3   force =     0.00000000    0.00000000    0.00000000
     atom    7 type  4   force =     0.00000000    0.00000000    0.00000000
     atom    8 type  4   force =     0.00000000    0.00000000    0.00000000
     atom    9 type  1   force =     0.00000000    0.00000000    0.00000000
     atom   10 type  1   force =     0.00000000    0.00000000    0.00000000
     atom   11 type  2   force =     0.00000000    0.00000000    0.00000000
     atom   12 type  2   force =     0.00000000    0.00000000    0.00000000
     atom   13 type  3   force =     0.00000000    0.00000000    0.00000000
     atom   14 type  3   force =     0.00000000    0.00000000    0.00000000
     atom   15 type  4   force =     0.00000000    0.00000000    0.00000000
     atom   16 type  4   force =     0.00000000    0.00000000    0.00000000
     atom   17 type  5   force =     0.00000000    0.00000000    0.00000000
     The SCF correction term to forces
     atom    1 type  1   force =     0.00000000    0.00000000   -0.00000000
     atom    2 type  1   force =     0.00000000   -0.00000000    0.00000000
     atom    3 type  2   force =     0.00000000   -0.00000000   -0.00000000
     atom    4 type  2   force =    -0.00000000    0.00000000    0.00000000
     atom    5 type  3   force =     0.00000000   -0.00000000   -0.00000000
     atom    6 type  3   force =    -0.00000000   -0.00000000   -0.00000000
     atom    7 type  4   force =     0.00000000    0.00000000   -0.00000000
     atom    8 type  4   force =    -0.00000000    0.00000000   -0.00000000
     atom    9 type  1   force =     0.00000000    0.00000000   -0.00000000
     atom   10 type  1   force =    -0.00000000   -0.00000000   -0.00000000
     atom   11 type  2   force =    -0.00000000    0.00000000   -0.00000000
     atom   12 type  2   force =     0.00000000   -0.00000000   -0.00000000
     atom   13 type  3   force =     0.00000000    0.00000000   -0.00000000
     atom   14 type  3   force =    -0.00000000    0.00000000   -0.00000000
     atom   15 type  4   force =     0.00000000   -0.00000000   -0.00000000
     atom   16 type  4   force =     0.00000000   -0.00000000   -0.00000000
     atom   17 type  5   force =     0.00001083    0.00001358   -0.00022249

     Total force =     0.177678     Total SCF correction =     0.000223

     Entering Dynamics:    iteration =     3
                           time      =   0.0003 pico-seconds


ATOMIC_POSITIONS (angstrom)
Hf            0.0858800679       -0.7951436715        7.4532072815    0   0   0
Hf            0.9880709739        1.9014415882        8.3624579711    0   0   0
Nb            1.0746989219        0.1356535858        6.8196389631    0   0   0
Nb            1.6491103981        0.8626804318        9.1943310858    0   0   0
Ta            0.0709744107       -0.7820475991        9.3858007313    0   0   0
Ta            1.9524714937        0.9993933557        7.6598559185    0   0   0
Zr            0.9976274959        1.7451739843        6.6557981874    0   0   0
Zr            2.5198328619        0.2094691683       10.0174953943    0   0   0
Hf            1.9380429646       -0.7197681019        7.5485206618    0   0   0
Hf           -0.6483186390        1.7040463621        8.4530515930    0   0   0
Nb            2.4216282335        1.6043757567        6.4559262597    0   0   0
Nb            0.1475903912        0.9184995235        7.5588298057    0   0   0
Ta            0.9013084356        0.1211212120        8.4106110025    0   0   0
Ta            2.6415926642        3.3452418198        8.4595496119    0   0   0
Zr            1.8442847182        2.6188909264        6.0000000000    0   0   0
Zr            0.1866550429        0.8943516698        9.3828635984    0   0   0
H             5.0038328937        4.0039476956        4.9980798967


     kinetic energy (Ekin) =           0.00320690 Ry
     temperature           =         337.55338462 K 
     Ekin + Etot (const)   =       -1896.40965454 Ry

     Writing config-only to output data dir ./pwscf.save/
     NEW-OLD atomic charge density approx. for the potential

     Check: negative core charge=   -0.000004

     negative rho (up, down):  1.624E-01 1.624E-01
     Generating pointlists ...

     total cpu time spent up to now is      410.2 secs

     Self-consistent Calculation

     iteration #  1     ecut=   120.00 Ry     beta= 0.70
     Davidson diagonalization with overlap
     ethr =  1.00E-06,  avg # of iterations =  2.0

     Threshold (ethr) on eigenvalues was too large:
     Diagonalizing with lowered threshold

     Davidson diagonalization with overlap
     ethr =  9.55E-10,  avg # of iterations =  1.0

     negative rho (up, down):  1.624E-01 1.624E-01

     total cpu time spent up to now is      427.4 secs

     total energy              =   -1896.41314123 Ry
     estimated scf accuracy    <       0.00000197 Ry

     total magnetization       =    -0.00 Bohr mag/cell
     absolute magnetization    =     0.00 Bohr mag/cell

     iteration #  2     ecut=   120.00 Ry     beta= 0.70
     Davidson diagonalization with overlap
     ethr =  9.80E-10,  avg # of iterations =  1.0

     negative rho (up, down):  1.624E-01 1.624E-01

     Magnetic moment per site  (integrated on atomic sphere of radius R)
     atom   1 (R=0.160)  charge=  4.5294  magn= -0.0000
     atom   2 (R=0.160)  charge=  4.5752  magn=  0.0000
     atom   3 (R=0.155)  charge=  4.3343  magn=  0.0000
     atom   4 (R=0.155)  charge=  4.4451  magn=  0.0000
     atom   5 (R=0.160)  charge=  4.6785  magn= -0.0000
     atom   6 (R=0.160)  charge=  5.3999  magn= -0.0000
     atom   7 (R=0.155)  charge=  3.6596  magn=  0.0000
     atom   8 (R=0.155)  charge=  3.3141  magn= -0.0000
     atom   9 (R=0.160)  charge=  4.7335  magn= -0.0000
     atom  10 (R=0.160)  charge=  4.7478  magn=  0.0000
     atom  11 (R=0.155)  charge=  4.2648  magn= -0.0000
     atom  12 (R=0.155)  charge=  4.6235  magn=  0.0000
     atom  13 (R=0.160)  charge=  5.3972  magn=  0.0000
     atom  14 (R=0.160)  charge=  5.3503  magn= -0.0000
     atom  15 (R=0.155)  charge=  3.4477  magn= -0.0000
     atom  16 (R=0.155)  charge=  3.6900  magn=  0.0000
     atom  17 (R=0.212)  charge=  1.0515  magn= -0.0000

     total cpu time spent up to now is      435.6 secs

     End of self-consistent calculation

 ------ SPIN UP ------------


          k = 0.0000 0.0000 0.0000 ( 26649 PWs)   bands (ev):

   -88.6767 -77.1974 -74.6650 -73.7931 -71.3072 -66.5929 -63.4821 -60.7503
   -59.5361 -57.3346 -56.9313 -56.3051 -54.2625 -51.8588 -49.0482 -46.3888
   -44.8185 -43.9732 -42.3895 -40.2572 -39.0930 -37.1176 -35.0965 -33.6350
   -31.9809 -30.9613 -30.0208 -28.5908 -27.8279 -26.6760 -26.4838 -24.7016
   -23.7321 -22.5114 -21.7292 -20.8145 -18.8605 -18.7524 -17.4512 -16.7455
   -15.7352 -15.5471 -14.2626 -13.8250 -12.7072 -11.3039 -10.9759 -10.4475
   -10.0449  -8.4150  -7.5389  -7.1816  -6.9722  -6.0517  -5.0723  -4.3818
    -4.1282  -2.7863  -2.2388  -1.5704  -1.1460   0.4658   0.8493   1.7600
     2.4399   2.9338   3.4560   4.9698   5.2747   6.5778   7.1816   7.9042
     8.5880   9.4331   9.8761  10.4475  10.8965  11.1164  12.5113  12.9290
    13.8107  15.0344  15.8189  16.1511  17.9263  18.8933  19.6448  20.4830
    20.8658  21.2987  21.9556  22.4577  23.2941  24.0044  24.1948  24.3146
    25.1894  25.3781  26.0953  26.4230  27.5956  27.8783  27.9799  28.4481
    29.2966  29.6308  30.5480  30.7169  31.0101  31.1580  31.6865  31.8918
    32.3919  32.9957  33.7993  34.0675  34.5745  35.0111  35.2139  35.7399
    36.0922

 ------ SPIN DOWN ----------


          k = 0.0000 0.0000 0.0000 ( 26649 PWs)   bands (ev):

   -88.6767 -77.1974 -74.6650 -73.7931 -71.3072 -66.5929 -63.4821 -60.7503
   -59.5361 -57.3346 -56.9313 -56.3051 -54.2625 -51.8588 -49.0482 -46.3888
   -44.8185 -43.9732 -42.3895 -40.2572 -39.0930 -37.1176 -35.0965 -33.6350
   -31.9809 -30.9613 -30.0208 -28.5908 -27.8279 -26.6760 -26.4838 -24.7016
   -23.7321 -22.5114 -21.7292 -20.8145 -18.8605 -18.7524 -17.4512 -16.7455
   -15.7352 -15.5471 -14.2626 -13.8250 -12.7072 -11.3039 -10.9759 -10.4475
   -10.0449  -8.4150  -7.5389  -7.1816  -6.9722  -6.0517  -5.0723  -4.3818
    -4.1282  -2.7863  -2.2388  -1.5704  -1.1460   0.4658   0.8493   1.7600
     2.4399   2.9338   3.4560   4.9698   5.2747   6.5778   7.1816   7.9042
     8.5880   9.4331   9.8761  10.4475  10.8965  11.1164  12.5113  12.9290
    13.8107  15.0344  15.8189  16.1511  17.9263  18.8933  19.6448  20.4830
    20.8658  21.2987  21.9556  22.4577  23.2941  24.0044  24.1948  24.3146
    25.1894  25.3781  26.0953  26.4230  27.5956  27.8783  27.9799  28.4481
    29.2966  29.6308  30.5480  30.7169  31.0101  31.1580  31.6865  31.8918
    32.3919  32.9957  33.7993  34.0675  34.5745  35.0111  35.2139  35.7399
    36.0922

     the Fermi energy is    27.5514 ev

!    total energy              =   -1896.41314049 Ry
     estimated scf accuracy    <       0.00000094 Ry
     smearing contrib. (-TS)   =      -0.01751105 Ry
     internal energy E=F+TS    =   -1896.39562943 Ry

     total magnetization       =    -0.00 Bohr mag/cell
     absolute magnetization    =     0.00 Bohr mag/cell

     convergence has been achieved in   2 iterations

     negative rho (up, down):  1.624E-01 1.624E-01

     Forces acting on atoms (cartesian axes, Ry/au):

     atom    1 type  1   force =    -1.68746927    2.44531419  -11.29155977
     atom    2 type  1   force =     1.64484109   -0.49452365    8.54517210
     atom    3 type  2   force =    -3.46895904    3.27479769  -12.26554237
     atom    4 type  2   force =     1.19322197    6.85933220   14.76734258
     atom    5 type  3   force =     5.11351396   -4.20742387   16.20752742
     atom    6 type  3   force =    -3.46743344   -4.91229839  -10.88463044
     atom    7 type  4   force =    -6.56259041   -3.55463611   -9.54605859
     atom    8 type  4   force =    -3.78108359   -2.41931205   14.29166252
     atom    9 type  1   force =    -0.44622647    1.70218992   -5.70814207
     atom   10 type  1   force =    -0.22408723    3.31010912   10.93688237
     atom   11 type  2   force =    10.66892867   -8.95624926   -8.44658718
     atom   12 type  2   force =    -2.11980729    0.25156936  -10.26788577
     atom   13 type  3   force =     1.93670563   -6.88987999    2.82982690
     atom   14 type  3   force =    -1.78655310   -0.37123730    4.85936581
     atom   15 type  4   force =     1.15008677    9.06018203  -14.90988386
     atom   16 type  4   force =     1.89107641    4.84166868   11.03987918
     atom   17 type  5   force =    -0.05416465    0.06039744   -0.15736882
     The non-local contrib.  to forces
     atom    1 type  1   force =     1.77363380   -0.89936964    1.30983024
     atom    2 type  1   force =    -0.39544940   -1.43746838   -0.82714789
     atom    3 type  2   force =    -0.31402756    0.38780182   -1.87860838
     atom    4 type  2   force =     0.43602050    0.66742847    2.52901488
     atom    5 type  3   force =    -1.88768713    1.76808480   -4.12441957
     atom    6 type  3   force =     0.98338984    1.81059591    0.76659298
[...]
     2.4123   2.9058   3.4190   4.9372   5.2368   6.5471   7.1454   7.8708
     8.5527   9.4031   9.8428  10.4267  10.9062  11.0809  12.4738  12.8995
    13.7717  15.0916  15.7848  16.1578  17.9955  18.8644  19.6042  20.5244
    20.8488  21.1833  21.9576  22.4127  23.2631  23.9692  24.1760  24.2997
    25.1720  25.3924  26.0085  26.2922  27.5810  27.8413  27.9560  28.3645
    29.3200  29.5941  30.5705  30.7427  31.0011  31.1476  31.6604  31.8168
    32.4305  33.0498  33.6160  33.9408  34.4976  34.9118  35.1791  35.7325
    36.0508

 ------ SPIN DOWN ----------


          k = 0.0000 0.0000 0.0000 ( 26649 PWs)   bands (ev):

   -88.7192 -77.2381 -74.7032 -73.8264 -71.3458 -66.6267 -63.5221 -60.7905
   -59.5733 -57.3706 -56.9657 -56.3389 -54.2979 -51.8978 -49.0843 -46.4275
   -44.8560 -44.0080 -42.4224 -40.2969 -39.1305 -37.1589 -35.1324 -33.6672
   -32.0165 -30.9979 -30.0562 -28.6248 -27.8653 -26.7151 -26.5162 -24.7425
   -23.7682 -22.5475 -21.7664 -20.8508 -18.8986 -18.7895 -17.4894 -16.7758
   -15.7669 -15.5838 -14.2980 -13.8597 -12.7447 -11.3368 -11.0117 -10.4809
   -10.0778  -8.4530  -7.5692  -7.2156  -7.0038  -6.0881  -5.0904  -4.4173
    -4.1645  -2.8198  -2.2742  -1.6060  -1.1792   0.4315   0.8123   1.7235
     2.4123   2.9058   3.4190   4.9372   5.2368   6.5471   7.1454   7.8708
     8.5527   9.4031   9.8428  10.4267  10.9062  11.0809  12.4738  12.8995
    13.7717  15.0916  15.7848  16.1578  17.9955  18.8644  19.6042  20.5244
    20.8488  21.1833  21.9576  22.4127  23.2631  23.9692  24.1760  24.2997
    25.1720  25.3924  26.0085  26.2922  27.5810  27.8413  27.9560  28.3645
    29.3200  29.5941  30.5705  30.7427  31.0011  31.1476  31.6604  31.8168
    32.4305  33.0498  33.6160  33.9408  34.4976  34.9118  35.1791  35.7325
    36.0508

     the Fermi energy is    27.5309 ev

!    total energy              =   -1896.46356931 Ry
     estimated scf accuracy    <       0.00000033 Ry
     smearing contrib. (-TS)   =      -0.01795932 Ry
     internal energy E=F+TS    =   -1896.44560999 Ry

     total magnetization       =    -0.00 Bohr mag/cell
     absolute magnetization    =     0.00 Bohr mag/cell

     convergence has been achieved in   4 iterations

     negative rho (up, down):  1.622E-01 1.622E-01

     Forces acting on atoms (cartesian axes, Ry/au):

     atom    1 type  1   force =    -1.67587453    2.45058432  -11.28451669
     atom    2 type  1   force =     1.64532509   -0.48635621    8.54578971
     atom    3 type  2   force =    -3.46728196    3.27016270  -12.28612874
     atom    4 type  2   force =     1.18947418    6.86012511   14.75424416
     atom    5 type  3   force =     5.10937983   -4.20945071   16.20786139
     atom    6 type  3   force =    -3.47655435   -4.91824964  -10.88801830
     atom    7 type  4   force =    -6.56396383   -3.54693905   -9.54889783
     atom    8 type  4   force =    -3.78049497   -2.41745701   14.28568852
     atom    9 type  1   force =    -0.45216651    1.68746214   -5.69094148
     atom   10 type  1   force =    -0.23105990    3.32141844   10.92774194
     atom   11 type  2   force =    10.66352070   -8.97729666   -8.46348790
     atom   12 type  2   force =    -2.11143502    0.25559551  -10.27358444
     atom   13 type  3   force =     1.94308095   -6.90305882    2.82813066
     atom   14 type  3   force =    -1.78346379   -0.36443354    4.86816446
     atom   15 type  4   force =     1.14422609    9.12234921  -14.93069145
     atom   16 type  4   force =     1.88936394    4.83155744   11.04753553
     atom   17 type  5   force =    -0.04207592    0.02398678   -0.09888955
     The non-local contrib.  to forces
     atom    1 type  1   force =     1.77476319   -0.89414011    1.31414001
     atom    2 type  1   force =    -0.39159825   -1.43428184   -0.82796633
     atom    3 type  2   force =    -0.31222472    0.40915013   -1.90321022
     atom    4 type  2   force =     0.43059357    0.67099243    2.52810085
     atom    5 type  3   force =    -1.89342870    1.76322140   -4.11873094
     atom    6 type  3   force =     0.98118342    1.80634325    0.76372575
     atom    7 type  4   force =    -1.52372855   -0.18996127   -2.09728108
     atom    8 type  4   force =    -0.52245787   -0.42020249    2.45691350
     atom    9 type  1   force =    -0.90730174    0.55259309    0.04298909
     atom   10 type  1   force =    -0.21073444   -2.24391646   -2.12713563
     atom   11 type  2   force =     1.29966745   -0.71205108   -1.71216824
     atom   12 type  2   force =    -0.30937705    0.15698453   -1.00170119
     atom   13 type  3   force =    -0.19067511    3.24317409    0.76965214
     atom   14 type  3   force =    -0.21353812    0.38907209   -0.54216237
     atom   15 type  4   force =     0.79129879    1.17131663   -2.38286089
     atom   16 type  4   force =     0.55195969    0.60082875    2.10101542
     atom   17 type  5   force =    -0.00303578    0.00215885    0.04862443
     The ionic contribution  to forces
     atom    1 type  1   force =   -10.66364277   10.80597493 -181.15584827
     atom    2 type  1   force =     9.26874314   13.66191021  139.10757307
     atom    3 type  2   force =   -18.16830806    9.72717222 -381.22285000
     atom    4 type  2   force =    -4.05349266   24.13891223  396.98826286
     atom    5 type  3   force =    17.86066997  -21.69888013  435.89108951
     atom    6 type  3   force =     1.42709525  -13.07215125 -121.42530388
     atom    7 type  4   force =   -33.83575669  -12.31519386 -378.70378315
     atom    8 type  4   force =   -18.94734762  -14.80630246  494.01400776
     atom    9 type  1   force =     8.34958386    8.76776262 -124.53665331
     atom   10 type  1   force =    -6.40141541   19.21561537  163.66509050
     atom   11 type  2   force =    44.48242748  -33.53233335 -447.53977567
     atom   12 type  2   force =   -13.37514200   -5.39224583 -167.15059672
     atom   13 type  3   force =     8.89225301  -26.66219738  145.73193202
     atom   14 type  3   force =    -9.67533755  -15.82673636  151.72734566
     atom   15 type  4   force =    12.70837412   34.95047507 -487.62085966
     atom   16 type  4   force =    12.26787999   22.15163782  400.05545535
     atom   17 type  5   force =    -0.13658404   -0.11341985  -37.82508607
     The local contribution  to forces
     atom    1 type  1   force =     7.06921659   -7.31384243  168.08148177
     atom    2 type  1   force =    -7.11980138  -12.62444128 -129.38931017
     atom    3 type  2   force =    14.99767169   -6.84087232  370.73438388
     atom    4 type  2   force =     4.80399604  -17.91961225 -384.64285775
     atom    5 type  3   force =   -10.67042500   15.57259872 -414.99926587
     atom    6 type  3   force =    -5.95347221    6.13737042  109.50002504
     atom    7 type  4   force =    28.69526085    8.92936375  371.13812630
     atom    8 type  4   force =    15.65867253   12.77611918 -482.02780348
     atom    9 type  1   force =    -7.85538276   -7.49201165  118.69720664
     atom   10 type  1   force =     6.29340585  -13.48864376 -150.17010618
     atom   11 type  2   force =   -35.02024297   25.16881138  440.70283069
     atom   12 type  2   force =    11.55454954    5.48976229  157.83122400
     atom   13 type  3   force =    -6.68438331   16.30335970 -143.61229882
     atom   14 type  3   force =     7.99993190   15.04259922 -146.21255902
     atom   15 type  4   force =   -12.32815806  -26.88394578  474.90271565
     atom   16 type  4   force =   -10.88550755  -17.87449114 -390.99276366
     atom   17 type  5   force =     0.09754167    0.13525933   37.67771117
     The core correction contribution to forces
     atom    1 type  1   force =     0.14370155   -0.14737639    0.47634726
     atom    2 type  1   force =    -0.11202099   -0.08960909   -0.34327945
     atom    3 type  2   force =     0.01557912   -0.02517780    0.10605851
     atom    4 type  2   force =     0.00838765   -0.03016423   -0.11685425
     atom    5 type  3   force =    -0.18743408    0.15364250   -0.56267617
     atom    6 type  3   force =     0.06868580    0.21014903    0.27448912
     atom    7 type  4   force =     0.10020544    0.02878474    0.11445744
     atom    8 type  4   force =     0.03059853    0.03299996   -0.15488168
     atom    9 type  1   force =    -0.03897129   -0.14083705    0.10626345
     atom   10 type  1   force =     0.08767068   -0.16170435   -0.43884252
     atom   11 type  2   force =    -0.09830459    0.09818812    0.08601369
     atom   12 type  2   force =     0.01847982    0.00107747    0.04835184
     atom   13 type  3   force =    -0.07413395    0.21270529   -0.05955048
     atom   14 type  3   force =     0.10548253    0.03070486   -0.10284836
     atom   15 type  4   force =    -0.02730058   -0.11545255    0.17034428
     atom   16 type  4   force =    -0.04497364   -0.04643983   -0.11384365
     atom   17 type  5   force =     0.00000000    0.00000000    0.00000000
     The Hubbard contrib.    to forces
     atom    1 type  1   force =     0.00000000    0.00000000    0.00000000
     atom    2 type  1   force =     0.00000000    0.00000000    0.00000000
     atom    3 type  2   force =     0.00000000    0.00000000    0.00000000
     atom    4 type  2   force =     0.00000000    0.00000000    0.00000000
     atom    5 type  3   force =     0.00000000    0.00000000    0.00000000
     atom    6 type  3   force =     0.00000000    0.00000000    0.00000000
     atom    7 type  4   force =     0.00000000    0.00000000    0.00000000
     atom    8 type  4   force =     0.00000000    0.00000000    0.00000000
     atom    9 type  1   force =     0.00000000    0.00000000    0.00000000
     atom   10 type  1   force =     0.00000000    0.00000000    0.00000000
     atom   11 type  2   force =     0.00000000    0.00000000    0.00000000
     atom   12 type  2   force =     0.00000000    0.00000000    0.00000000
     atom   13 type  3   force =     0.00000000    0.00000000    0.00000000
     atom   14 type  3   force =     0.00000000    0.00000000    0.00000000
     atom   15 type  4   force =     0.00000000    0.00000000    0.00000000
     atom   16 type  4   force =     0.00000000    0.00000000    0.00000000
     atom   17 type  5   force =     0.00000000    0.00000000    0.00000000
     The SCF correction term to forces
     atom    1 type  1   force =     0.00000000   -0.00000000   -0.00000000
     atom    2 type  1   force =    -0.00000000    0.00000000   -0.00000000
     atom    3 type  2   force =    -0.00000000   -0.00000000   -0.00000000
     atom    4 type  2   force =    -0.00000000    0.00000000   -0.00000000
     atom    5 type  3   force =    -0.00000000   -0.00000000   -0.00000000
     atom    6 type  3   force =    -0.00000000    0.00000000   -0.00000000
     atom    7 type  4   force =     0.00000000    0.00000000   -0.00000000
     atom    8 type  4   force =     0.00000000   -0.00000000   -0.00000000
     atom    9 type  1   force =    -0.00000000   -0.00000000   -0.00000000
     atom   10 type  1   force =     0.00000000    0.00000000   -0.00000000
     atom   11 type  2   force =    -0.00000000    0.00000000   -0.00000000
     atom   12 type  2   force =     0.00000000    0.00000000   -0.00000000
     atom   13 type  3   force =     0.00000000   -0.00000000   -0.00000000
     atom   14 type  3   force =    -0.00000000   -0.00000000   -0.00000000
     atom   15 type  4   force =     0.00000000   -0.00000000    0.00000000
     atom   16 type  4   force =     0.00000000    0.00000000   -0.00000000
     atom   17 type  5   force =    -0.00000212   -0.00000592    0.00009759

     Total force =     0.110113     Total SCF correction =     0.000098

     Entering Dynamics:    iteration =    45
                           time      =   0.0044 pico-seconds


ATOMIC_POSITIONS (angstrom)
Hf            0.0858800679       -0.7951436715        7.4532072815    0   0   0
Hf            0.9880709739        1.9014415882        8.3624579711    0   0   0
Nb            1.0746989219        0.1356535858        6.8196389631    0   0   0
Nb            1.6491103981        0.8626804318        9.1943310858    0   0   0
Ta            0.0709744107       -0.7820475991        9.3858007313    0   0   0
Ta            1.9524714937        0.9993933557        7.6598559185    0   0   0
Zr            0.9976274959        1.7451739843        6.6557981874    0   0   0
Zr            2.5198328619        0.2094691683       10.0174953943    0   0   0
Hf            1.9380429646       -0.7197681019        7.5485206618    0   0   0
Hf           -0.6483186390        1.7040463621        8.4530515930    0   0   0
Nb            2.4216282335        1.6043757567        6.4559262597    0   0   0
Nb            0.1475903912        0.9184995235        7.5588298057    0   0   0
Ta            0.9013084356        0.1211212120        8.4106110025    0   0   0
Ta            2.6415926642        3.3452418198        8.4595496119    0   0   0
Zr            1.8442847182        2.6188909264        6.0000000000    0   0   0
Zr            0.1866550429        0.8943516698        9.3828635984    0   0   0
H             5.0011432024        4.1133088291        4.8135114715


     kinetic energy (Ekin) =           0.05395792 Ry
     temperature           =        5679.52082006 K 
     Ekin + Etot (const)   =       -1896.40961139 Ry

     Writing config-only to output data dir ./pwscf.save/
     NEW-OLD atomic charge density approx. for the potential

     Check: negative core charge=   -0.000004

     negative rho (up, down):  1.622E-01 1.622E-01
     Generating pointlists ...

     total cpu time spent up to now is     2666.7 secs

     Self-consistent Calculation

     iteration #  1     ecut=   120.00 Ry     beta= 0.70
     Davidson diagonalization with overlap
     ethr =  1.00E-06,  avg # of iterations =  2.0

     Threshold (ethr) on eigenvalues was too large:
     Diagonalizing with lowered threshold

     Davidson diagonalization with overlap
     ethr =  2.16E-08,  avg # of iterations =  1.0

     negative rho (up, down):  1.622E-01 1.622E-01

     total cpu time spent up to now is     2683.9 secs

     total energy              =   -1896.46516714 Ry
     estimated scf accuracy    <       0.00004445 Ry

     total magnetization       =    -0.00 Bohr mag/cell
     absolute magnetization    =     0.00 Bohr mag/cell

     iteration #  2     ecut=   120.00 Ry     beta= 0.70
     Davidson diagonalization with overlap
     ethr =  2.21E-08,  avg # of iterations =  1.0

     negative rho (up, down):  1.621E-01 1.621E-01

     total cpu time spent up to now is     2692.1 secs

     total energy              =   -1896.46516650 Ry
     estimated scf accuracy    <       0.00001139 Ry

     total magnetization       =    -0.00 Bohr mag/cell
     absolute magnetization    =     0.00 Bohr mag/cell

     iteration #  3     ecut=   120.00 Ry     beta= 0.70
     Davidson diagonalization with overlap
     ethr =  5.67E-09,  avg # of iterations =  2.0

     negative rho (up, down):  1.621E-01 1.621E-01

     total cpu time spent up to now is     2701.9 secs

     total energy              =   -1896.46516670 Ry
     estimated scf accuracy    <       0.00000347 Ry

     total magnetization       =    -0.00 Bohr mag/cell
     absolute magnetization    =     0.00 Bohr mag/cell

     iteration #  4     ecut=   120.00 Ry     beta= 0.70
     Davidson diagonalization with overlap
     ethr =  1.73E-09,  avg # of iterations =  1.0

     negative rho (up, down):  1.621E-01 1.621E-01

     total cpu time spent up to now is     2711.6 secs

     total energy              =   -1896.46516617 Ry
     estimated scf accuracy    <       0.00000237 Ry

     total magnetization       =    -0.00 Bohr mag/cell
     absolute magnetization    =     0.00 Bohr mag/cell

     iteration #  5     ecut=   120.00 Ry     beta= 0.70
     Davidson diagonalization with overlap
     ethr =  1.18E-09,  avg # of iterations =  2.0

     negative rho (up, down):  1.621E-01 1.621E-01

     Magnetic moment per site  (integrated on atomic sphere of radius R)
     atom   1 (R=0.160)  charge=  4.5296  magn=  0.0000
     atom   2 (R=0.160)  charge=  4.5753  magn= -0.0000
     atom   3 (R=0.155)  charge=  4.3330  magn= -0.0000
     atom   4 (R=0.155)  charge=  4.4447  magn=  0.0000
     atom   5 (R=0.160)  charge=  4.6788  magn=  0.0000
     atom   6 (R=0.160)  charge=  5.3996  magn= -0.0000
     atom   7 (R=0.155)  charge=  3.6589  magn=  0.0000
     atom   8 (R=0.155)  charge=  3.3138  magn= -0.0000
     atom   9 (R=0.160)  charge=  4.7325  magn=  0.0000
     atom  10 (R=0.160)  charge=  4.7478  magn=  0.0000
     atom  11 (R=0.155)  charge=  4.2638  magn= -0.0000
     atom  12 (R=0.155)  charge=  4.6238  magn= -0.0000
     atom  13 (R=0.160)  charge=  5.3971  magn= -0.0000
     atom  14 (R=0.160)  charge=  5.3503  magn=  0.0000
     atom  15 (R=0.155)  charge=  3.4456  magn=  0.0000
     atom  16 (R=0.155)  charge=  3.6897  magn=  0.0000
     atom  17 (R=0.212)  charge=  0.9089  magn= -0.0000

     total cpu time spent up to now is     2721.4 secs

     End of self-consistent calculation

 ------ SPIN UP ------------


          k = 0.0000 0.0000 0.0000 ( 26649 PWs)   bands (ev):

   -88.7237 -77.2426 -74.7075 -73.8306 -71.3502 -66.6309 -63.5264 -60.7948
   -59.5776 -57.3748 -56.9698 -56.3431 -54.3021 -51.9021 -49.0885 -46.4317
   -44.8602 -44.0122 -42.4265 -40.3012 -39.1347 -37.1632 -35.1366 -33.6713
   -32.0207 -31.0021 -30.0603 -28.6290 -27.8696 -26.7193 -26.5203 -24.7467
   -23.7724 -22.5516 -21.7706 -20.8550 -18.9028 -18.7937 -17.4936 -16.7799
   -15.7710 -15.5880 -14.3022 -13.8638 -12.7489 -11.3408 -11.0159 -10.4850
   -10.0819  -8.4573  -7.5732  -7.2197  -7.0078  -6.0923  -5.0942  -4.4214
    -4.1687  -2.8240  -2.2784  -1.6101  -1.1833   0.4274   0.8082   1.7193
     2.4083   2.9019   3.4148   4.9331   5.2327   6.5430   7.1413   7.8667
     8.5486   9.3991   9.8387  10.4229  10.9034  11.0768  12.4696  12.8956
    13.7675  15.0906  15.7808  16.1550  17.9954  18.8605  19.6004  20.5214
    20.8466  21.1779  21.9549  22.4084  23.2594  23.9652  24.1725  24.2968
    25.1681  25.3900  26.0020  26.2857  27.5776  27.8374  27.9524  28.3592
    29.3183  29.5904  30.5665  30.7450  30.9982  31.1459  31.6565  31.8128
    32.4304  33.0515  33.6054  33.9356  34.4939  34.9065  35.1753  35.7308
    36.0469

 ------ SPIN DOWN ----------


          k = 0.0000 0.0000 0.0000 ( 26649 PWs)   bands (ev):

   -88.7237 -77.2426 -74.7075 -73.8306 -71.3502 -66.6309 -63.5264 -60.7948
   -59.5776 -57.3748 -56.9698 -56.3431 -54.3021 -51.9021 -49.0885 -46.4317
   -44.8602 -44.0122 -42.4265 -40.3012 -39.1347 -37.1632 -35.1366 -33.6713
   -32.0207 -31.0021 -30.0603 -28.6290 -27.8696 -26.7193 -26.5203 -24.7467
   -23.7724 -22.5516 -21.7706 -20.8550 -18.9028 -18.7937 -17.4936 -16.7799
   -15.7710 -15.5880 -14.3022 -13.8638 -12.7489 -11.3408 -11.0159 -10.4850
   -10.0819  -8.4573  -7.5732  -7.2197  -7.0078  -6.0923  -5.0942  -4.4214
    -4.1687  -2.8240  -2.2784  -1.6101  -1.1833   0.4274   0.8082   1.7193
     2.4083   2.9019   3.4148   4.9331   5.2327   6.5430   7.1413   7.8667
     8.5486   9.3991   9.8387  10.4229  10.9034  11.0768  12.4696  12.8956
    13.7675  15.0906  15.7808  16.1550  17.9954  18.8605  19.6004  20.5214
    20.8466  21.1779  21.9549  22.4084  23.2594  23.9652  24.1725  24.2968
    25.1681  25.3900  26.0020  26.2857  27.5776  27.8374  27.9524  28.3592
    29.3183  29.5904  30.5665  30.7450  30.9982  31.1459  31.6565  31.8128
    32.4304  33.0515  33.6054  33.9356  34.4939  34.9065  35.1753  35.7308
    36.0469

     the Fermi energy is    27.5273 ev

!    total energy              =   -1896.46516602 Ry
     estimated scf accuracy    <       0.00000066 Ry
     smearing contrib. (-TS)   =      -0.01797119 Ry
     internal energy E=F+TS    =   -1896.44719483 Ry

     total magnetization       =     0.00 Bohr mag/cell
     absolute magnetization    =     0.00 Bohr mag/cell

     convergence has been achieved in   5 iterations
