
     Program PWSCF v.7.2 starts on 18May2023 at  3:54:41 

     This program is part of the open-source Quantum ESPRESSO suite
     for quantum simulation of materials; please cite
         "P. Giannozzi et al., J. Phys.:Condens. Matter 21 395502 (2009);
         "P. Giannozzi et al., J. Phys.:Condens. Matter 29 465901 (2017);
         "P. Giannozzi et al., J. Chem. Phys. 152 154105 (2020);
          URL http://www.quantum-espresso.org", 
     in publications or presentations arising from this work. More details at
     http://www.quantum-espresso.org/quote

     Parallel version (MPI), running on    12 processors

     MPI processes distributed on     1 nodes
     77993 MiB available memory on the printing compute node when the environment starts

     Reading input from HfNbTaZr_16_MD_nsteps_1.in
Warning: card &CELL ignored
Warning: card / ignored
Warning: card TA 0.0 0.0 0.0 ignored
Warning: card NB 0.0 0.0 0.0 ignored
Warning: card HF 0.0 0.0 0.0 ignored
Warning: card ZR 0.0 0.0 0.0 ignored
Warning: card H 0.0 0.0 -0.03464 ignored

     Current dimensions of program PWSCF are:
     Max number of different atomic species (ntypx) = 10
     Max number of k-points (npk) =  40000
     Max angular momentum in pseudopotentials (lmaxx) =  4

     File ./pwscf.md deleted, as requested

     R & G space division:  proc/nbgrp/npool/nimage =      12
     Subspace diagonalization in iterative solution of the eigenvalue problem:
     a serial algorithm will be used


     Parallelization info
     --------------------
     sticks:   dense  smooth     PW     G-vecs:    dense   smooth      PW
     Min         126     126     31                17826    17826    2217
     Max         127     127     32                17839    17839    2234
     Sum        1517    1517    377               213975   213975   26649

     Using Slab Decomposition



     bravais-lattice index     =            0
     lattice parameter (alat)  =       6.3117  a.u.
     unit-cell volume          =    1205.8245 (a.u.)^3
     number of atoms/cell      =           17
     number of atomic types    =            5
     number of electrons       =       201.00
     number of Kohn-Sham states=          121
     kinetic-energy cutoff     =     120.0000  Ry
     charge density cutoff     =     480.0000  Ry
     scf convergence threshold =      1.0E-06
     mixing beta               =       0.7000
     number of iterations used =            8  TF        mixing
     energy convergence thresh.=      0.0E+00
     force convergence thresh. =      0.0E+00
     Exchange-correlation=  SLA  PW   PBX  PBC
                           (   1   4   3   4   0   0   0)
     nstep                     =            3


     celldm(1)=   6.311685  celldm(2)=   0.000000  celldm(3)=   0.000000
     celldm(4)=   0.000000  celldm(5)=   0.000000  celldm(6)=   0.000000

     crystal axes: (cart. coord. in units of alat)
               a(1) = (   1.000000   0.000000   0.000000 )  
               a(2) = (   0.000000   1.000000   0.000000 )  
               a(3) = (   0.000000   0.000000   4.795658 )  

     reciprocal axes: (cart. coord. in units 2 pi/alat)
               b(1) = (  1.000000  0.000000  0.000000 )  
               b(2) = (  0.000000  1.000000  0.000000 )  
               b(3) = (  0.000000  0.000000  0.208522 )  


     PseudoPot. # 1 for Hf read from file:
     q-e/pseudo/hf_pbe_v1.uspp.F.UPF
     MD5 check sum: 8ee9378dfe14276e333edf04c5e4aa26
     Pseudo is Ultrasoft + core correction, Zval = 12.0
     Generated by new atomic code, or converted to UPF format
     Using radial grid of  921 points,  8 beta functions with: 
                l(1) =   0
                l(2) =   0
                l(3) =   0
                l(4) =   1
                l(5) =   1
                l(6) =   2
                l(7) =   2
                l(8) =   3
     Q(r) pseudized with  6 coefficients,  rinner =    1.200   1.200   1.200
                                                       1.200   1.200   1.200
                                                       1.200

     PseudoPot. # 2 for Nb read from file:
     q-e/pseudo/nb_pbe_v1.uspp.F.UPF
     MD5 check sum: 573aab8a2fa660278ed4a62cd769473f
     Pseudo is Ultrasoft + core correction, Zval = 13.0
     Generated by new atomic code, or converted to UPF format
     Using radial grid of  887 points,  6 beta functions with: 
                l(1) =   0
                l(2) =   0
                l(3) =   1
                l(4) =   1
                l(5) =   2
                l(6) =   2
     Q(r) pseudized with  6 coefficients,  rinner =    1.000   1.000   1.000
                                                       1.000   1.000

     PseudoPot. # 3 for Ta read from file:
     q-e/pseudo/ta_pbe_v1.uspp.F.UPF
     MD5 check sum: f8bbe9446314a3b8ea5d9f3e3836c939
     Pseudo is Ultrasoft + core correction, Zval = 13.0
     Generated by new atomic code, or converted to UPF format
     Using radial grid of  921 points,  7 beta functions with: 
                l(1) =   0
                l(2) =   0
                l(3) =   1
                l(4) =   1
                l(5) =   2
                l(6) =   2
                l(7) =   3
     Q(r) pseudized with  6 coefficients,  rinner =    1.300   1.300   1.300
                                                       1.300   1.300   1.300
                                                       1.300

     PseudoPot. # 4 for Zr read from file:
     q-e/pseudo/zr_pbe_v1.uspp.F.UPF
     MD5 check sum: 5db81b1e868ab7776c4564c113de050b
     Pseudo is Ultrasoft + core correction, Zval = 12.0
     Generated by new atomic code, or converted to UPF format
     Using radial grid of  887 points,  6 beta functions with: 
                l(1) =   0
                l(2) =   0
                l(3) =   1
                l(4) =   1
                l(5) =   2
                l(6) =   2
     Q(r) pseudized with  6 coefficients,  rinner =    1.200   1.200   1.200
                                                       1.200   1.200

     PseudoPot. # 5 for H  read from file:
     q-e/pseudo/h_pbe_v1.4.uspp.F.UPF
     MD5 check sum: 761ae9a214b05c3daf00ab9f6b793d6f
     Pseudo is Ultrasoft, Zval =  1.0
     Generated by new atomic code, or converted to UPF format
     Using radial grid of  615 points,  2 beta functions with: 
                l(1) =   0
                l(2) =   0
     Q(r) pseudized with  8 coefficients,  rinner =    0.700

     atomic species   valence    mass     pseudopotential
        Hf            12.00   178.49000     Hf( 1.00)
        Nb            13.00    92.90637     Nb( 1.00)
        Ta            13.00   180.94788     Ta( 1.00)
        Zr            12.00    91.22400     Zr( 1.00)
        H              1.00     2.01400     H ( 1.00)

     Starting magnetic structure 
     atomic species   magnetization
        Hf           0.000
        Nb           0.000
        Ta           0.000
        Zr           0.000
        H            0.000

     No symmetry found



   Cartesian axes

     site n.     atom                  positions (alat units)
         1           Hf  tau(   1) = (   0.0257126  -0.2380670   2.2314993  )
         2           Hf  tau(   2) = (   0.2958296   0.5692939   2.5037300  )
         3           Nb  tau(   3) = (   0.3217662   0.0406148   2.0418082  )
         4           Nb  tau(   4) = (   0.4937457   0.2582876   2.7527939  )
         5           Ta  tau(   5) = (   0.0212498  -0.2341460   2.8101201  )
         6           Ta  tau(   6) = (   0.5845723   0.2992196   2.2933701  )
         7           Zr  tau(   7) = (   0.2986909   0.5225072   1.9927540  )
         8           Zr  tau(   8) = (   0.7544410   0.0627153   2.9992503  )
         9           Hf  tau(   9) = (   0.5802524  -0.2154994   2.2600362  )
        10           Hf  tau(  10) = (  -0.1941074   0.5101935   2.5308539  )
        11           Nb  tau(  11) = (   0.7250384   0.4803520   1.9329121  )
        12           Nb  tau(  12) = (   0.0441887   0.2749999   2.2631228  )
        13           Ta  tau(  13) = (   0.2698528   0.0362638   2.5181471  )
        14           Ta  tau(  14) = (   0.7908960   1.0015695   2.5327994  )
        15           Zr  tau(  15) = (   0.5521811   0.7840991   1.7964073  )
        16           Zr  tau(  16) = (   0.0558847   0.2677700   2.8092407  )
        17           H   tau(  17) = (   1.4970061   1.1976048   1.4970061  )

     number of k points=     1  Gaussian smearing, width (Ry)=  0.0220
                       cart. coord. in units 2pi/alat
        k(    1) = (   0.0000000   0.0000000   0.0000000), wk =   1.0000000

     Dense  grid:   213975 G-vectors     FFT dimensions: (  45,  45, 216)

     Estimated max dynamical RAM per process >     170.15 MB

     Estimated total dynamical RAM >       1.99 GB

     Check: negative core charge=   -0.000004
     Generating pointlists ...
     new r_m :   0.1597 (alat units)  1.0080 (a.u.) for type    1
     new r_m :   0.1548 (alat units)  0.9769 (a.u.) for type    2
     new r_m :   0.1597 (alat units)  1.0080 (a.u.) for type    3
     new r_m :   0.1548 (alat units)  0.9769 (a.u.) for type    4
     new r_m :   0.2118 (alat units)  1.3369 (a.u.) for type    5

     Initial potential from superposition of free atoms

     starting charge     192.9760, renormalised to     201.0000

     negative rho (up, down):  3.317E-01 3.317E-01
     Starting wfcs are  209 randomized atomic wfcs

     total cpu time spent up to now is        7.8 secs

     Self-consistent Calculation

     iteration #  1     ecut=   120.00 Ry     beta= 0.70
     Davidson diagonalization with overlap
     ethr =  1.00E-02,  avg # of iterations =  6.0

     negative rho (up, down):  2.038E-01 2.036E-01

     total cpu time spent up to now is       25.8 secs

     total energy              =   -1899.66792791 Ry
     estimated scf accuracy    <     149.89063570 Ry

     total magnetization       =    -0.00 Bohr mag/cell
     absolute magnetization    =     0.06 Bohr mag/cell

     iteration #  2     ecut=   120.00 Ry     beta= 0.70
     Davidson diagonalization with overlap
     ethr =  1.00E-02,  avg # of iterations =  2.0

     negative rho (up, down):  1.868E-01 1.868E-01

     total cpu time spent up to now is       37.4 secs

     total energy              =   -1898.35017784 Ry
     estimated scf accuracy    <      41.77090068 Ry

     total magnetization       =     0.00 Bohr mag/cell
     absolute magnetization    =     0.03 Bohr mag/cell

     iteration #  3     ecut=   120.00 Ry     beta= 0.70
     Davidson diagonalization with overlap
     ethr =  1.00E-02,  avg # of iterations =  2.0

     negative rho (up, down):  1.725E-01 1.725E-01

     total cpu time spent up to now is       47.6 secs

     total energy              =   -1898.05757428 Ry
     estimated scf accuracy    <      12.52291174 Ry

     total magnetization       =    -0.00 Bohr mag/cell
     absolute magnetization    =     0.03 Bohr mag/cell

     iteration #  4     ecut=   120.00 Ry     beta= 0.70
     Davidson diagonalization with overlap
     ethr =  6.23E-03,  avg # of iterations =  2.0

     negative rho (up, down):  1.633E-01 1.633E-01

     total cpu time spent up to now is       57.4 secs

     total energy              =   -1898.08087178 Ry
     estimated scf accuracy    <       4.74646326 Ry

     total magnetization       =    -0.00 Bohr mag/cell
     absolute magnetization    =     0.03 Bohr mag/cell

     iteration #  5     ecut=   120.00 Ry     beta= 0.70
     Davidson diagonalization with overlap
     ethr =  2.36E-03,  avg # of iterations =  2.0

     negative rho (up, down):  1.736E-01 1.736E-01

     total cpu time spent up to now is       66.7 secs

     total energy              =   -1897.25208620 Ry
     estimated scf accuracy    <       3.36786787 Ry

     total magnetization       =    -0.00 Bohr mag/cell
     absolute magnetization    =     0.02 Bohr mag/cell

     iteration #  6     ecut=   120.00 Ry     beta= 0.70
     Davidson diagonalization with overlap
     ethr =  1.68E-03,  avg # of iterations =  6.0

     negative rho (up, down):  1.912E-01 1.909E-01

     total cpu time spent up to now is       76.8 secs

     total energy              =   -1897.13749247 Ry
     estimated scf accuracy    <       1.84714054 Ry

     total magnetization       =    -0.00 Bohr mag/cell
     absolute magnetization    =     0.01 Bohr mag/cell

     iteration #  7     ecut=   120.00 Ry     beta= 0.70
     Davidson diagonalization with overlap
     ethr =  9.19E-04,  avg # of iterations =  7.0

     negative rho (up, down):  3.383E-01 3.381E-01

     total cpu time spent up to now is       87.0 secs

     total energy              =   -1896.99472348 Ry
     estimated scf accuracy    <       1.17516779 Ry

     total magnetization       =    -0.00 Bohr mag/cell
     absolute magnetization    =     0.01 Bohr mag/cell

     iteration #  8     ecut=   120.00 Ry     beta= 0.70
     Davidson diagonalization with overlap
     ethr =  5.85E-04,  avg # of iterations =  2.0

     negative rho (up, down):  3.550E-01 3.550E-01

     total cpu time spent up to now is       96.6 secs

     total energy              =   -1896.91847992 Ry
     estimated scf accuracy    <       0.84868474 Ry

     total magnetization       =    -0.00 Bohr mag/cell
     absolute magnetization    =     0.01 Bohr mag/cell

     iteration #  9     ecut=   120.00 Ry     beta= 0.70
     Davidson diagonalization with overlap
     ethr =  4.22E-04,  avg # of iterations =  3.0

     negative rho (up, down):  3.174E-01 3.174E-01

     total cpu time spent up to now is      106.5 secs

     total energy              =   -1896.78012197 Ry
     estimated scf accuracy    <       0.62165976 Ry

     total magnetization       =     0.00 Bohr mag/cell
     absolute magnetization    =     0.00 Bohr mag/cell

     iteration # 10     ecut=   120.00 Ry     beta= 0.70
     Davidson diagonalization with overlap
     ethr =  3.09E-04,  avg # of iterations =  2.0

     negative rho (up, down):  3.885E-01 3.885E-01

     total cpu time spent up to now is      116.2 secs

     total energy              =   -1896.73710723 Ry
     estimated scf accuracy    <       0.59227587 Ry

     total magnetization       =     0.00 Bohr mag/cell
     absolute magnetization    =     0.00 Bohr mag/cell

     iteration # 11     ecut=   120.00 Ry     beta= 0.70
     Davidson diagonalization with overlap
     ethr =  2.95E-04,  avg # of iterations =  7.0

     negative rho (up, down):  3.050E-01 3.049E-01

     total cpu time spent up to now is      126.2 secs

     total energy              =   -1896.63277833 Ry
     estimated scf accuracy    <       0.37527116 Ry

     total magnetization       =     0.00 Bohr mag/cell
     absolute magnetization    =     0.00 Bohr mag/cell

     iteration # 12     ecut=   120.00 Ry     beta= 0.70
     Davidson diagonalization with overlap
     ethr =  1.87E-04,  avg # of iterations =  3.0

     negative rho (up, down):  3.623E-01 3.622E-01

     total cpu time spent up to now is      135.7 secs

     total energy              =   -1896.57061953 Ry
     estimated scf accuracy    <       0.47313185 Ry

     total magnetization       =    -0.00 Bohr mag/cell
     absolute magnetization    =     0.00 Bohr mag/cell

     iteration # 13     ecut=   120.00 Ry     beta= 0.70
     Davidson diagonalization with overlap
     ethr =  1.87E-04,  avg # of iterations =  8.0

     negative rho (up, down):  3.367E-01 3.367E-01

     total cpu time spent up to now is      145.9 secs

     total energy              =   -1896.45771423 Ry
     estimated scf accuracy    <       0.26495903 Ry

     total magnetization       =    -0.00 Bohr mag/cell
     absolute magnetization    =     0.00 Bohr mag/cell

     iteration # 14     ecut=   120.00 Ry     beta= 0.70
     Davidson diagonalization with overlap
     ethr =  1.32E-04,  avg # of iterations =  6.0

     negative rho (up, down):  2.953E-01 2.953E-01

     total cpu time spent up to now is      156.4 secs

     total energy              =   -1896.41778230 Ry
     estimated scf accuracy    <       0.09120500 Ry

     total magnetization       =     0.00 Bohr mag/cell
     absolute magnetization    =     0.00 Bohr mag/cell

     iteration # 15     ecut=   120.00 Ry     beta= 0.70
     Davidson diagonalization with overlap
     ethr =  4.54E-05,  avg # of iterations =  6.0

     negative rho (up, down):  2.273E-01 2.273E-01

     total cpu time spent up to now is      171.7 secs

     total energy              =   -1896.40827476 Ry
     estimated scf accuracy    <       0.03645789 Ry

     total magnetization       =     0.00 Bohr mag/cell
     absolute magnetization    =     0.00 Bohr mag/cell

     iteration # 16     ecut=   120.00 Ry     beta= 0.70
     Davidson diagonalization with overlap
     ethr =  1.81E-05,  avg # of iterations =  3.0

     negative rho (up, down):  2.008E-01 2.008E-01

     total cpu time spent up to now is      185.2 secs

     total energy              =   -1896.41161217 Ry
     estimated scf accuracy    <       0.00894168 Ry

     total magnetization       =     0.00 Bohr mag/cell
     absolute magnetization    =     0.00 Bohr mag/cell

     iteration # 17     ecut=   120.00 Ry     beta= 0.70
     Davidson diagonalization with overlap
     ethr =  4.45E-06,  avg # of iterations =  6.0

     negative rho (up, down):  1.736E-01 1.736E-01

     total cpu time spent up to now is      196.3 secs

     total energy              =   -1896.41230215 Ry
     estimated scf accuracy    <       0.00250234 Ry

     total magnetization       =     0.00 Bohr mag/cell
     absolute magnetization    =     0.00 Bohr mag/cell

     iteration # 18     ecut=   120.00 Ry     beta= 0.70
     Davidson diagonalization with overlap
     ethr =  1.24E-06,  avg # of iterations =  9.0

     negative rho (up, down):  1.705E-01 1.705E-01

     total cpu time spent up to now is      208.2 secs

     total energy              =   -1896.41259035 Ry
     estimated scf accuracy    <       0.00134028 Ry

     total magnetization       =    -0.00 Bohr mag/cell
     absolute magnetization    =     0.00 Bohr mag/cell

     iteration # 19     ecut=   120.00 Ry     beta= 0.70
     Davidson diagonalization with overlap
     ethr =  6.67E-07,  avg # of iterations =  5.0

     negative rho (up, down):  1.673E-01 1.673E-01

     total cpu time spent up to now is      218.4 secs

     total energy              =   -1896.41250949 Ry
     estimated scf accuracy    <       0.00031839 Ry

     total magnetization       =    -0.00 Bohr mag/cell
     absolute magnetization    =     0.00 Bohr mag/cell

     iteration # 20     ecut=   120.00 Ry     beta= 0.70
     Davidson diagonalization with overlap
     ethr =  1.58E-07,  avg # of iterations =  4.0

     negative rho (up, down):  1.662E-01 1.662E-01

     total cpu time spent up to now is      228.4 secs

     total energy              =   -1896.41238729 Ry
     estimated scf accuracy    <       0.00021856 Ry

     total magnetization       =    -0.00 Bohr mag/cell
     absolute magnetization    =     0.00 Bohr mag/cell

     iteration # 21     ecut=   120.00 Ry     beta= 0.70
     Davidson diagonalization with overlap
     ethr =  1.09E-07,  avg # of iterations =  2.0

     negative rho (up, down):  1.649E-01 1.649E-01

     total cpu time spent up to now is      238.0 secs

     total energy              =   -1896.41240861 Ry
     estimated scf accuracy    <       0.00015832 Ry

     total magnetization       =    -0.00 Bohr mag/cell
     absolute magnetization    =     0.00 Bohr mag/cell

     iteration # 22     ecut=   120.00 Ry     beta= 0.70
     Davidson diagonalization with overlap
     ethr =  7.88E-08,  avg # of iterations =  6.0

     negative rho (up, down):  1.631E-01 1.631E-01

     total cpu time spent up to now is      248.1 secs

     total energy              =   -1896.41238495 Ry
     estimated scf accuracy    <       0.00011066 Ry

     total magnetization       =    -0.00 Bohr mag/cell
     absolute magnetization    =     0.00 Bohr mag/cell

     iteration # 23     ecut=   120.00 Ry     beta= 0.70
     Davidson diagonalization with overlap
     ethr =  5.51E-08,  avg # of iterations =  7.0

     negative rho (up, down):  1.635E-01 1.635E-01

     total cpu time spent up to now is      258.7 secs

     total energy              =   -1896.41248799 Ry
     estimated scf accuracy    <       0.00005521 Ry

     total magnetization       =    -0.00 Bohr mag/cell
     absolute magnetization    =     0.00 Bohr mag/cell

     iteration # 24     ecut=   120.00 Ry     beta= 0.70
     Davidson diagonalization with overlap
     ethr =  2.75E-08,  avg # of iterations =  3.0

     negative rho (up, down):  1.635E-01 1.635E-01

     total cpu time spent up to now is      268.4 secs

     total energy              =   -1896.41251348 Ry
     estimated scf accuracy    <       0.00003634 Ry

     total magnetization       =     0.00 Bohr mag/cell
     absolute magnetization    =     0.00 Bohr mag/cell

     iteration # 25     ecut=   120.00 Ry     beta= 0.70
     Davidson diagonalization with overlap
     ethr =  1.81E-08,  avg # of iterations =  2.0

     negative rho (up, down):  1.623E-01 1.623E-01

     total cpu time spent up to now is      278.3 secs

     total energy              =   -1896.41248658 Ry
     estimated scf accuracy    <       0.00002232 Ry

     total magnetization       =     0.00 Bohr mag/cell
     absolute magnetization    =     0.00 Bohr mag/cell

     iteration # 26     ecut=   120.00 Ry     beta= 0.70
     Davidson diagonalization with overlap
     ethr =  1.11E-08,  avg # of iterations =  2.0

     negative rho (up, down):  1.623E-01 1.623E-01

     total cpu time spent up to now is      288.0 secs

     total energy              =   -1896.41248502 Ry
     estimated scf accuracy    <       0.00000701 Ry

     total magnetization       =     0.00 Bohr mag/cell
     absolute magnetization    =     0.00 Bohr mag/cell

     iteration # 27     ecut=   120.00 Ry     beta= 0.70
     Davidson diagonalization with overlap
     ethr =  3.49E-09,  avg # of iterations =  2.0

     negative rho (up, down):  1.622E-01 1.622E-01

     total cpu time spent up to now is      297.6 secs

     total energy              =   -1896.41249523 Ry
     estimated scf accuracy    <       0.00000365 Ry

     total magnetization       =     0.00 Bohr mag/cell
     absolute magnetization    =     0.00 Bohr mag/cell

     iteration # 28     ecut=   120.00 Ry     beta= 0.70
     Davidson diagonalization with overlap
     ethr =  1.81E-09,  avg # of iterations =  2.0

     negative rho (up, down):  1.624E-01 1.624E-01

     Magnetic moment per site  (integrated on atomic sphere of radius R)
     atom   1 (R=0.160)  charge=  4.5294  magn= -0.0000
     atom   2 (R=0.160)  charge=  4.5752  magn= -0.0000
     atom   3 (R=0.155)  charge=  4.3344  magn= -0.0000
     atom   4 (R=0.155)  charge=  4.4452  magn= -0.0000
     atom   5 (R=0.160)  charge=  4.6785  magn= -0.0000
     atom   6 (R=0.160)  charge=  5.4000  magn= -0.0000
     atom   7 (R=0.155)  charge=  3.6596  magn= -0.0000
     atom   8 (R=0.155)  charge=  3.3141  magn= -0.0000
     atom   9 (R=0.160)  charge=  4.7336  magn=  0.0000
     atom  10 (R=0.160)  charge=  4.7479  magn= -0.0000
     atom  11 (R=0.155)  charge=  4.2647  magn=  0.0000
     atom  12 (R=0.155)  charge=  4.6235  magn= -0.0000
     atom  13 (R=0.160)  charge=  5.3972  magn= -0.0000
     atom  14 (R=0.160)  charge=  5.3504  magn= -0.0000
     atom  15 (R=0.155)  charge=  3.4477  magn=  0.0000
     atom  16 (R=0.155)  charge=  3.6900  magn= -0.0000
     atom  17 (R=0.212)  charge=  1.0536  magn=  0.0000

     total cpu time spent up to now is      307.1 secs

     End of self-consistent calculation

 ------ SPIN UP ------------


          k = 0.0000 0.0000 0.0000 ( 26649 PWs)   bands (ev):

   -88.6819 -77.2026 -74.6701 -73.7983 -71.3122 -66.5980 -63.4869 -60.7552
   -59.5412 -57.3397 -56.9364 -56.3103 -54.2676 -51.8637 -49.0531 -46.3938
   -44.8233 -43.9782 -42.3945 -40.2620 -39.0978 -37.1223 -35.1016 -33.6400
   -31.9857 -30.9661 -30.0256 -28.5960 -27.8330 -26.6808 -26.4888 -24.7061
   -23.7370 -22.5163 -21.7342 -20.8194 -18.8652 -18.7574 -17.4559 -16.7505
   -15.7403 -15.5521 -14.2677 -13.8298 -12.7116 -11.3089 -10.9809 -10.4525
   -10.0498  -8.4199  -7.5438  -7.1865  -6.9769  -6.0567  -5.0778  -4.3867
    -4.1332  -2.7913  -2.2437  -1.5752  -1.1508   0.4611   0.8445   1.7551
     2.4347   2.9290   3.4511   4.9647   5.2702   6.5727   7.1768   7.8992
     8.5832   9.4282   9.8712  10.4423  10.8908  11.1116  12.5066  12.9242
    13.8062  15.0298  15.8143  16.1449  17.9207  18.8886  19.6409  20.4750
    20.8635  21.2971  21.9503  22.4534  23.2895  23.9998  24.1897  24.3103
    25.1833  25.3713  26.0920  26.4206  27.5910  27.8738  27.9750  28.4459
    29.2933  29.6269  30.5588  30.7134  31.0059  31.1592  31.6811  31.8919
    32.3775  33.0066  33.7970  34.0685  34.5720  35.0067  35.2090  35.7409
    36.0891

 ------ SPIN DOWN ----------


          k = 0.0000 0.0000 0.0000 ( 26649 PWs)   bands (ev):

   -88.6819 -77.2026 -74.6701 -73.7983 -71.3122 -66.5980 -63.4869 -60.7552
   -59.5412 -57.3397 -56.9364 -56.3103 -54.2676 -51.8637 -49.0531 -46.3938
   -44.8233 -43.9782 -42.3945 -40.2620 -39.0978 -37.1223 -35.1016 -33.6400
   -31.9857 -30.9661 -30.0256 -28.5960 -27.8330 -26.6808 -26.4888 -24.7061
   -23.7370 -22.5163 -21.7342 -20.8194 -18.8652 -18.7574 -17.4559 -16.7505
   -15.7403 -15.5521 -14.2677 -13.8298 -12.7116 -11.3089 -10.9809 -10.4525
   -10.0498  -8.4199  -7.5438  -7.1865  -6.9769  -6.0567  -5.0778  -4.3867
    -4.1332  -2.7913  -2.2437  -1.5752  -1.1508   0.4611   0.8445   1.7551
     2.4347   2.9290   3.4511   4.9647   5.2702   6.5727   7.1768   7.8992
     8.5832   9.4282   9.8712  10.4423  10.8908  11.1116  12.5066  12.9242
    13.8062  15.0298  15.8143  16.1449  17.9207  18.8886  19.6409  20.4750
    20.8635  21.2971  21.9503  22.4534  23.2895  23.9998  24.1897  24.3103
    25.1833  25.3713  26.0920  26.4206  27.5910  27.8738  27.9750  28.4459
    29.2933  29.6269  30.5588  30.7134  31.0059  31.1592  31.6811  31.8919
    32.3775  33.0066  33.7970  34.0685  34.5720  35.0067  35.2090  35.7409
    36.0891

     the Fermi energy is    27.5468 ev

!    total energy              =   -1896.41250391 Ry
     estimated scf accuracy    <       0.00000080 Ry
     smearing contrib. (-TS)   =      -0.01751052 Ry
     internal energy E=F+TS    =   -1896.39499340 Ry

     total magnetization       =    -0.00 Bohr mag/cell
     absolute magnetization    =     0.00 Bohr mag/cell

     convergence has been achieved in  28 iterations

     negative rho (up, down):  1.624E-01 1.624E-01

     Forces acting on atoms (cartesian axes, Ry/au):

     atom    1 type  1   force =    -1.68770632    2.44537288  -11.29067373
     atom    2 type  1   force =     1.64496187   -0.49484314    8.54542303
     atom    3 type  2   force =    -3.46931714    3.27492383  -12.26615210
     atom    4 type  2   force =     1.19315710    6.86044168   14.76815429
     atom    5 type  3   force =     5.11361299   -4.20771515   16.20744984
     atom    6 type  3   force =    -3.46741549   -4.91270402  -10.88500716
     atom    7 type  4   force =    -6.56278791   -3.55508780   -9.54601082
     atom    8 type  4   force =    -3.78154754   -2.42014660   14.29285885
     atom    9 type  1   force =    -0.44635584    1.70251325   -5.70806057
     atom   10 type  1   force =    -0.22364541    3.31000872   10.93763932
     atom   11 type  2   force =    10.66907993   -8.95600053   -8.44850618
     atom   12 type  2   force =    -2.12030539    0.25133437  -10.26910242
     atom   13 type  3   force =     1.93669647   -6.88959196    2.82974860
     atom   14 type  3   force =    -1.78638364   -0.37129189    4.85887381
     atom   15 type  4   force =     1.15076637    9.05823713  -14.90819469
     atom   16 type  4   force =     1.89154322    4.84249409   11.03984481
     atom   17 type  5   force =    -0.05435327    0.06205516   -0.15828489
     The non-local contrib.  to forces
     atom    1 type  1   force =     1.77364176   -0.89927756    1.31037844
     atom    2 type  1   force =    -0.39540353   -1.43773609   -0.82688944
     atom    3 type  2   force =    -0.31447703    0.38719975   -1.87857232
     atom    4 type  2   force =     0.43639145    0.66882132    2.52973436
     atom    5 type  3   force =    -1.88755403    1.76788535   -4.12422716
     atom    6 type  3   force =     0.98323514    1.81026570    0.76656680
     atom    7 type  4   force =    -1.51934464   -0.20419822   -2.07949832
     atom    8 type  4   force =    -0.52378891   -0.42112002    2.45305695
     atom    9 type  1   force =    -0.91362416    0.56900844    0.02781144
     atom   10 type  1   force =    -0.20003062   -2.25039316   -2.11543267
     atom   11 type  2   force =     1.29137493   -0.68159171   -1.67911009
     atom   12 type  2   force =    -0.30881626    0.16177299   -1.00369294
     atom   13 type  3   force =    -0.19618831    3.25150212    0.76792546
     atom   14 type  3   force =    -0.21403921    0.38189007   -0.54252728
     atom   15 type  4   force =     0.79087837    1.16323287   -2.38809081
     atom   16 type  4   force =     0.57146439    0.59833024    2.10043718
     atom   17 type  5   force =    -0.00425718   -0.00315883    0.06031221
     The ionic contribution  to forces
     atom    1 type  1   force =   -10.66675780   10.79128113 -181.10173659
     atom    2 type  1   force =     9.26553664   13.66355243  139.18899239
     atom    3 type  2   force =   -18.26774304    9.66487371 -381.00461442
     atom    4 type  2   force =    -4.05350171   24.13971834  397.08165268
     atom    5 type  3   force =    17.86057527  -21.69940614  435.98181554
     atom    6 type  3   force =     1.43695786  -13.05264925 -121.30879814
     atom    7 type  4   force =   -33.89117065  -12.24671736 -378.69870189
     atom    8 type  4   force =   -18.94716947  -14.80637996  494.09887115
     atom    9 type  1   force =     8.35717236    8.74724533 -124.45176951
     atom   10 type  1   force =    -6.39865824   19.21801906  163.74583935
     atom   11 type  2   force =    44.57897858  -33.40289398 -447.56771338
     atom   12 type  2   force =   -13.38179881   -5.37769438 -167.06844280
     atom   13 type  3   force =     8.88804225  -26.66465432  145.82814270
     atom   14 type  3   force =    -9.67170570  -15.82951562  151.82088891
     atom   15 type  4   force =    12.76690194   34.57123576 -487.65593985
     atom   16 type  4   force =    12.26765848   22.15213262  400.13999605
     atom   17 type  5   force =    -0.14331797    0.13185264  -39.02848218
     The local contribution  to forces
     atom    1 type  1   force =     7.06190385   -7.29812519  168.02552773
     atom    2 type  1   force =    -7.11427090  -12.63059425 -129.47418445
     atom    3 type  2   force =    15.09711528   -6.75276422  370.51466839
     atom    4 type  2   force =     4.80224614  -17.91805729 -384.72764375
     atom    5 type  3   force =   -10.67250128   15.57022551 -415.08789862
     atom    6 type  3   force =    -5.95728113    6.11838323  109.38370098
     atom    7 type  4   force =    28.74776350    8.86633163  371.12055544
     atom    8 type  4   force =    15.65846745   12.77442898 -482.10554050
     atom    9 type  1   force =    -7.85413246   -7.47167689  118.60913291
     atom   10 type  1   force =     6.28793864  -13.49579805 -150.25359382
     atom   11 type  2   force =   -35.10361667   25.03143727  440.71597811
     atom   12 type  2   force =    11.55182070    5.46633176  157.75640839
     atom   13 type  3   force =    -6.68109511   16.31107067 -143.70654872
     atom   14 type  3   force =     7.99432261   15.04609245 -146.31680993
     atom   15 type  4   force =   -12.37985386  -26.56079572  474.96671582
     atom   16 type  4   force =   -10.90173371  -17.86165575 -391.08775580
     atom   17 type  5   force =     0.09320903   -0.06662340   38.80999143
     The core correction contribution to forces
     atom    1 type  1   force =     0.14355391   -0.14844018    0.47658729
     atom    2 type  1   force =    -0.11089373   -0.09021922   -0.34242481
     atom    3 type  2   force =     0.01578437   -0.02428607    0.10502065
     atom    4 type  2   force =     0.00811836   -0.03006889   -0.11656267
     atom    5 type  3   force =    -0.18690029    0.15355314   -0.56302546
     atom    6 type  3   force =     0.06970336    0.21116928    0.27505003
     atom    7 type  4   force =     0.09997079    0.02947660    0.11394504
     atom    8 type  4   force =     0.03075925    0.03292874   -0.15444241
     atom    9 type  1   force =    -0.03583252   -0.14197378    0.10809796
     atom   10 type  1   force =     0.08703422   -0.16211195   -0.43920591
     atom   11 type  2   force =    -0.09767175    0.09693876    0.08487688
     atom   12 type  2   force =     0.01836786    0.00085432    0.04841101
     atom   13 type  3   force =    -0.07399420    0.21270755   -0.05970507
     atom   14 type  3   force =     0.10497357    0.03060947   -0.10261403
     atom   15 type  4   force =    -0.02715507   -0.11547166    0.17088985
     atom   16 type  4   force =    -0.04584844   -0.04623279   -0.11374225
     atom   17 type  5   force =     0.00000000    0.00000000    0.00000000
     The Hubbard contrib.    to forces
     atom    1 type  1   force =     0.00000000    0.00000000    0.00000000
     atom    2 type  1   force =     0.00000000    0.00000000    0.00000000
     atom    3 type  2   force =     0.00000000    0.00000000    0.00000000
     atom    4 type  2   force =     0.00000000    0.00000000    0.00000000
     atom    5 type  3   force =     0.00000000    0.00000000    0.00000000
     atom    6 type  3   force =     0.00000000    0.00000000    0.00000000
     atom    7 type  4   force =     0.00000000    0.00000000    0.00000000
     atom    8 type  4   force =     0.00000000    0.00000000    0.00000000
     atom    9 type  1   force =     0.00000000    0.00000000    0.00000000
     atom   10 type  1   force =     0.00000000    0.00000000    0.00000000
     atom   11 type  2   force =     0.00000000    0.00000000    0.00000000
     atom   12 type  2   force =     0.00000000    0.00000000    0.00000000
     atom   13 type  3   force =     0.00000000    0.00000000    0.00000000
     atom   14 type  3   force =     0.00000000    0.00000000    0.00000000
     atom   15 type  4   force =     0.00000000    0.00000000    0.00000000
     atom   16 type  4   force =     0.00000000    0.00000000    0.00000000
     atom   17 type  5   force =     0.00000000    0.00000000    0.00000000
     The SCF correction term to forces
     atom    1 type  1   force =    -0.00000000   -0.00000000   -0.00000000
     atom    2 type  1   force =    -0.00000000    0.00000000   -0.00000000
     atom    3 type  2   force =    -0.00000000   -0.00000000   -0.00000000
     atom    4 type  2   force =    -0.00000000    0.00000000    0.00000000
     atom    5 type  3   force =    -0.00000000    0.00000000    0.00000000
     atom    6 type  3   force =    -0.00000000    0.00000000   -0.00000000
     atom    7 type  4   force =    -0.00000000    0.00000000   -0.00000000
     atom    8 type  4   force =     0.00000000    0.00000000    0.00000000
     atom    9 type  1   force =     0.00000000   -0.00000000   -0.00000000
     atom   10 type  1   force =     0.00000000    0.00000000    0.00000000
     atom   11 type  2   force =    -0.00000000    0.00000000   -0.00000000
     atom   12 type  2   force =     0.00000000    0.00000000   -0.00000000
     atom   13 type  3   force =    -0.00000000   -0.00000000   -0.00000000
     atom   14 type  3   force =     0.00000000   -0.00000000   -0.00000000
     atom   15 type  4   force =    -0.00000000    0.00000000   -0.00000000
     atom   16 type  4   force =    -0.00000000   -0.00000000    0.00000000
     atom   17 type  5   force =    -0.00000223    0.00000022   -0.00004830

     Total force =     0.178492     Total SCF correction =     0.000048

     Molecular Dynamics Calculation

     Starting temperature  =   300.00 K

     temperature is set once at start

     mass Hf               =   178.49
     mass Nb               =    92.91
     mass Ta               =   180.95
     mass Zr               =    91.22
     mass H                =     2.01
     Time step             =    21.00 a.u.,  1.0159 femto-seconds

     Entering Dynamics:    iteration =     1
                           time      =   0.0010 pico-seconds


ATOMIC_POSITIONS (angstrom)
Hf            0.0858800679       -0.7951436715        7.4532072815    0   0   0
Hf            0.9880709739        1.9014415882        8.3624579711    0   0   0
Nb            1.0746989219        0.1356535858        6.8196389631    0   0   0
Nb            1.6491103981        0.8626804318        9.1943310858    0   0   0
Ta            0.0709744107       -0.7820475991        9.3858007313    0   0   0
Ta            1.9524714937        0.9993933557        7.6598559185    0   0   0
Zr            0.9976274959        1.7451739843        6.6557981874    0   0   0
Zr            2.5198328619        0.2094691683       10.0174953943    0   0   0
Hf            1.9380429646       -0.7197681019        7.5485206618    0   0   0
Hf           -0.6483186390        1.7040463621        8.4530515930    0   0   0
Nb            2.4216282335        1.6043757567        6.4559262597    0   0   0
Nb            0.1475903912        0.9184995235        7.5588298057    0   0   0
Ta            0.9013084356        0.1211212120        8.4106110025    0   0   0
Ta            2.6415926642        3.3452418198        8.4595496119    0   0   0
Zr            1.8442847182        2.6188909264        6.0000000000    0   0   0
Zr            0.1866550429        0.8943516698        9.3828635984    0   0   0
H             4.9970444489        3.9853612687        4.9837826858


     kinetic energy (Ekin) =           0.00285013 Ry
     temperature           =         300.00000000 K 
     Ekin + Etot (const)   =       -1896.40965378 Ry

     File ./pwscf.msd.dat deleted, as requested

     Writing config-only to output data dir ./pwscf.save/
     NEW-OLD atomic charge density approx. for the potential

     Check: negative core charge=   -0.000004

     negative rho (up, down):  1.624E-01 1.624E-01
     Generating pointlists ...

     total cpu time spent up to now is      313.7 secs

     Self-consistent Calculation

     iteration #  1     ecut=   120.00 Ry     beta= 0.70
     Davidson diagonalization with overlap
     ethr =  1.00E-06,  avg # of iterations =  2.0

     Threshold (ethr) on eigenvalues was too large:
     Diagonalizing with lowered threshold

     Davidson diagonalization with overlap
     ethr =  6.72E-08,  avg # of iterations =  1.0

     negative rho (up, down):  1.624E-01 1.624E-01

     total cpu time spent up to now is      331.4 secs

     total energy              =   -1896.41580203 Ry
     estimated scf accuracy    <       0.00013733 Ry

     total magnetization       =    -0.00 Bohr mag/cell
     absolute magnetization    =     0.00 Bohr mag/cell

     iteration #  2     ecut=   120.00 Ry     beta= 0.70
     Davidson diagonalization with overlap
     ethr =  6.83E-08,  avg # of iterations =  2.0

     negative rho (up, down):  1.624E-01 1.624E-01

     total cpu time spent up to now is      340.8 secs

     total energy              =   -1896.41579203 Ry
     estimated scf accuracy    <       0.00005686 Ry

     total magnetization       =    -0.00 Bohr mag/cell
     absolute magnetization    =     0.00 Bohr mag/cell

     iteration #  3     ecut=   120.00 Ry     beta= 0.70
     Davidson diagonalization with overlap
     ethr =  2.83E-08,  avg # of iterations =  2.0

     negative rho (up, down):  1.624E-01 1.624E-01

     total cpu time spent up to now is      350.2 secs

     total energy              =   -1896.41579281 Ry
     estimated scf accuracy    <       0.00002176 Ry

     total magnetization       =    -0.00 Bohr mag/cell
     absolute magnetization    =     0.00 Bohr mag/cell

     iteration #  4     ecut=   120.00 Ry     beta= 0.70
     Davidson diagonalization with overlap
     ethr =  1.08E-08,  avg # of iterations =  1.0

     negative rho (up, down):  1.624E-01 1.624E-01

     total cpu time spent up to now is      358.7 secs

     total energy              =   -1896.41578919 Ry
     estimated scf accuracy    <       0.00001372 Ry

     total magnetization       =    -0.00 Bohr mag/cell
     absolute magnetization    =     0.00 Bohr mag/cell

     iteration #  5     ecut=   120.00 Ry     beta= 0.70
     Davidson diagonalization with overlap
     ethr =  6.82E-09,  avg # of iterations =  2.0

     negative rho (up, down):  1.624E-01 1.624E-01

     total cpu time spent up to now is      368.0 secs

     total energy              =   -1896.41578846 Ry
     estimated scf accuracy    <       0.00000400 Ry

     total magnetization       =     0.00 Bohr mag/cell
     absolute magnetization    =     0.00 Bohr mag/cell

     iteration #  6     ecut=   120.00 Ry     beta= 0.70
     Davidson diagonalization with overlap
     ethr =  1.99E-09,  avg # of iterations =  2.0

     negative rho (up, down):  1.625E-01 1.625E-01

     total cpu time spent up to now is      377.5 secs

     total energy              =   -1896.41578837 Ry
     estimated scf accuracy    <       0.00000198 Ry

     total magnetization       =     0.00 Bohr mag/cell
     absolute magnetization    =     0.00 Bohr mag/cell

     iteration #  7     ecut=   120.00 Ry     beta= 0.70
     Davidson diagonalization with overlap
     ethr =  9.84E-10,  avg # of iterations =  2.0

     negative rho (up, down):  1.625E-01 1.625E-01

     total cpu time spent up to now is      386.9 secs

     total energy              =   -1896.41578876 Ry
     estimated scf accuracy    <       0.00000123 Ry

     total magnetization       =    -0.00 Bohr mag/cell
     absolute magnetization    =     0.00 Bohr mag/cell

     iteration #  8     ecut=   120.00 Ry     beta= 0.70
     Davidson diagonalization with overlap
     ethr =  6.14E-10,  avg # of iterations =  2.0

     negative rho (up, down):  1.624E-01 1.624E-01

     Magnetic moment per site  (integrated on atomic sphere of radius R)
     atom   1 (R=0.160)  charge=  4.5294  magn= -0.0000
     atom   2 (R=0.160)  charge=  4.5752  magn=  0.0000
     atom   3 (R=0.155)  charge=  4.3343  magn= -0.0000
     atom   4 (R=0.155)  charge=  4.4451  magn=  0.0000
     atom   5 (R=0.160)  charge=  4.6785  magn=  0.0000
     atom   6 (R=0.160)  charge=  5.3999  magn=  0.0000
     atom   7 (R=0.155)  charge=  3.6596  magn= -0.0000
     atom   8 (R=0.155)  charge=  3.3140  magn=  0.0000
     atom   9 (R=0.160)  charge=  4.7336  magn=  0.0000
     atom  10 (R=0.160)  charge=  4.7478  magn=  0.0000
     atom  11 (R=0.155)  charge=  4.2645  magn= -0.0000
     atom  12 (R=0.155)  charge=  4.6235  magn=  0.0000
     atom  13 (R=0.160)  charge=  5.3972  magn=  0.0000
     atom  14 (R=0.160)  charge=  5.3503  magn=  0.0000
     atom  15 (R=0.155)  charge=  3.4478  magn= -0.0000
     atom  16 (R=0.155)  charge=  3.6901  magn= -0.0000
     atom  17 (R=0.212)  charge=  1.0419  magn= -0.0000

     total cpu time spent up to now is      396.2 secs

     End of self-consistent calculation

 ------ SPIN UP ------------


          k = 0.0000 0.0000 0.0000 ( 26649 PWs)   bands (ev):

   -88.6894 -77.2102 -74.6772 -73.8050 -71.3196 -66.6047 -63.4936 -60.7618
   -59.5483 -57.3467 -56.9430 -56.3173 -54.2746 -51.8705 -49.0599 -46.4010
   -44.8300 -43.9848 -42.4014 -40.2686 -39.1047 -37.1295 -35.1089 -33.6471
   -31.9924 -30.9730 -30.0322 -28.6029 -27.8401 -26.6878 -26.4956 -24.7125
   -23.7441 -22.5233 -21.7413 -20.8263 -18.8718 -18.7643 -17.4626 -16.7571
   -15.7472 -15.5589 -14.2746 -13.8364 -12.7174 -11.3159 -10.9879 -10.4594
   -10.0572  -8.4269  -7.5503  -7.1932  -6.9838  -6.0636  -5.0854  -4.3934
    -4.1401  -2.7982  -2.2509  -1.5820  -1.1574   0.4546   0.8377   1.7486
     2.4283   2.9228   3.4442   4.9576   5.2640   6.5661   7.1700   7.8918
     8.5766   9.4214   9.8644  10.4353  10.8884  11.1054  12.5000  12.9175
    13.8001  15.0346  15.8078  16.1389  17.9288  18.8825  19.6391  20.4635
    20.8618  21.2973  21.9462  22.4463  23.2813  23.9891  24.1834  24.3026
    25.1755  25.3644  26.0861  26.4170  27.5869  27.8677  27.9684  28.4318
    29.2908  29.6186  30.5720  30.7027  31.0026  31.1590  31.6750  31.8815
    32.3933  33.0086  33.7995  34.0670  34.5660  35.0033  35.1982  35.7397
    36.0847

 ------ SPIN DOWN ----------


          k = 0.0000 0.0000 0.0000 ( 26649 PWs)   bands (ev):

   -88.6894 -77.2102 -74.6772 -73.8050 -71.3196 -66.6047 -63.4936 -60.7618
   -59.5483 -57.3467 -56.9430 -56.3173 -54.2746 -51.8705 -49.0599 -46.4010
   -44.8300 -43.9848 -42.4014 -40.2686 -39.1047 -37.1295 -35.1089 -33.6471
   -31.9924 -30.9730 -30.0322 -28.6029 -27.8401 -26.6878 -26.4956 -24.7125
   -23.7441 -22.5233 -21.7413 -20.8263 -18.8718 -18.7643 -17.4626 -16.7571
   -15.7472 -15.5589 -14.2746 -13.8364 -12.7174 -11.3159 -10.9879 -10.4594
   -10.0572  -8.4269  -7.5503  -7.1932  -6.9838  -6.0636  -5.0854  -4.3934
    -4.1401  -2.7982  -2.2509  -1.5820  -1.1574   0.4546   0.8377   1.7486
     2.4283   2.9228   3.4442   4.9576   5.2640   6.5661   7.1700   7.8918
     8.5766   9.4214   9.8644  10.4353  10.8884  11.1054  12.5000  12.9175
    13.8001  15.0346  15.8078  16.1389  17.9288  18.8825  19.6391  20.4635
    20.8618  21.2973  21.9462  22.4463  23.2813  23.9891  24.1834  24.3026
    25.1755  25.3644  26.0861  26.4170  27.5869  27.8677  27.9684  28.4318
    29.2908  29.6186  30.5720  30.7027  31.0026  31.1590  31.6750  31.8815
    32.3933  33.0086  33.7995  34.0670  34.5660  35.0033  35.1982  35.7397
    36.0847

     the Fermi energy is    27.5420 ev

!    total energy              =   -1896.41579048 Ry
     estimated scf accuracy    <       0.00000089 Ry
     smearing contrib. (-TS)   =      -0.01756859 Ry
     internal energy E=F+TS    =   -1896.39822189 Ry

     total magnetization       =    -0.00 Bohr mag/cell
     absolute magnetization    =     0.00 Bohr mag/cell

     convergence has been achieved in   8 iterations

     negative rho (up, down):  1.624E-01 1.624E-01

     Forces acting on atoms (cartesian axes, Ry/au):

     atom    1 type  1   force =    -1.68782866    2.44580481  -11.28946350
     atom    2 type  1   force =     1.64505275   -0.49417693    8.54551519
     atom    3 type  2   force =    -3.46982431    3.27435130  -12.26605961
     atom    4 type  2   force =     1.19209141    6.85923891   14.76591231
     atom    5 type  3   force =     5.11270990   -4.20903155   16.20771035
     atom    6 type  3   force =    -3.46707625   -4.91424848  -10.88601388
     atom    7 type  4   force =    -6.56261005   -3.55469487   -9.54676338
     atom    8 type  4   force =    -3.78084661   -2.42038833   14.29030218
     atom    9 type  1   force =    -0.44791848    1.70300487   -5.70625814
     atom   10 type  1   force =    -0.22317976    3.31094893   10.93752109
     atom   11 type  2   force =    10.66585270   -8.95437396   -8.45227671
     atom   12 type  2   force =    -2.11906182    0.25117372  -10.26871023
     atom   13 type  3   force =     1.93696281   -6.88965035    2.82818655
     atom   14 type  3   force =    -1.78573335   -0.37117985    4.85711611
     atom   15 type  4   force =     1.15247721    9.05447890  -14.90356220
     atom   16 type  4   force =     1.89203916    4.84212732   11.03988327
     atom   17 type  5   force =    -0.05310665    0.06661555   -0.15303941
     The non-local contrib.  to forces
     atom    1 type  1   force =     1.77270825   -0.89890536    1.31146454
     atom    2 type  1   force =    -0.39497394   -1.43739089   -0.82651324
     atom    3 type  2   force =    -0.31482988    0.38684523   -1.87820036
     atom    4 type  2   force =     0.43740444    0.66946566    2.52717965
     atom    5 type  3   force =    -1.88783068    1.76646046   -4.12361453
     atom    6 type  3   force =     0.98390159    1.80900984    0.76624036
     atom    7 type  4   force =    -1.51970195   -0.20320492   -2.08013774
     atom    8 type  4   force =    -0.52383409   -0.42087142    2.45100645
     atom    9 type  1   force =    -0.91408784    0.56989888    0.03011089
     atom   10 type  1   force =    -0.20032895   -2.25013585   -2.11608002
     atom   11 type  2   force =     1.28916682   -0.68391833   -1.68186705
     atom   12 type  2   force =    -0.30739763    0.16049120   -1.00234213
     atom   13 type  3   force =    -0.19566640    3.25163309    0.76633101
     atom   14 type  3   force =    -0.21402853    0.38194499   -0.54448555
     atom   15 type  4   force =     0.79050249    1.16355493   -2.38551227
     atom   16 type  4   force =     0.57174975    0.59874067    2.09991855
     atom   17 type  5   force =    -0.00406493   -0.00358341    0.05962374
     The ionic contribution  to forces
     atom    1 type  1   force =   -10.66681496   10.79044664 -181.10535694
     atom    2 type  1   force =     9.26593188   13.66299055  139.18129973
     atom    3 type  2   force =   -18.25954856    9.67749844 -381.01216825
     atom    4 type  2   force =    -4.05348228   24.13976113  397.07312803
     atom    5 type  3   force =    17.86057334  -21.69943050  435.97365309
     atom    6 type  3   force =     1.43609078  -13.05254581 -121.32157018
     atom    7 type  4   force =   -33.88077313  -12.26066296 -378.70997276
     atom    8 type  4   force =   -18.94718786  -14.80635554  494.09120356
     atom    9 type  1   force =     8.35676795    8.74679427 -124.45801942
     atom   10 type  1   force =    -6.39900739   19.21759595  163.73810200
     atom   11 type  2   force =    44.56011914  -33.42381471 -447.58712181
     atom   12 type  2   force =   -13.38144709   -5.37710571 -167.07652478
     atom   13 type  3   force =     8.88845215  -26.66411466  145.81994973
     atom   14 type  3   force =    -9.67206539  -15.82906637  151.81280056
     atom   15 type  4   force =    12.76864068   34.55579269 -487.62604086
     atom   16 type  4   force =    12.26767133   22.15215442  400.13231948
     atom   17 type  5   force =    -0.14392059    0.17006218  -38.92568118
     The local contribution  to forces
     atom    1 type  1   force =     7.06271420   -7.29737936  168.02796355
     atom    2 type  1   force =    -7.11495171  -12.62963598 -129.46643143
     atom    3 type  2   force =    15.08875777   -6.76568757  370.51935779
     atom    4 type  2   force =     4.80011300  -17.91982986 -384.71731847
     atom    5 type  3   force =   -10.67316615   15.57044149 -415.07881377
     atom    6 type  3   force =    -5.95669213    6.11833607  109.39467671
     atom    7 type  4   force =    28.73788012    8.87973371  371.12946785
     atom    8 type  4   force =    15.65940541   12.77386479 -482.09695146
     atom    9 type  1   force =    -7.85440833   -7.47130670  118.61391478
     atom   10 type  1   force =     6.28918724  -13.49457045 -150.24492511
     atom   11 type  2   force =   -35.08581135   25.05622536  440.73169038
     atom   12 type  2   force =    11.55145502    5.46686604  157.76213953
     atom   13 type  3   force =    -6.68181310   16.31010221 -143.69784641
     atom   14 type  3   force =     7.99525268   15.04528798 -146.30802827
     atom   15 type  4   force =   -12.37954237  -26.54923116  474.93691000
     atom   16 type  4   force =   -10.90153270  -17.86251837 -391.07814754
     atom   17 type  5   force =     0.09488009   -0.09987982   38.71301331
     The core correction contribution to forces
     atom    1 type  1   force =     0.14356033   -0.14834529    0.47673619
     atom    2 type  1   force =    -0.11096792   -0.09015588   -0.34243714
     atom    3 type  2   force =     0.01581527   -0.02431001    0.10502635
     atom    4 type  2   force =     0.00805741   -0.03014645   -0.11653192
     atom    5 type  3   force =    -0.18687512    0.15350667   -0.56294326
     atom    6 type  3   force =     0.06960736    0.21094427    0.27502053
     atom    7 type  4   force =     0.09999563    0.02944783    0.11396247
     atom    8 type  4   force =     0.03077310    0.03296027   -0.15442118
     atom    9 type  1   force =    -0.03618000   -0.14237463    0.10802446
     atom   10 type  1   force =     0.08698043   -0.16194545   -0.43914663
     atom   11 type  2   force =    -0.09764901    0.09713364    0.08502060
     atom   12 type  2   force =     0.01834178    0.00091567    0.04838774
     atom   13 type  3   force =    -0.07402997    0.21274760   -0.05975170
     atom   14 type  3   force =     0.10513238    0.03065974   -0.10266958
     atom   15 type  4   force =    -0.02713199   -0.11554190    0.17083336
     atom   16 type  4   force =    -0.04586284   -0.04625773   -0.11370882
     atom   17 type  5   force =     0.00000000    0.00000000    0.00000000
     The Hubbard contrib.    to forces
     atom    1 type  1   force =     0.00000000    0.00000000    0.00000000
     atom    2 type  1   force =     0.00000000    0.00000000    0.00000000
     atom    3 type  2   force =     0.00000000    0.00000000    0.00000000
     atom    4 type  2   force =     0.00000000    0.00000000    0.00000000
     atom    5 type  3   force =     0.00000000    0.00000000    0.00000000
     atom    6 type  3   force =     0.00000000    0.00000000    0.00000000
     atom    7 type  4   force =     0.00000000    0.00000000    0.00000000
     atom    8 type  4   force =     0.00000000    0.00000000    0.00000000
     atom    9 type  1   force =     0.00000000    0.00000000    0.00000000
     atom   10 type  1   force =     0.00000000    0.00000000    0.00000000
     atom   11 type  2   force =     0.00000000    0.00000000    0.00000000
     atom   12 type  2   force =     0.00000000    0.00000000    0.00000000
     atom   13 type  3   force =     0.00000000    0.00000000    0.00000000
     atom   14 type  3   force =     0.00000000    0.00000000    0.00000000
     atom   15 type  4   force =     0.00000000    0.00000000    0.00000000
     atom   16 type  4   force =     0.00000000    0.00000000    0.00000000
     atom   17 type  5   force =     0.00000000    0.00000000    0.00000000
     The SCF correction term to forces
     atom    1 type  1   force =     0.00000000   -0.00000000   -0.00000000
     atom    2 type  1   force =     0.00000000    0.00000000   -0.00000000
     atom    3 type  2   force =    -0.00000000    0.00000000    0.00000000
     atom    4 type  2   force =    -0.00000000   -0.00000000   -0.00000000
     atom    5 type  3   force =     0.00000000   -0.00000000   -0.00000000
     atom    6 type  3   force =     0.00000000    0.00000000   -0.00000000
     atom    7 type  4   force =    -0.00000000   -0.00000000    0.00000000
     atom    8 type  4   force =    -0.00000000    0.00000000   -0.00000000
     atom    9 type  1   force =    -0.00000000   -0.00000000   -0.00000000
     atom   10 type  1   force =    -0.00000000    0.00000000   -0.00000000
     atom   11 type  2   force =     0.00000000    0.00000000    0.00000000
     atom   12 type  2   force =    -0.00000000    0.00000000   -0.00000000
     atom   13 type  3   force =     0.00000000   -0.00000000   -0.00000000
     atom   14 type  3   force =    -0.00000000   -0.00000000   -0.00000000
     atom   15 type  4   force =     0.00000000   -0.00000000    0.00000000
     atom   16 type  4   force =     0.00000000    0.00000000   -0.00000000
     atom   17 type  5   force =    -0.00000245    0.00001674    0.00009205

     Total force =     0.175154     Total SCF correction =     0.000094

     Entering Dynamics:    iteration =     2
                           time      =   0.0020 pico-seconds


ATOMIC_POSITIONS (angstrom)
Hf            0.0858800679       -0.7951436715        7.4532072815    0   0   0
Hf            0.9880709739        1.9014415882        8.3624579711    0   0   0
Nb            1.0746989219        0.1356535858        6.8196389631    0   0   0
Nb            1.6491103981        0.8626804318        9.1943310858    0   0   0
Ta            0.0709744107       -0.7820475991        9.3858007313    0   0   0
Ta            1.9524714937        0.9993933557        7.6598559185    0   0   0
Zr            0.9976274959        1.7451739843        6.6557981874    0   0   0
Zr            2.5198328619        0.2094691683       10.0174953943    0   0   0
Hf            1.9380429646       -0.7197681019        7.5485206618    0   0   0
Hf           -0.6483186390        1.7040463621        8.4530515930    0   0   0
Nb            2.4216282335        1.6043757567        6.4559262597    0   0   0
Nb            0.1475903912        0.9184995235        7.5588298057    0   0   0
Ta            0.9013084356        0.1211212120        8.4106110025    0   0   0
Ta            2.6415926642        3.3452418198        8.4595496119    0   0   0
Zr            1.8442847182        2.6188909264        6.0000000000    0   0   0
Zr            0.1866550429        0.8943516698        9.3828635984    0   0   0
H             4.9873374169        3.9791914132        4.9481093766


     kinetic energy (Ekin) =           0.00610552 Ry
     temperature           =         642.65741162 K 
     Ekin + Etot (const)   =       -1896.40968495 Ry

     Writing config-only to output data dir ./pwscf.save/
     NEW-OLD atomic charge density approx. for the potential

     Check: negative core charge=   -0.000004

     negative rho (up, down):  1.624E-01 1.624E-01
     Generating pointlists ...

     total cpu time spent up to now is      402.9 secs

     Self-consistent Calculation

     iteration #  1     ecut=   120.00 Ry     beta= 0.70
     Davidson diagonalization with overlap
     ethr =  1.00E-06,  avg # of iterations =  3.0

     negative rho (up, down):  1.623E-01 1.623E-01

     total cpu time spent up to now is      413.8 secs

     total energy              =   -1896.42586282 Ry
     estimated scf accuracy    <       0.00030635 Ry

     total magnetization       =    -0.00 Bohr mag/cell
     absolute magnetization    =     0.00 Bohr mag/cell

     iteration #  2     ecut=   120.00 Ry     beta= 0.70
     Davidson diagonalization with overlap
     ethr =  1.52E-07,  avg # of iterations =  2.0

     negative rho (up, down):  1.623E-01 1.623E-01

     total cpu time spent up to now is      423.1 secs

     total energy              =   -1896.42584982 Ry
     estimated scf accuracy    <       0.00008528 Ry

     total magnetization       =    -0.00 Bohr mag/cell
     absolute magnetization    =     0.00 Bohr mag/cell

     iteration #  3     ecut=   120.00 Ry     beta= 0.70
     Davidson diagonalization with overlap
     ethr =  4.24E-08,  avg # of iterations =  2.0

     negative rho (up, down):  1.623E-01 1.623E-01

     total cpu time spent up to now is      432.5 secs

     total energy              =   -1896.42585063 Ry
     estimated scf accuracy    <       0.00003136 Ry

     total magnetization       =    -0.00 Bohr mag/cell
     absolute magnetization    =     0.00 Bohr mag/cell

     iteration #  4     ecut=   120.00 Ry     beta= 0.70
     Davidson diagonalization with overlap
     ethr =  1.56E-08,  avg # of iterations =  1.0

     negative rho (up, down):  1.624E-01 1.624E-01

     total cpu time spent up to now is      440.9 secs

     total energy              =   -1896.42584741 Ry
     estimated scf accuracy    <       0.00001726 Ry

     total magnetization       =    -0.00 Bohr mag/cell
     absolute magnetization    =     0.00 Bohr mag/cell

     iteration #  5     ecut=   120.00 Ry     beta= 0.70
     Davidson diagonalization with overlap
     ethr =  8.59E-09,  avg # of iterations =  2.0

     negative rho (up, down):  1.624E-01 1.624E-01

     total cpu time spent up to now is      450.0 secs

     total energy              =   -1896.42584432 Ry
     estimated scf accuracy    <       0.00000828 Ry

     total magnetization       =     0.00 Bohr mag/cell
     absolute magnetization    =     0.00 Bohr mag/cell

     iteration #  6     ecut=   120.00 Ry     beta= 0.70
     Davidson diagonalization with overlap
     ethr =  4.12E-09,  avg # of iterations =  2.0

     negative rho (up, down):  1.624E-01 1.624E-01

     total cpu time spent up to now is      459.4 secs

     total energy              =   -1896.42584417 Ry
     estimated scf accuracy    <       0.00000292 Ry

     total magnetization       =     0.00 Bohr mag/cell
     absolute magnetization    =     0.00 Bohr mag/cell

     iteration #  7     ecut=   120.00 Ry     beta= 0.70
     Davidson diagonalization with overlap
     ethr =  1.45E-09,  avg # of iterations =  2.0

     negative rho (up, down):  1.625E-01 1.625E-01

     total cpu time spent up to now is      468.8 secs

     total energy              =   -1896.42584480 Ry
     estimated scf accuracy    <       0.00000178 Ry

     total magnetization       =     0.00 Bohr mag/cell
     absolute magnetization    =     0.00 Bohr mag/cell

     iteration #  8     ecut=   120.00 Ry     beta= 0.70
     Davidson diagonalization with overlap
     ethr =  8.88E-10,  avg # of iterations =  2.0

     negative rho (up, down):  1.625E-01 1.625E-01

     total cpu time spent up to now is      478.1 secs

     total energy              =   -1896.42584622 Ry
     estimated scf accuracy    <       0.00000105 Ry

     total magnetization       =    -0.00 Bohr mag/cell
     absolute magnetization    =     0.00 Bohr mag/cell

     iteration #  9     ecut=   120.00 Ry     beta= 0.70
     Davidson diagonalization with overlap
     ethr =  5.22E-10,  avg # of iterations =  2.0

     negative rho (up, down):  1.623E-01 1.623E-01

     Magnetic moment per site  (integrated on atomic sphere of radius R)
     atom   1 (R=0.160)  charge=  4.5293  magn=  0.0000
     atom   2 (R=0.160)  charge=  4.5752  magn= -0.0000
     atom   3 (R=0.155)  charge=  4.3341  magn= -0.0000
     atom   4 (R=0.155)  charge=  4.4450  magn= -0.0000
     atom   5 (R=0.160)  charge=  4.6786  magn=  0.0000
     atom   6 (R=0.160)  charge=  5.3998  magn=  0.0000
     atom   7 (R=0.155)  charge=  3.6594  magn= -0.0000
     atom   8 (R=0.155)  charge=  3.3139  magn= -0.0000
     atom   9 (R=0.160)  charge=  4.7334  magn= -0.0000
     atom  10 (R=0.160)  charge=  4.7478  magn=  0.0000
     atom  11 (R=0.155)  charge=  4.2641  magn=  0.0000
     atom  12 (R=0.155)  charge=  4.6236  magn=  0.0000
     atom  13 (R=0.160)  charge=  5.3972  magn= -0.0000
     atom  14 (R=0.160)  charge=  5.3502  magn=  0.0000
     atom  15 (R=0.155)  charge=  3.4475  magn=  0.0000
     atom  16 (R=0.155)  charge=  3.6901  magn=  0.0000
     atom  17 (R=0.212)  charge=  1.0125  magn= -0.0000

     total cpu time spent up to now is      487.6 secs

     End of self-consistent calculation

 ------ SPIN UP ------------


          k = 0.0000 0.0000 0.0000 ( 26649 PWs)   bands (ev):

   -88.7076 -77.2283 -74.6942 -73.8213 -71.3371 -66.6209 -63.5103 -60.7785
   -59.5653 -57.3636 -56.9591 -56.3338 -54.2914 -51.8874 -49.0764 -46.4182
   -44.8463 -44.0009 -42.4175 -40.2853 -39.1215 -37.1468 -35.1259 -33.6633
   -32.0084 -30.9894 -30.0483 -28.6194 -27.8571 -26.7048 -26.5114 -24.7290
   -23.7608 -22.5397 -21.7583 -20.8429 -18.8880 -18.7811 -17.4791 -16.7724
   -15.7630 -15.5754 -14.2912 -13.8522 -12.7329 -11.3319 -11.0046 -10.4757
   -10.0736  -8.4438  -7.5656  -7.2093  -6.9992  -6.0803  -5.1000  -4.4096
    -4.1568  -2.8142  -2.2677  -1.5982  -1.1731   0.4387   0.8212   1.7324
     2.4132   2.9082   3.4276   4.9413   5.2481   6.5507   7.1536   7.8753
     8.5607   9.4061   9.8485  10.4211  10.8818  11.0896  12.4838  12.9021
    13.7842  15.0420  15.7921  16.1280  17.9374  18.8680  19.6272  20.4553
    20.8538  21.2738  21.9367  22.4287  23.2641  23.9693  24.1691  24.2882
    25.1601  25.3506  26.0675  26.3900  27.5761  27.8523  27.9533  28.4040
    29.2875  29.6017  30.5815  30.6917  30.9926  31.1509  31.6600  31.8585
    32.3953  33.0133  33.7831  34.0460  34.5436  34.9718  35.1793  35.7303
    36.0671

 ------ SPIN DOWN ----------


          k = 0.0000 0.0000 0.0000 ( 26649 PWs)   bands (ev):

   -88.7076 -77.2283 -74.6942 -73.8213 -71.3371 -66.6209 -63.5103 -60.7785
   -59.5653 -57.3636 -56.9591 -56.3338 -54.2914 -51.8874 -49.0764 -46.4182
   -44.8463 -44.0009 -42.4175 -40.2853 -39.1215 -37.1468 -35.1259 -33.6633
   -32.0084 -30.9894 -30.0483 -28.6194 -27.8571 -26.7048 -26.5114 -24.7290
   -23.7608 -22.5397 -21.7583 -20.8429 -18.8880 -18.7811 -17.4791 -16.7724
   -15.7630 -15.5754 -14.2912 -13.8522 -12.7329 -11.3319 -11.0046 -10.4757
   -10.0736  -8.4438  -7.5656  -7.2093  -6.9992  -6.0803  -5.1000  -4.4096
    -4.1568  -2.8142  -2.2677  -1.5982  -1.1731   0.4387   0.8212   1.7324
     2.4132   2.9082   3.4276   4.9413   5.2481   6.5507   7.1536   7.8753
     8.5607   9.4061   9.8485  10.4211  10.8818  11.0896  12.4838  12.9021
    13.7842  15.0420  15.7921  16.1280  17.9374  18.8680  19.6272  20.4553
    20.8538  21.2738  21.9367  22.4287  23.2641  23.9693  24.1691  24.2882
    25.1601  25.3506  26.0675  26.3900  27.5761  27.8523  27.9533  28.4040
    29.2875  29.6017  30.5815  30.6917  30.9926  31.1509  31.6600  31.8585
    32.3953  33.0133  33.7831  34.0460  34.5436  34.9718  35.1793  35.7303
    36.0671

     the Fermi energy is    27.5298 ev

!    total energy              =   -1896.42584767 Ry
     estimated scf accuracy    <       0.00000066 Ry
     smearing contrib. (-TS)   =      -0.01768739 Ry
     internal energy E=F+TS    =   -1896.40816028 Ry

     total magnetization       =    -0.00 Bohr mag/cell
     absolute magnetization    =     0.00 Bohr mag/cell

     convergence has been achieved in   9 iterations

     negative rho (up, down):  1.623E-01 1.623E-01

     Forces acting on atoms (cartesian axes, Ry/au):

     atom    1 type  1   force =    -1.68681032    2.44709188  -11.28705442
     atom    2 type  1   force =     1.64527180   -0.49284451    8.54556915
     atom    3 type  2   force =    -3.47058455    3.27365456  -12.26909858
     atom    4 type  2   force =     1.19062179    6.85894071   14.76306908
     atom    5 type  3   force =     5.11107196   -4.21080001   16.20821852
     atom    6 type  3   force =    -3.46787153   -4.91684146  -10.88744021
     atom    7 type  4   force =    -6.56294256   -3.55390353   -9.54729354
     atom    8 type  4   force =    -3.78051979   -2.42104244   14.28792553
     atom    9 type  1   force =    -0.45028563    1.70160808   -5.70290897
     atom   10 type  1   force =    -0.22329375    3.31328714   10.93670841
     atom   11 type  2   force =    10.66306200   -8.95608399   -8.45905863
     atom   12 type  2   force =    -2.11712488    0.25118530  -10.26935178
     atom   13 type  3   force =     1.93794471   -6.89104617    2.82642710
     atom   14 type  3   force =    -1.78463441   -0.37009573    4.85636261
     atom   15 type  4   force =     1.15410840    9.05972739  -14.90268918
     atom   16 type  4   force =     1.89285943    4.84091330   11.04100909
     atom   17 type  5   force =    -0.05087268    0.06624950   -0.14039420
     The non-local contrib.  to forces
     atom    1 type  1   force =     1.77208217   -0.89770364    1.31315420
     atom    2 type  1   force =    -0.39400643   -1.43682222   -0.82630494
     atom    3 type  2   force =    -0.31530186    0.38886926   -1.88092016
     atom    4 type  2   force =     0.43820507    0.67154253    2.52528059
     atom    5 type  3   force =    -1.88882729    1.76431725   -4.12238171
     atom    6 type  3   force =     0.98418234    1.80676286    0.76540821
     atom    7 type  4   force =    -1.52129574   -0.20056097   -2.08231680
     atom    8 type  4   force =    -0.52411117   -0.42091999    2.45008665
     atom    9 type  1   force =    -0.91440356    0.56904025    0.03351321
     atom   10 type  1   force =    -0.20162316   -2.24911233   -2.11769729
     atom   11 type  2   force =     1.28898830   -0.69157650   -1.69024970
     atom   12 type  2   force =    -0.30628827    0.15810960   -1.00162694
     atom   13 type  3   force =    -0.19444736    3.25087828    0.76468730
     atom   14 type  3   force =    -0.21396508    0.38303103   -0.54640633
     atom   15 type  4   force =     0.79072717    1.16589527   -2.38388770
     atom   16 type  4   force =     0.57056300    0.59977906    2.09972218
     atom   17 type  5   force =    -0.00364927   -0.00318971    0.05744527
     The ionic contribution  to forces
     atom    1 type  1   force =   -10.66718113   10.79125786 -181.11463881
     atom    2 type  1   force =     9.26673779   13.66227811  139.16491149
     atom    3 type  2   force =   -18.23801832    9.69589716 -381.04099258
     atom    4 type  2   force =    -4.05342589   24.13970960  397.05445892
     atom    5 type  3   force =    17.86055966  -21.69939427  435.95564546
     atom    6 type  3   force =     1.43469424  -13.05473614 -121.34739590
     atom    7 type  4   force =   -33.86342516  -12.28052949 -378.71869290
     atom    8 type  4   force =   -18.94722724  -14.80632332  494.07431329
     atom    9 type  1   force =     8.35598669    8.74876705 -124.47393683
     atom   10 type  1   force =    -6.39971713   19.21690975  163.72151159
     atom   11 type  2   force =    44.53109849  -33.46046130 -447.60756988
     atom   12 type  2   force =   -13.38114532   -5.37814014 -167.09309399
     atom   13 type  3   force =     8.88937568  -26.66333215  145.80143940
     atom   14 type  3   force =    -9.67288828  -15.82831089  151.79440298
     atom   15 type  4   force =    12.76998648   34.58547510 -487.59449278
     atom   16 type  4   force =    12.26768824   22.15211935  400.11547676
     atom   17 type  5   force =    -0.15309881    0.17881373  -38.69134623
     The local contribution  to forces
     atom    1 type  1   force =     7.06474631   -7.29837249  168.03778529
     atom    2 type  1   force =    -7.11628550  -12.62828383 -129.45021701
     atom    3 type  2   force =    15.06699562   -6.78676752  370.54782850
     atom    4 type  2   force =     4.79785556  -17.92209696 -384.69962402
     atom    5 type  3   force =   -10.67374844   15.57081342 -415.06172803
     atom    6 type  3   force =    -5.95615452    6.12054955  109.41986962
     atom    7 type  4   force =    28.72182165    8.89791943  371.13984728
     atom    8 type  4   force =    15.65999931   12.77320314 -482.08143824
     atom    9 type  1   force =    -7.85506725   -7.47348130  118.62991966
     atom   10 type  1   force =     6.29107135  -13.49283103 -150.22774920
     atom   11 type  2   force =   -35.05947400   25.09854476  440.75358300
     atom   12 type  2   force =    11.55199849    5.47021260  157.77727902
     atom   13 type  3   force =    -6.68286974   16.30860134 -143.67955849
     atom   14 type  3   force =     7.99684085   15.04446650 -146.28851732
     atom   15 type  4   force =   -12.37949427  -26.57599374  474.90490045
     atom   16 type  4   force =   -10.89958880  -17.86469503 -391.06001079
     atom   17 type  5   force =     0.10587046   -0.10938096   38.49350919
     The core correction contribution to forces
     atom    1 type  1   force =     0.14357309   -0.14810979    0.47686684
     atom    2 type  1   force =    -0.11117255   -0.09000252   -0.34256329
     atom    3 type  2   force =     0.01582189   -0.02442349    0.10511406
     atom    4 type  2   force =     0.00800501   -0.03024466   -0.11652662
     atom    5 type  3   force =    -0.18690634    0.15346602   -0.56278624
     atom    6 type  3   force =     0.06937805    0.21059745    0.27492281
     atom    7 type  4   force =     0.10006195    0.02932020    0.11401471
     atom    8 type  4   force =     0.03076652    0.03300052   -0.15443114
     atom    9 type  1   force =    -0.03686405   -0.14274545    0.10772837
     atom   10 type  1   force =     0.08696500   -0.16168475   -0.43908321
     atom   11 type  2   force =    -0.09769546    0.09749721    0.08533198
     atom   12 type  2   force =     0.01831331    0.00102076    0.04835863
     atom   13 type  3   force =    -0.07407805    0.21279188   -0.05979074
     atom   14 type  3   force =     0.10535306    0.03074279   -0.10272731
     atom   15 type  4   force =    -0.02715046   -0.11561509    0.17073155
     atom   16 type  4   force =    -0.04579917   -0.04630068   -0.11368181
     atom   17 type  5   force =     0.00000000    0.00000000    0.00000000
     The Hubbard contrib.    to forces
     atom    1 type  1   force =     0.00000000    0.00000000    0.00000000
     atom    2 type  1   force =     0.00000000    0.00000000    0.00000000
     atom    3 type  2   force =     0.00000000    0.00000000    0.00000000
     atom    4 type  2   force =     0.00000000    0.00000000    0.00000000
     atom    5 type  3   force =     0.00000000    0.00000000    0.00000000
     atom    6 type  3   force =     0.00000000    0.00000000    0.00000000
     atom    7 type  4   force =     0.00000000    0.00000000    0.00000000
     atom    8 type  4   force =     0.00000000    0.00000000    0.00000000
     atom    9 type  1   force =     0.00000000    0.00000000    0.00000000
     atom   10 type  1   force =     0.00000000    0.00000000    0.00000000
     atom   11 type  2   force =     0.00000000    0.00000000    0.00000000
     atom   12 type  2   force =     0.00000000    0.00000000    0.00000000
     atom   13 type  3   force =     0.00000000    0.00000000    0.00000000
     atom   14 type  3   force =     0.00000000    0.00000000    0.00000000
     atom   15 type  4   force =     0.00000000    0.00000000    0.00000000
     atom   16 type  4   force =     0.00000000    0.00000000    0.00000000
     atom   17 type  5   force =     0.00000000    0.00000000    0.00000000
     The SCF correction term to forces
     atom    1 type  1   force =    -0.00000000    0.00000000   -0.00000000
     atom    2 type  1   force =    -0.00000000   -0.00000000   -0.00000000
     atom    3 type  2   force =    -0.00000000    0.00000000   -0.00000000
     atom    4 type  2   force =    -0.00000000    0.00000000   -0.00000000
     atom    5 type  3   force =    -0.00000000   -0.00000000   -0.00000000
     atom    6 type  3   force =     0.00000000   -0.00000000   -0.00000000
     atom    7 type  4   force =    -0.00000000   -0.00000000   -0.00000000
     atom    8 type  4   force =     0.00000000   -0.00000000   -0.00000000
     atom    9 type  1   force =     0.00000000    0.00000000   -0.00000000
     atom   10 type  1   force =     0.00000000    0.00000000   -0.00000000
     atom   11 type  2   force =     0.00000000   -0.00000000   -0.00000000
     atom   12 type  2   force =    -0.00000000   -0.00000000   -0.00000000
     atom   13 type  3   force =    -0.00000000    0.00000000   -0.00000000
     atom   14 type  3   force =     0.00000000   -0.00000000   -0.00000000
     atom   15 type  4   force =     0.00000000   -0.00000000    0.00000000
     atom   16 type  4   force =    -0.00000000    0.00000000   -0.00000000
     atom   17 type  5   force =     0.00000275    0.00000607    0.00006825

     Total force =     0.163363     Total SCF correction =     0.000069

     Entering Dynamics:    iteration =     3
                           time      =   0.0030 pico-seconds


ATOMIC_POSITIONS (angstrom)
Hf            0.0858800679       -0.7951436715        7.4532072815    0   0   0
Hf            0.9880709739        1.9014415882        8.3624579711    0   0   0
Nb            1.0746989219        0.1356535858        6.8196389631    0   0   0
Nb            1.6491103981        0.8626804318        9.1943310858    0   0   0
Ta            0.0709744107       -0.7820475991        9.3858007313    0   0   0
Ta            1.9524714937        0.9993933557        7.6598559185    0   0   0
Zr            0.9976274959        1.7451739843        6.6557981874    0   0   0
Zr            2.5198328619        0.2094691683       10.0174953943    0   0   0
Hf            1.9380429646       -0.7197681019        7.5485206618    0   0   0
Hf           -0.6483186390        1.7040463621        8.4530515930    0   0   0
Nb            2.4216282335        1.6043757567        6.4559262597    0   0   0
Nb            0.1475903912        0.9184995235        7.5588298057    0   0   0
Ta            0.9013084356        0.1211212120        8.4106110025    0   0   0
Ta            2.6415926642        3.3452418198        8.4595496119    0   0   0
Zr            1.8442847182        2.6188909264        6.0000000000    0   0   0
Zr            0.1866550429        0.8943516698        9.3828635984    0   0   0
H             4.9711629099        3.9814438976        4.8945876669


     kinetic energy (Ekin) =           0.01605537 Ry
     temperature           =        1689.96149231 K 
     Ekin + Etot (const)   =       -1896.40979230 Ry

     The maximum number of steps has been reached.

     End of molecular dynamics calculation

     diffusion coefficients :
     atom     1   D =       0.00000000 cm^2/s
     atom     2   D =       0.00000000 cm^2/s
     atom     3   D =       0.00000000 cm^2/s
     atom     4   D =       0.00000000 cm^2/s
     atom     5   D =       0.00000000 cm^2/s
     atom     6   D =       0.00000000 cm^2/s
     atom     7   D =       0.00000000 cm^2/s
     atom     8   D =       0.00000000 cm^2/s
     atom     9   D =       0.00000000 cm^2/s
     atom    10   D =       0.00000000 cm^2/s
     atom    11   D =       0.00000000 cm^2/s
     atom    12   D =       0.00000000 cm^2/s
     atom    13   D =       0.00000000 cm^2/s
     atom    14   D =       0.00000000 cm^2/s
     atom    15   D =       0.00000000 cm^2/s
     atom    16   D =       0.00000000 cm^2/s
     atom    17   D =       0.00006719 cm^2/s

     < D > =       0.00006719 cm^2/s

     Writing all to output data dir ./pwscf.save/

     init_run     :      6.83s CPU      7.08s WALL (       1 calls)
     electrons    :    452.70s CPU    466.53s WALL (       3 calls)
     update_pot   :      1.97s CPU      1.97s WALL (       2 calls)
     forces       :     13.95s CPU     14.27s WALL (       3 calls)

     Called by init_run:
     wfcinit      :      4.70s CPU      4.81s WALL (       1 calls)
     potinit      :      0.40s CPU      0.42s WALL (       1 calls)
     hinit0       :      0.89s CPU      0.92s WALL (       1 calls)

     Called by electrons:
     c_bands      :    333.21s CPU    337.65s WALL (      46 calls)
     sum_band     :     80.26s CPU     85.58s WALL (      46 calls)
     v_of_rho     :      2.61s CPU      2.70s WALL (      48 calls)
     newd         :     38.39s CPU     42.55s WALL (      48 calls)
     mix_rho      :      0.63s CPU      0.65s WALL (      46 calls)

     Called by c_bands:
     init_us_2    :      0.82s CPU      0.84s WALL (     192 calls)
     init_us_2:cp :      0.82s CPU      0.84s WALL (     192 calls)
     cegterg      :    328.07s CPU    332.45s WALL (      92 calls)

     Called by *egterg:
     cdiaghg      :     15.35s CPU     15.39s WALL (     388 calls)
     h_psi        :    139.83s CPU    143.43s WALL (     396 calls)
     s_psi        :     48.97s CPU     49.09s WALL (     396 calls)
     g_psi        :      0.14s CPU      0.15s WALL (     302 calls)

     Called by h_psi:
     h_psi:calbec :     54.25s CPU     54.47s WALL (     396 calls)
     vloc_psi     :     36.42s CPU     39.47s WALL (     396 calls)
     add_vuspsi   :     48.88s CPU     49.01s WALL (     396 calls)

     General routines
     calbec       :     84.70s CPU     85.00s WALL (     512 calls)
     fft          :      3.65s CPU      3.74s WALL (    1063 calls)
     ffts         :      0.12s CPU      0.12s WALL (      92 calls)
     fftw         :     41.57s CPU     45.09s WALL (   61028 calls)

     Parallel routines

     PWSCF        :   7m57.79s CPU   8m12.62s WALL


   This run was terminated on:   4: 2:53  18May2023            

=------------------------------------------------------------------------------=
   JOB DONE.
=------------------------------------------------------------------------------=
