
     Program PWSCF v.7.2 starts on 29May2023 at 22:55:24 

     This program is part of the open-source Quantum ESPRESSO suite
     for quantum simulation of materials; please cite
         "P. Giannozzi et al., J. Phys.:Condens. Matter 21 395502 (2009);
         "P. Giannozzi et al., J. Phys.:Condens. Matter 29 465901 (2017);
         "P. Giannozzi et al., J. Chem. Phys. 152 154105 (2020);
          URL http://www.quantum-espresso.org", 
     in publications or presentations arising from this work. More details at
     http://www.quantum-espresso.org/quote

     Parallel version (MPI), running on    12 processors

     MPI processes distributed on     1 nodes
     72624 MiB available memory on the printing compute node when the environment starts

     Reading input from HfNbTaZr_random_lattice_32_relax.in
Warning: card &CELL ignored
Warning: card / ignored

     Current dimensions of program PWSCF are:
     Max number of different atomic species (ntypx) = 10
     Max number of k-points (npk) =  40000
     Max angular momentum in pseudopotentials (lmaxx) =  4
     Found identity + (  0.0000  0.3333  0.0000) symmetry
     This is a supercell, fractional translations are disabled

     R & G space division:  proc/nbgrp/npool/nimage =      12
     Subspace diagonalization in iterative solution of the eigenvalue problem:
     one sub-group per band group will be used
     custom distributed-memory algorithm (size of sub-group:  3*  3 procs)


     Parallelization info
     --------------------
     sticks:   dense  smooth     PW     G-vecs:    dense   smooth      PW
     Min        2755    1378    345               125681    44419    5557
     Max        2757    1380    346               125682    44420    5558
     Sum       33081   16541   4149              1508173   533037   66693

     Using Slab Decomposition



     bravais-lattice index     =            0
     lattice parameter (alat)  =      20.8059  a.u.
     unit-cell volume          =    3002.1840 (a.u.)^3
     number of atoms/cell      =           36
     number of atomic types    =            4
     number of electrons       =       450.00
     number of Kohn-Sham states=          270
     kinetic-energy cutoff     =     120.0000  Ry
     charge density cutoff     =     960.0000  Ry
     scf convergence threshold =      1.0E-06
     mixing beta               =       0.7000
     number of iterations used =            8  plain     mixing
     energy convergence thresh.=      1.0E-04
     force convergence thresh. =      1.0E-03
     Exchange-correlation= SLA  PW   PBE  PBE
                           (   1   4   3   4   0   0   0)
     nstep                     =           50


     celldm(1)=  20.805885  celldm(2)=   0.000000  celldm(3)=   0.000000
     celldm(4)=   0.000000  celldm(5)=   0.000000  celldm(6)=   0.000000

     crystal axes: (cart. coord. in units of alat)
               a(1) = (   1.000000   0.000000   0.000000 )  
               a(2) = (   0.000000   1.000000   0.000000 )  
               a(3) = (   0.000000   0.000000   0.333333 )  

     reciprocal axes: (cart. coord. in units 2 pi/alat)
               b(1) = (  1.000000  0.000000  0.000000 )  
               b(2) = (  0.000000  1.000000  0.000000 )  
               b(3) = (  0.000000  0.000000  3.000000 )  


     PseudoPot. # 1 for Hf read from file:
     q-e/pseudo/hf_pbe_v1.uspp.F.UPF
     MD5 check sum: 8ee9378dfe14276e333edf04c5e4aa26
     Pseudo is Ultrasoft + core correction, Zval = 12.0
     Generated by new atomic code, or converted to UPF format
     Using radial grid of  921 points,  8 beta functions with: 
                l(1) =   0
                l(2) =   0
                l(3) =   0
                l(4) =   1
                l(5) =   1
                l(6) =   2
                l(7) =   2
                l(8) =   3
     Q(r) pseudized with  6 coefficients,  rinner =    1.200   1.200   1.200
                                                       1.200   1.200   1.200
                                                       1.200

     PseudoPot. # 2 for Nb read from file:
     q-e/pseudo/nb_pbe_v1.uspp.F.UPF
     MD5 check sum: 573aab8a2fa660278ed4a62cd769473f
     Pseudo is Ultrasoft + core correction, Zval = 13.0
     Generated by new atomic code, or converted to UPF format
     Using radial grid of  887 points,  6 beta functions with: 
                l(1) =   0
                l(2) =   0
                l(3) =   1
                l(4) =   1
                l(5) =   2
                l(6) =   2
     Q(r) pseudized with  6 coefficients,  rinner =    1.000   1.000   1.000
                                                       1.000   1.000

     PseudoPot. # 3 for Ta read from file:
     q-e/pseudo/ta_pbe_v1.uspp.F.UPF
     MD5 check sum: f8bbe9446314a3b8ea5d9f3e3836c939
     Pseudo is Ultrasoft + core correction, Zval = 13.0
     Generated by new atomic code, or converted to UPF format
     Using radial grid of  921 points,  7 beta functions with: 
                l(1) =   0
                l(2) =   0
                l(3) =   1
                l(4) =   1
                l(5) =   2
                l(6) =   2
                l(7) =   3
     Q(r) pseudized with  6 coefficients,  rinner =    1.300   1.300   1.300
                                                       1.300   1.300   1.300
                                                       1.300

     PseudoPot. # 4 for Zr read from file:
     q-e/pseudo/zr_pbe_v1.uspp.F.UPF
     MD5 check sum: 5db81b1e868ab7776c4564c113de050b
     Pseudo is Ultrasoft + core correction, Zval = 12.0
     Generated by new atomic code, or converted to UPF format
     Using radial grid of  887 points,  6 beta functions with: 
                l(1) =   0
                l(2) =   0
                l(3) =   1
                l(4) =   1
                l(5) =   2
                l(6) =   2
     Q(r) pseudized with  6 coefficients,  rinner =    1.200   1.200   1.200
                                                       1.200   1.200

     atomic species   valence    mass     pseudopotential
        Hf            12.00   178.49000     Hf( 1.00)
        Nb            13.00    92.90637     Nb( 1.00)
        Ta            13.00   180.94788     Ta( 1.00)
        Zr            12.00    91.22400     Zr( 1.00)

     No symmetry found



   Cartesian axes

     site n.     atom                  positions (alat units)
         1           Hf  tau(   1) = (   0.0908265   0.0908265   0.0908265  )
         2           Nb  tau(   2) = (   0.0908265   0.2425068   0.2425068  )
         3           Ta  tau(   3) = (   0.2425068   0.0908265   0.2425068  )
         4           Zr  tau(   4) = (   0.2425068   0.2425068   0.0908265  )
         5           Hf  tau(   5) = (   0.0908265   0.4241599   0.0908265  )
         6           Nb  tau(   6) = (   0.0908265   0.5758401   0.2425068  )
         7           Ta  tau(   7) = (   0.2425068   0.4241599   0.2425068  )
         8           Zr  tau(   8) = (   0.2425068   0.5758401   0.0908265  )
         9           Hf  tau(   9) = (   0.0908265   0.7574932   0.0908265  )
        10           Nb  tau(  10) = (   0.0908265   0.9091735   0.2425068  )
        11           Ta  tau(  11) = (   0.2425068   0.7574932   0.2425068  )
        12           Zr  tau(  12) = (   0.2425068   0.9091735   0.0908265  )
        13           Hf  tau(  13) = (   0.4241599   0.0908265   0.0908265  )
        14           Nb  tau(  14) = (   0.4241599   0.2425068   0.2425068  )
        15           Ta  tau(  15) = (   0.5758401   0.0908265   0.2425068  )
        16           Zr  tau(  16) = (   0.5758401   0.2425068   0.0908265  )
        17           Hf  tau(  17) = (   0.4241599   0.4241599   0.0908265  )
        18           Nb  tau(  18) = (   0.4241599   0.5758401   0.2425068  )
        19           Ta  tau(  19) = (   0.5758401   0.4241599   0.2425068  )
        20           Zr  tau(  20) = (   0.5758401   0.5758401   0.0908265  )
        21           Hf  tau(  21) = (   0.4241599   0.7574932   0.0908265  )
        22           Nb  tau(  22) = (   0.4241599   0.9091735   0.2425068  )
        23           Ta  tau(  23) = (   0.5758401   0.7574932   0.2425068  )
        24           Zr  tau(  24) = (   0.5758401   0.9091735   0.0908265  )
        25           Hf  tau(  25) = (   0.7574932   0.0908265   0.0908265  )
        26           Nb  tau(  26) = (   0.7574932   0.2425068   0.2425068  )
        27           Ta  tau(  27) = (   0.9091735   0.0908265   0.2425068  )
        28           Zr  tau(  28) = (   0.9091735   0.2425068   0.0908265  )
        29           Hf  tau(  29) = (   0.7574932   0.4241599   0.0908265  )
        30           Nb  tau(  30) = (   0.7574932   0.5758401   0.2425068  )
        31           Ta  tau(  31) = (   0.9091735   0.4241599   0.2425068  )
        32           Zr  tau(  32) = (   0.9091735   0.5758401   0.0908265  )
        33           Hf  tau(  33) = (   0.7574932   0.7574932   0.0908265  )
        34           Nb  tau(  34) = (   0.7574932   0.9091735   0.2425068  )
        35           Ta  tau(  35) = (   0.9091735   0.7574932   0.2425068  )
        36           Zr  tau(  36) = (   0.9091735   0.9091735   0.0908265  )

     number of k points=     1  Gaussian smearing, width (Ry)=  0.0220
                       cart. coord. in units 2pi/alat
        k(    1) = (   0.0000000   0.0000000   0.0000000), wk =   2.0000000

     Dense  grid:  1508173 G-vectors     FFT dimensions: ( 216, 216,  72)

     Smooth grid:   533037 G-vectors     FFT dimensions: ( 150, 150,  50)

     Estimated max dynamical RAM per process >     972.14 MB

     Estimated total dynamical RAM >      11.39 GB

     Initial potential from superposition of free atoms

     starting charge     431.9460, renormalised to     450.0000

     negative rho (up, down):  2.386E+00 0.000E+00
     Starting wfcs are  468 randomized atomic wfcs

     total cpu time spent up to now is       36.8 secs

     Self-consistent Calculation

     iteration #  1     ecut=   120.00 Ry     beta= 0.70
     Davidson diagonalization with overlap
     ethr =  1.00E-02,  avg # of iterations =  2.0

     negative rho (up, down):  2.295E+00 0.000E+00

     total cpu time spent up to now is      102.4 secs

     total energy              =   -4653.44521272 Ry
     estimated scf accuracy    <       8.17429488 Ry

     iteration #  2     ecut=   120.00 Ry     beta= 0.70
     Davidson diagonalization with overlap
     ethr =  1.82E-03,  avg # of iterations =  7.0

     negative rho (up, down):  2.310E+00 0.000E+00

     total cpu time spent up to now is      183.6 secs

     total energy              =   -4652.35618138 Ry
     estimated scf accuracy    <      15.72401004 Ry

     iteration #  3     ecut=   120.00 Ry     beta= 0.70
     Davidson diagonalization with overlap
     ethr =  1.82E-03,  avg # of iterations =  6.0

     negative rho (up, down):  2.331E+00 0.000E+00

     total cpu time spent up to now is      251.4 secs

     total energy              =   -4656.19013854 Ry
     estimated scf accuracy    <       1.19312461 Ry

     iteration #  4     ecut=   120.00 Ry     beta= 0.70
     Davidson diagonalization with overlap
     ethr =  2.65E-04,  avg # of iterations =  2.0

     negative rho (up, down):  2.332E+00 0.000E+00

     total cpu time spent up to now is      313.4 secs

     total energy              =   -4656.26817913 Ry
     estimated scf accuracy    <       0.92137192 Ry

     iteration #  5     ecut=   120.00 Ry     beta= 0.70
     Davidson diagonalization with overlap
     ethr =  2.05E-04,  avg # of iterations =  3.0

     negative rho (up, down):  2.334E+00 0.000E+00

     total cpu time spent up to now is      372.3 secs

     total energy              =   -4656.30057293 Ry
     estimated scf accuracy    <       1.36738957 Ry

     iteration #  6     ecut=   120.00 Ry     beta= 0.70
     Davidson diagonalization with overlap
     ethr =  2.05E-04,  avg # of iterations =  2.0

     negative rho (up, down):  2.335E+00 0.000E+00

     total cpu time spent up to now is      430.9 secs

     total energy              =   -4656.34415978 Ry
     estimated scf accuracy    <       0.15375983 Ry

     iteration #  7     ecut=   120.00 Ry     beta= 0.70
     Davidson diagonalization with overlap
     c_bands:  1 eigenvalues not converged
     ethr =  3.42E-05,  avg # of iterations = 20.0

     negative rho (up, down):  2.338E+00 0.000E+00

     total cpu time spent up to now is      494.6 secs

     total energy              =   -4656.35625600 Ry
     estimated scf accuracy    <       0.02171742 Ry

     iteration #  8     ecut=   120.00 Ry     beta= 0.70
     Davidson diagonalization with overlap
     ethr =  4.83E-06,  avg # of iterations = 20.0

     negative rho (up, down):  2.338E+00 0.000E+00

     total cpu time spent up to now is      563.0 secs

     total energy              =   -4656.35034921 Ry
     estimated scf accuracy    <       0.21506707 Ry

     iteration #  9     ecut=   120.00 Ry     beta= 0.70
     Davidson diagonalization with overlap
     ethr =  4.83E-06,  avg # of iterations = 11.0

     negative rho (up, down):  2.339E+00 0.000E+00

     total cpu time spent up to now is      620.8 secs

     total energy              =   -4656.35885757 Ry
     estimated scf accuracy    <       0.00777645 Ry

     iteration # 10     ecut=   120.00 Ry     beta= 0.70
     Davidson diagonalization with overlap
     ethr =  1.73E-06,  avg # of iterations =  3.0

     negative rho (up, down):  2.339E+00 0.000E+00

     total cpu time spent up to now is      674.9 secs

     total energy              =   -4656.35922374 Ry
     estimated scf accuracy    <       0.00285268 Ry

     iteration # 11     ecut=   120.00 Ry     beta= 0.70
     Davidson diagonalization with overlap
     ethr =  6.34E-07,  avg # of iterations =  2.0

     negative rho (up, down):  2.339E+00 0.000E+00

     total cpu time spent up to now is      728.5 secs

     total energy              =   -4656.35908925 Ry
     estimated scf accuracy    <       0.00534213 Ry

     iteration # 12     ecut=   120.00 Ry     beta= 0.70
     Davidson diagonalization with overlap
     ethr =  6.34E-07,  avg # of iterations =  2.0

     negative rho (up, down):  2.339E+00 0.000E+00

     total cpu time spent up to now is      787.0 secs

     total energy              =   -4656.35929734 Ry
     estimated scf accuracy    <       0.00409155 Ry

     iteration # 13     ecut=   120.00 Ry     beta= 0.70
     Davidson diagonalization with overlap
     ethr =  6.34E-07,  avg # of iterations =  2.0

     negative rho (up, down):  2.339E+00 0.000E+00

     total cpu time spent up to now is      837.5 secs

     total energy              =   -4656.35945513 Ry
     estimated scf accuracy    <       0.00200709 Ry

     iteration # 14     ecut=   120.00 Ry     beta= 0.70
     Davidson diagonalization with overlap
     ethr =  4.46E-07,  avg # of iterations =  2.0

     negative rho (up, down):  2.339E+00 0.000E+00

     total cpu time spent up to now is      887.7 secs

     total energy              =   -4656.35952306 Ry
     estimated scf accuracy    <       0.00017824 Ry

     iteration # 15     ecut=   120.00 Ry     beta= 0.70
     Davidson diagonalization with overlap
     ethr =  3.96E-08,  avg # of iterations =  5.0

     negative rho (up, down):  2.339E+00 0.000E+00

     total cpu time spent up to now is      945.6 secs

     total energy              =   -4656.35926245 Ry
     estimated scf accuracy    <       0.00906758 Ry

     iteration # 16     ecut=   120.00 Ry     beta= 0.70
     Davidson diagonalization with overlap
     ethr =  3.96E-08,  avg # of iterations =  5.0

     negative rho (up, down):  2.339E+00 0.000E+00

     total cpu time spent up to now is     1002.8 secs

     total energy              =   -4656.35957761 Ry
     estimated scf accuracy    <       0.00002193 Ry

     iteration # 17     ecut=   120.00 Ry     beta= 0.70
     Davidson diagonalization with overlap
     ethr =  4.87E-09,  avg # of iterations =  3.0

     negative rho (up, down):  2.339E+00 0.000E+00

     total cpu time spent up to now is     1058.2 secs

     total energy              =   -4656.35957592 Ry
     estimated scf accuracy    <       0.00007105 Ry

     iteration # 18     ecut=   120.00 Ry     beta= 0.70
     Davidson diagonalization with overlap
     ethr =  4.87E-09,  avg # of iterations =  4.0

     negative rho (up, down):  2.339E+00 0.000E+00

     total cpu time spent up to now is     1114.4 secs

     total energy              =   -4656.35956939 Ry
     estimated scf accuracy    <       0.00027187 Ry

     iteration # 19     ecut=   120.00 Ry     beta= 0.70
     Davidson diagonalization with overlap
     ethr =  4.87E-09,  avg # of iterations =  3.0

     negative rho (up, down):  2.339E+00 0.000E+00

     total cpu time spent up to now is     1169.1 secs

     total energy              =   -4656.35958009 Ry
     estimated scf accuracy    <       0.00004081 Ry

     iteration # 20     ecut=   120.00 Ry     beta= 0.70
     Davidson diagonalization with overlap
     ethr =  4.87E-09,  avg # of iterations =  2.0

     negative rho (up, down):  2.339E+00 0.000E+00

     total cpu time spent up to now is     1224.8 secs

     total energy              =   -4656.35958055 Ry
     estimated scf accuracy    <       0.00001420 Ry

     iteration # 21     ecut=   120.00 Ry     beta= 0.70
     Davidson diagonalization with overlap
     ethr =  3.16E-09,  avg # of iterations =  2.0

     negative rho (up, down):  2.339E+00 0.000E+00

     total cpu time spent up to now is     1280.1 secs

     total energy              =   -4656.35958123 Ry
     estimated scf accuracy    <       0.00001679 Ry

     iteration # 22     ecut=   120.00 Ry     beta= 0.70
     Davidson diagonalization with overlap
     ethr =  3.16E-09,  avg # of iterations =  2.0

     negative rho (up, down):  2.339E+00 0.000E+00

     total cpu time spent up to now is     1330.8 secs

     total energy              =   -4656.35958219 Ry
     estimated scf accuracy    <       0.00000215 Ry

     iteration # 23     ecut=   120.00 Ry     beta= 0.70
     Davidson diagonalization with overlap
     ethr =  4.79E-10,  avg # of iterations =  2.0

     negative rho (up, down):  2.339E+00 0.000E+00

     total cpu time spent up to now is     1383.8 secs

     total energy              =   -4656.35958225 Ry
     estimated scf accuracy    <       0.00000403 Ry

     iteration # 24     ecut=   120.00 Ry     beta= 0.70
     Davidson diagonalization with overlap
     ethr =  4.79E-10,  avg # of iterations =  1.0

     negative rho (up, down):  2.339E+00 0.000E+00

     total cpu time spent up to now is     1430.2 secs

     End of self-consistent calculation

          k = 0.0000 0.0000 0.0000 ( 66693 PWs)   bands (ev):

   -39.2220 -39.2174 -39.2174 -39.2143 -39.2142 -39.2105 -39.2104 -39.2104
   -39.2104 -32.9323 -32.9322 -32.9277 -32.9206 -32.9206 -32.9206 -32.9205
   -32.9153 -32.9153 -26.4619 -26.4618 -26.4457 -26.4457 -26.4454 -26.4454
   -26.4347 -26.4284 -26.4283 -19.9393 -19.9393 -19.9385 -19.9385 -19.9257
   -19.9256 -19.9035 -19.9035 -19.8753  -6.9190  -6.8352  -6.8352  -6.7719
    -6.7719  -6.7199  -6.7199  -6.7191  -6.7190  -6.5541  -6.5141  -6.5059
    -6.5058  -6.4095  -6.4095  -6.3991  -6.3991  -6.3757  -6.3757  -6.3405
    -6.3405  -6.3303  -6.3302  -6.3255  -6.3254  -6.3195  -6.3194  -3.7504
    -3.7503  -3.6655  -3.6654  -3.6467  -3.6466  -3.5977  -3.5494  -3.5494
    -3.3899  -3.3898  -3.2524  -3.1656  -3.1656  -3.1347  -3.1346  -3.1313
    -3.1313  -2.9883  -2.9882  -2.9680  -2.9680  -2.8723  -2.7103  -2.7102
    -2.6560  -2.6560  -2.4687  -2.4687  -2.3980  -2.3979  -2.2316  -2.2316
    -2.2046  -2.2046  -2.1336  -1.9841  -1.9841  -1.9746  -1.9745  -1.8223
    -1.8223  -1.5238  -1.5088  -1.5088  -1.4364  -1.4364  -1.4299  -1.4298
    -1.3359  -1.3359  -1.1051  -1.1051  -1.0660   1.6255   1.6255   1.7075
     1.7076   1.7963   1.7963   1.8167   1.8167   1.8723   1.8723   1.8823
     1.8823   1.9180   1.9180   2.0268   2.0268   2.0330   2.0330   2.1187
     2.1187   2.1303   2.1682   2.1682   2.1823   2.1999   2.1999   2.2956
    20.2991  20.9501  21.2123  21.5224  21.7721  21.7721  21.8723  21.9607
    21.9607  22.1189  22.2320  22.3676  22.3676  22.6321  22.6321  22.6378
    22.6378  22.6510  22.6510  22.8418  22.8418  22.8473  22.8474  22.9298
    22.9298  22.9809  22.9809  23.2715  23.2715  23.4160  23.4160  23.7332
    23.7332  23.7453  23.7454  24.0400  24.0400  24.0421  24.0422  24.2462
    24.2462  24.2856  24.2856  24.4193  24.4193  24.4225  24.4225  24.7591
    24.7591  24.7806  24.7806  25.1494  25.1494  25.1803  25.1803  25.6232
    25.6233  25.7464  25.7464  26.2568  26.2568  26.3787  26.3787  26.3819
    26.3819  26.4352  26.4352  26.7225  26.7225  26.8365  26.8365  26.9148
    26.9149  27.0831  27.0831  27.4370  27.4371  27.6270  27.6270  27.6794
    27.6795  28.1877  28.1877  28.2523  28.2880  28.3041  28.4049  28.4049
    28.4606  28.4606  29.3219  29.3220  29.3320  29.3320  29.3950  29.3950
    29.5486  29.5486  29.5633  29.5634  29.5963  29.5963  29.9404  29.9404
    29.9756  29.9756  30.2101  30.2101  30.2366  30.2366  30.3043  30.3043
    30.3045  30.3045  30.9662  30.9662  30.9926  30.9926  31.5456  31.5456
    31.7745  31.7745  31.8555  31.8555  31.8581  31.8581

     the Fermi energy is    27.9300 ev

!    total energy              =   -4656.35958238 Ry
     estimated scf accuracy    <       0.00000006 Ry
     smearing contrib. (-TS)   =      -0.04725972 Ry
     internal energy E=F+TS    =   -4656.31232266 Ry

     The total energy is F=E-TS. E is the sum of the following terms:
     one-electron contribution =      71.98375444 Ry
     hartree contribution      =     363.46505470 Ry
     xc contribution           =   -1412.70949970 Ry
     ewald contribution        =   -3679.05163211 Ry

     convergence has been achieved in  24 iterations

     negative rho (up, down):  2.339E+00 0.000E+00

     Forces acting on atoms (cartesian axes, Ry/au):

     atom    1 type  1   force =    -0.30508591   -0.29297622   -0.26363316
     atom    2 type  2   force =    -0.29810355    0.30352703    0.25209410
     atom    3 type  3   force =     0.31781271   -0.30944578    0.28284237
     atom    4 type  4   force =     0.28544361    0.29876413   -0.27129934
     atom    5 type  1   force =    -0.30520031   -0.29290266   -0.26363802
     atom    6 type  2   force =    -0.29811021    0.30355848    0.25209844
     atom    7 type  3   force =     0.31779190   -0.30943725    0.28284274
     atom    8 type  4   force =     0.28539457    0.29885258   -0.27129413
     atom    9 type  1   force =    -0.30516401   -0.29291297   -0.26363220
     atom   10 type  2   force =    -0.29810574    0.30354704    0.25209700
     atom   11 type  3   force =     0.31776679   -0.30939932    0.28283944
     atom   12 type  4   force =     0.28541380    0.29884175   -0.27129837
     atom   13 type  1   force =    -0.30525672   -0.29293567   -0.26364345
     atom   14 type  2   force =    -0.29811181    0.30353011    0.25209459
     atom   15 type  3   force =     0.31777624   -0.30941280    0.28284976
     atom   16 type  4   force =     0.28541865    0.29880593   -0.27130302
     atom   17 type  1   force =    -0.30519283   -0.29299247   -0.26364600
     atom   18 type  2   force =    -0.29811582    0.30353705    0.25208724
     atom   19 type  3   force =     0.31783319   -0.30946301    0.28285286
     atom   20 type  4   force =     0.28546731    0.29880425   -0.27130017
     atom   21 type  1   force =    -0.30526446   -0.29286574   -0.26364366
     atom   22 type  2   force =    -0.29812487    0.30355022    0.25209626
     atom   23 type  3   force =     0.31781957   -0.30941039    0.28285106
     atom   24 type  4   force =     0.28541414    0.29883715   -0.27130142
     atom   25 type  1   force =    -0.30511922   -0.29289934   -0.26364294
     atom   26 type  2   force =    -0.29810929    0.30353805    0.25209288
     atom   27 type  3   force =     0.31787351   -0.30942050    0.28284388
     atom   28 type  4   force =     0.28546818    0.29882534   -0.27129859
     atom   29 type  1   force =    -0.30507630   -0.29291772   -0.26364097
     atom   30 type  2   force =    -0.29810138    0.30354123    0.25209726
     atom   31 type  3   force =     0.31782704   -0.30941086    0.28284393
     atom   32 type  4   force =     0.28547633    0.29884722   -0.27130338
     atom   33 type  1   force =    -0.30503892   -0.29297745   -0.26364061
     atom   34 type  2   force =    -0.29809985    0.30353551    0.25208867
     atom   35 type  3   force =     0.31787344   -0.30944811    0.28284263
     atom   36 type  4   force =     0.28551024    0.29878519   -0.27129566
     The non-local contrib.  to forces
     atom    1 type  1   force =     0.10288688    0.10117225    0.15617943
     atom    2 type  2   force =     0.10243564   -0.07609226   -0.06483320
     atom    3 type  3   force =    -0.08685581    0.08990267   -0.22141998
     atom    4 type  4   force =    -0.11194959   -0.09186638    0.01588728
     atom    5 type  1   force =     0.10282195    0.10121659    0.15617527
     atom    6 type  2   force =     0.10242821   -0.07609564   -0.06482749
     atom    7 type  3   force =    -0.08688099    0.08991617   -0.22142039
     atom    8 type  4   force =    -0.11198650   -0.09181955    0.01588806
     atom    9 type  1   force =     0.10284487    0.10121098    0.15617999
     atom   10 type  2   force =     0.10243067   -0.07609615   -0.06482674
     atom   11 type  3   force =    -0.08690710    0.08995031   -0.22142337
     atom   12 type  4   force =    -0.11195750   -0.09181965    0.01588577
     atom   13 type  1   force =     0.10278956    0.10119680    0.15617154
     atom   14 type  2   force =     0.10244335   -0.07610128   -0.06483766
     atom   15 type  3   force =    -0.08689154    0.08993192   -0.22141622
     atom   16 type  4   force =    -0.11194944   -0.09184273    0.01589474
     atom   17 type  1   force =     0.10282966    0.10116263    0.15617082
     atom   18 type  2   force =     0.10245627   -0.07610327   -0.06484129
     atom   19 type  3   force =    -0.08682996    0.08989423   -0.22141193
     atom   20 type  4   force =    -0.11191637   -0.09184571    0.01589497
     atom   21 type  1   force =     0.10278404    0.10123615    0.15617353
     atom   22 type  2   force =     0.10244527   -0.07609807   -0.06483708
     atom   23 type  3   force =    -0.08684021    0.08994353   -0.22141601
     atom   24 type  4   force =    -0.11195875   -0.09183524    0.01589512
     atom   25 type  1   force =     0.10286419    0.10122258    0.15617277
     atom   26 type  2   force =     0.10244624   -0.07609624   -0.06483858
     atom   27 type  3   force =    -0.08678318    0.08993059   -0.22142258
     atom   28 type  4   force =    -0.11191656   -0.09181937    0.01588800
     atom   29 type  1   force =     0.10288576    0.10120312    0.15617088
     atom   30 type  2   force =     0.10244285   -0.07609652   -0.06483519
     atom   31 type  3   force =    -0.08683226    0.08995079   -0.22141686
     atom   32 type  4   force =    -0.11191487   -0.09182561    0.01588665
     atom   33 type  1   force =     0.10291035    0.10117314    0.15617297
     atom   34 type  2   force =     0.10244930   -0.07610517   -0.06483871
     atom   35 type  3   force =    -0.08679054    0.08989685   -0.22142040
     atom   36 type  4   force =    -0.11189878   -0.09186407    0.01588891
     The ionic contribution  to forces
     atom    1 type  1   force =    -4.92105825   -4.92105825   -5.11790058
     atom    2 type  2   force =    -5.33114643    5.33114643    5.11790058
     atom    3 type  3   force =     5.33114643   -5.33114643    5.11790058
     atom    4 type  4   force =     4.92105825    4.92105825   -5.11790058
     atom    5 type  1   force =    -4.92105825   -4.92105825   -5.11790058
     atom    6 type  2   force =    -5.33114643    5.33114643    5.11790058
     atom    7 type  3   force =     5.33114643   -5.33114643    5.11790058
     atom    8 type  4   force =     4.92105825    4.92105825   -5.11790058
     atom    9 type  1   force =    -4.92105825   -4.92105825   -5.11790058
     atom   10 type  2   force =    -5.33114643    5.33114643    5.11790058
     atom   11 type  3   force =     5.33114643   -5.33114643    5.11790058
     atom   12 type  4   force =     4.92105825    4.92105825   -5.11790058
     atom   13 type  1   force =    -4.92105825   -4.92105825   -5.11790058
     atom   14 type  2   force =    -5.33114643    5.33114643    5.11790058
     atom   15 type  3   force =     5.33114643   -5.33114643    5.11790058
     atom   16 type  4   force =     4.92105825    4.92105825   -5.11790058
     atom   17 type  1   force =    -4.92105825   -4.92105825   -5.11790058
     atom   18 type  2   force =    -5.33114643    5.33114643    5.11790058
     atom   19 type  3   force =     5.33114643   -5.33114643    5.11790058
     atom   20 type  4   force =     4.92105825    4.92105825   -5.11790058
     atom   21 type  1   force =    -4.92105825   -4.92105825   -5.11790058
     atom   22 type  2   force =    -5.33114643    5.33114643    5.11790058
     atom   23 type  3   force =     5.33114643   -5.33114643    5.11790058
     atom   24 type  4   force =     4.92105825    4.92105825   -5.11790058
     atom   25 type  1   force =    -4.92105825   -4.92105825   -5.11790058
     atom   26 type  2   force =    -5.33114643    5.33114643    5.11790058
     atom   27 type  3   force =     5.33114643   -5.33114643    5.11790058
     atom   28 type  4   force =     4.92105825    4.92105825   -5.11790058
     atom   29 type  1   force =    -4.92105825   -4.92105825   -5.11790058
     atom   30 type  2   force =    -5.33114643    5.33114643    5.11790058
     atom   31 type  3   force =     5.33114643   -5.33114643    5.11790058
     atom   32 type  4   force =     4.92105825    4.92105825   -5.11790058
     atom   33 type  1   force =    -4.92105825   -4.92105825   -5.11790058
     atom   34 type  2   force =    -5.33114643    5.33114643    5.11790058
     atom   35 type  3   force =     5.33114643   -5.33114643    5.11790058
     atom   36 type  4   force =     4.92105825    4.92105825   -5.11790058
     The local contribution  to forces
     atom    1 type  1   force =     4.50667417    4.52361646    4.67446506
     atom    2 type  2   force =     4.93644784   -4.95660016   -4.80259538
     atom    3 type  3   force =    -4.92787410    4.93542300   -4.60624518
     atom    4 type  4   force =    -4.52997248   -4.53608349    4.83156605
     atom    5 type  1   force =     4.50627960    4.52389522    4.67445755
     atom    6 type  2   force =     4.93614689   -4.95620635   -4.80259804
     atom    7 type  3   force =    -4.92805761    4.93557537   -4.60623593
     atom    8 type  4   force =    -4.53027558   -4.53557788    4.83157210
     atom    9 type  1   force =     4.50639643    4.52376744    4.67447336
     atom   10 type  2   force =     4.93652357   -4.95648519   -4.80260399
     atom   11 type  3   force =    -4.92815929    4.93576354   -4.60624267
     atom   12 type  4   force =    -4.53011713   -4.53564842    4.83158373
     atom   13 type  1   force =     4.50613815    4.52371264    4.67445014
     atom   14 type  2   force =     4.93615461   -4.95669615   -4.80258420
     atom   15 type  3   force =    -4.92802189    4.93561308   -4.60622874
     atom   16 type  4   force =    -4.52998315   -4.53581231    4.83154170
     atom   17 type  1   force =     4.50634075    4.52359559    4.67443869
     atom   18 type  2   force =     4.93610315   -4.95639326   -4.80257708
     atom   19 type  3   force =    -4.92758860    4.93546284   -4.60622109
     atom   20 type  4   force =    -4.52964890   -4.53580812    4.83154316
     atom   21 type  1   force =     4.50614508    4.52398492    4.67444495
     atom   22 type  2   force =     4.93596922   -4.95621710   -4.80258238
     atom   23 type  3   force =    -4.92769409    4.93568779   -4.60622130
     atom   24 type  4   force =    -4.53003720   -4.53567586    4.83154653
     atom   25 type  1   force =     4.50657552    4.52382773    4.67444467
     atom   26 type  2   force =     4.93652946   -4.95625371   -4.80258370
     atom   27 type  3   force =    -4.92741247    4.93558378   -4.60622902
     atom   28 type  4   force =    -4.52969512   -4.53566089    4.83156270
     atom   29 type  1   force =     4.50676194    4.52386558    4.67445772
     atom   30 type  2   force =     4.93685442   -4.95643504   -4.80259121
     atom   31 type  3   force =    -4.92766941    4.93581022   -4.60624802
     atom   32 type  4   force =    -4.52970146   -4.53565938    4.83156852
     atom   33 type  1   force =     4.50683887    4.52357978    4.67445740
     atom   34 type  2   force =     4.93659777   -4.95661686   -4.80258890
     atom   35 type  3   force =    -4.92745220    4.93537343   -4.60624250
     atom   36 type  4   force =    -4.52947415   -4.53599399    4.83157164
     The core correction contribution to forces
     atom    1 type  1   force =     0.00658734    0.00316843    0.02364041
     atom    2 type  2   force =    -0.00578564    0.00493501    0.00162714
     atom    3 type  3   force =     0.00128107   -0.00379507   -0.00738661
     atom    4 type  4   force =     0.00619389    0.00537711   -0.00084410
     atom    5 type  1   force =     0.00658649    0.00316787    0.02363973
     atom    6 type  2   force =    -0.00578579    0.00493547    0.00162708
     atom    7 type  3   force =     0.00128142   -0.00379684   -0.00738702
     atom    8 type  4   force =     0.00619344    0.00537803   -0.00084390
     atom    9 type  1   force =     0.00658739    0.00317241    0.02364023
     atom   10 type  2   force =    -0.00578547    0.00493555    0.00162711
     atom   11 type  3   force =     0.00127986   -0.00379450   -0.00738715
     atom   12 type  4   force =     0.00619350    0.00537791   -0.00084401
     atom   13 type  1   force =     0.00658320    0.00317140    0.02363886
     atom   14 type  2   force =    -0.00578630    0.00493525    0.00162729
     atom   15 type  3   force =     0.00127948   -0.00379458   -0.00738644
     atom   16 type  4   force =     0.00619396    0.00537766   -0.00084453
     atom   17 type  1   force =     0.00658469    0.00316638    0.02363941
     atom   18 type  2   force =    -0.00578683    0.00493537    0.00162709
     atom   19 type  3   force =     0.00127935   -0.00379806   -0.00738608
     atom   20 type  4   force =     0.00619448    0.00537745   -0.00084430
     atom   21 type  1   force =     0.00658141    0.00316989    0.02363955
     atom   22 type  2   force =    -0.00578661    0.00493582    0.00162733
     atom   23 type  3   force =     0.00128017   -0.00379517   -0.00738656
     atom   24 type  4   force =     0.00619404    0.00537802   -0.00084447
     atom   25 type  1   force =     0.00658525    0.00317201    0.02363976
     atom   26 type  2   force =    -0.00578564    0.00493552    0.00162730
     atom   27 type  3   force =     0.00128263   -0.00379497   -0.00738754
     atom   28 type  4   force =     0.00619442    0.00537759   -0.00084402
     atom   29 type  1   force =     0.00658325    0.00316622    0.02363898
     atom   30 type  2   force =    -0.00578522    0.00493525    0.00162740
     atom   31 type  3   force =     0.00128110   -0.00379638   -0.00738647
     atom   32 type  4   force =     0.00619476    0.00537814   -0.00084425
     atom   33 type  1   force =     0.00658635    0.00316948    0.02363952
     atom   34 type  2   force =    -0.00578600    0.00493521    0.00162715
     atom   35 type  3   force =     0.00128311   -0.00379452   -0.00738697
     atom   36 type  4   force =     0.00619512    0.00537743   -0.00084396
     The Hubbard contrib.    to forces
     atom    1 type  1   force =     0.00000000    0.00000000    0.00000000
     atom    2 type  2   force =     0.00000000    0.00000000    0.00000000
     atom    3 type  3   force =     0.00000000    0.00000000    0.00000000
     atom    4 type  4   force =     0.00000000    0.00000000    0.00000000
     atom    5 type  1   force =     0.00000000    0.00000000    0.00000000
     atom    6 type  2   force =     0.00000000    0.00000000    0.00000000
     atom    7 type  3   force =     0.00000000    0.00000000    0.00000000
     atom    8 type  4   force =     0.00000000    0.00000000    0.00000000
     atom    9 type  1   force =     0.00000000    0.00000000    0.00000000
     atom   10 type  2   force =     0.00000000    0.00000000    0.00000000
     atom   11 type  3   force =     0.00000000    0.00000000    0.00000000
     atom   12 type  4   force =     0.00000000    0.00000000    0.00000000
     atom   13 type  1   force =     0.00000000    0.00000000    0.00000000
     atom   14 type  2   force =     0.00000000    0.00000000    0.00000000
     atom   15 type  3   force =     0.00000000    0.00000000    0.00000000
     atom   16 type  4   force =     0.00000000    0.00000000    0.00000000
     atom   17 type  1   force =     0.00000000    0.00000000    0.00000000
     atom   18 type  2   force =     0.00000000    0.00000000    0.00000000
     atom   19 type  3   force =     0.00000000    0.00000000    0.00000000
     atom   20 type  4   force =     0.00000000    0.00000000    0.00000000
     atom   21 type  1   force =     0.00000000    0.00000000    0.00000000
     atom   22 type  2   force =     0.00000000    0.00000000    0.00000000
     atom   23 type  3   force =     0.00000000    0.00000000    0.00000000
     atom   24 type  4   force =     0.00000000    0.00000000    0.00000000
     atom   25 type  1   force =     0.00000000    0.00000000    0.00000000
     atom   26 type  2   force =     0.00000000    0.00000000    0.00000000
     atom   27 type  3   force =     0.00000000    0.00000000    0.00000000
     atom   28 type  4   force =     0.00000000    0.00000000    0.00000000
     atom   29 type  1   force =     0.00000000    0.00000000    0.00000000
     atom   30 type  2   force =     0.00000000    0.00000000    0.00000000
     atom   31 type  3   force =     0.00000000    0.00000000    0.00000000
     atom   32 type  4   force =     0.00000000    0.00000000    0.00000000
     atom   33 type  1   force =     0.00000000    0.00000000    0.00000000
     atom   34 type  2   force =     0.00000000    0.00000000    0.00000000
     atom   35 type  3   force =     0.00000000    0.00000000    0.00000000
     atom   36 type  4   force =     0.00000000    0.00000000    0.00000000
     The SCF correction term to forces
     atom    1 type  1   force =    -0.00017740    0.00012525   -0.00001577
     atom    2 type  2   force =    -0.00005628    0.00013836   -0.00000332
     atom    3 type  3   force =     0.00011378    0.00017041   -0.00000473
     atom    4 type  4   force =     0.00011221    0.00027901   -0.00000628
     atom    5 type  1   force =     0.00016857   -0.00012373   -0.00000828
     atom    6 type  2   force =     0.00024558   -0.00022107   -0.00000197
     atom    7 type  3   force =     0.00030131    0.00001484   -0.00001278
     atom    8 type  4   force =     0.00040362   -0.00018591   -0.00000811
     atom    9 type  1   force =     0.00006421   -0.00000519   -0.00002349
     atom   10 type  2   force =    -0.00012942    0.00004676    0.00000176
     atom   11 type  3   force =     0.00040555   -0.00017188   -0.00000624
     atom   12 type  4   force =     0.00023534   -0.00012598   -0.00002158
     atom   13 type  1   force =     0.00028928    0.00004210   -0.00000170
     atom   14 type  2   force =     0.00022162    0.00024622   -0.00000970
     atom   15 type  3   force =     0.00026242   -0.00001643   -0.00001770
     atom   16 type  4   force =     0.00009771    0.00002542    0.00000736
     atom   17 type  1   force =     0.00010897    0.00014154    0.00000737
     atom   18 type  2   force =     0.00025668   -0.00004786   -0.00002034
     atom   19 type  3   force =    -0.00017538    0.00012477   -0.00002691
     atom   20 type  4   force =    -0.00022149    0.00002274    0.00000829
     atom   21 type  1   force =     0.00028193   -0.00019808    0.00000060
     atom   22 type  2   force =     0.00039235   -0.00021651   -0.00001048
     atom   23 type  3   force =    -0.00007408   -0.00009975   -0.00002394
     atom   24 type  4   force =     0.00015647   -0.00008766    0.00000368
     atom   25 type  1   force =    -0.00008727   -0.00006305    0.00000215
     atom   26 type  2   force =    -0.00015425   -0.00019360   -0.00001101
     atom   27 type  3   force =    -0.00036124    0.00000690   -0.00001585
     atom   28 type  4   force =    -0.00017415   -0.00012989   -0.00000298
     atom   29 type  1   force =    -0.00025033   -0.00009402   -0.00000626
     atom   30 type  2   force =    -0.00046833   -0.00000854   -0.00000261
     atom   31 type  3   force =    -0.00010016   -0.00022870   -0.00000359
     atom   32 type  4   force =    -0.00016168   -0.00010382   -0.00001201
     atom   33 type  1   force =    -0.00031757    0.00015875   -0.00000820
     atom   34 type  2   force =    -0.00021583    0.00017625   -0.00000974
     atom   35 type  3   force =    -0.00031471    0.00022292   -0.00000637
     atom   36 type  4   force =    -0.00037153    0.00020794   -0.00000996

     Total force =     3.021110     Total SCF correction =     0.001717


     Computing stress (Cartesian axis) and pressure


     negative rho (up, down):  2.339E+00 0.000E+00
          total   stress  (Ry/bohr**3)                   (kbar)     P=     1550.97
   0.01241444  -0.00008245   0.00016706         1826.23      -12.13       24.57
  -0.00008245   0.01234356   0.00000293          -12.13     1815.80        0.43
   0.00016706   0.00000293   0.00687174           24.57        0.43     1010.87


     BFGS Geometry Optimization
     Energy error            =      0.0E+00 Ry
     Gradient error          =      3.2E-01 Ry/Bohr

     number of scf cycles    =   1
     number of bfgs steps    =   0

     energy             new  =   -4656.3595823839 Ry

     new trust radius        =       0.5000000000 bohr
     new conv_thr            =       0.0000010000 Ry


ATOMIC_POSITIONS (angstrom)
Hf            0.8465704608        0.8526604981        0.8674172997
Nb            0.8500819321        2.8226455679        2.7967796410
Ta            2.8298299255        0.8443778571        2.8122431321
Zr            2.8135513082        2.8202502805        0.8635619296
Hf            0.8465129270        4.5226974890        0.8674148518
Nb            0.8500785809        6.4926613878        2.7967818233
Ta            2.8298194571        4.5143821447        2.8122433157
Zr            2.8135266448        6.4902947605        0.8635645496
Hf            0.8465311843        8.1926923051        0.8674177795
Nb            0.8500808280       10.1626556334        2.7967811006
Ta            2.8298068328        8.1844012210        2.8122416542
Zr            2.8135363184       10.1602893150        0.8635624151
Hf            4.5164845563        0.8526808884        0.8674121234
Nb            4.5200777762        2.8226471163        2.7967798870
Ta            6.4998115819        0.8443944409        2.8122468475
Zr            6.4835387584        2.8202712997        0.8635600802
Hf            4.5165166880        4.5226523255        0.8674108409
Nb            4.5200757600        6.4926506089        2.7967761882
Ta            6.4998402218        4.5143691898        2.8122484028
Zr            6.4835632259        6.4902704537        0.8635615114
Hf            4.5164806678        8.1927160587        0.8674120168
Nb            4.5200712074       10.1626572328        2.7967807242
Ta            6.4998333729        8.1843956516        2.8122474981
Zr            6.4835364865       10.1602870007        0.8635608845
Hf            8.1865537100        0.8526991615        0.8674123797
Nb            8.1900790447        2.8226511097        2.7967790249
Ta           10.1698604995        0.8443905685        2.8122438873
Zr           10.1535636655        2.8202810603        0.8635623056
Hf            8.1865752945        4.5226899165        0.8674133719
Nb            8.1900830228        6.4926527109        2.7967812268
Ta           10.1698371325        4.5143954165        2.8122439130
Zr           10.1535677633        6.4902920647        0.8635599000
Hf            8.1865940940        8.1926598777        0.8674135491
Nb            8.1900837901       10.1626498328        2.7967769071
Ta           10.1698604650        8.1843766816        2.8122432587
Zr           10.1535848150       10.1602608719        0.8635637788



     Writing config-only to output data dir outdir/pwscf.save/
     NEW-OLD atomic charge density approx. for the potential

     negative rho (up, down):  2.324E+00 0.000E+00

     total cpu time spent up to now is     1542.1 secs

     Self-consistent Calculation

     iteration #  1     ecut=   120.00 Ry     beta= 0.70
     Davidson diagonalization with overlap
     ethr =  1.00E-06,  avg # of iterations = 14.0

     negative rho (up, down):  2.341E+00 0.000E+00

     total cpu time spent up to now is     1759.7 secs

     total energy              =   -4656.26549933 Ry
     estimated scf accuracy    <       2.36403536 Ry

     iteration #  2     ecut=   120.00 Ry     beta= 0.70
     Davidson diagonalization with overlap
     ethr =  5.25E-04,  avg # of iterations =  3.0

     negative rho (up, down):  2.341E+00 0.000E+00

     total cpu time spent up to now is     1822.4 secs

     total energy              =   -4656.89248274 Ry
     estimated scf accuracy    <       2.01014336 Ry

     iteration #  3     ecut=   120.00 Ry     beta= 0.70
     Davidson diagonalization with overlap
     ethr =  4.47E-04,  avg # of iterations =  2.0

     negative rho (up, down):  2.343E+00 0.000E+00

     total cpu time spent up to now is     1876.5 secs

     total energy              =   -4657.23460428 Ry
     estimated scf accuracy    <       0.10179648 Ry

     iteration #  4     ecut=   120.00 Ry     beta= 0.70
     Davidson diagonalization with overlap
     ethr =  2.26E-05,  avg # of iterations = 20.0

     negative rho (up, down):  2.345E+00 0.000E+00

     total cpu time spent up to now is     1952.7 secs

     total energy              =   -4657.10990451 Ry
     estimated scf accuracy    <       4.92165612 Ry

     iteration #  5     ecut=   120.00 Ry     beta= 0.70
     Davidson diagonalization with overlap
     ethr =  2.26E-05,  avg # of iterations = 13.0

     negative rho (up, down):  2.345E+00 0.000E+00

     total cpu time spent up to now is     2020.4 secs

     total energy              =   -4657.27637517 Ry
     estimated scf accuracy    <       0.05347124 Ry

     iteration #  6     ecut=   120.00 Ry     beta= 0.70
     Davidson diagonalization with overlap
     ethr =  1.19E-05,  avg # of iterations =  2.0

     negative rho (up, down):  2.345E+00 0.000E+00

     total cpu time spent up to now is     2073.9 secs

     total energy              =   -4657.28061859 Ry
     estimated scf accuracy    <       0.04921779 Ry

     iteration #  7     ecut=   120.00 Ry     beta= 0.70
     Davidson diagonalization with overlap
     ethr =  1.09E-05,  avg # of iterations =  2.0

     negative rho (up, down):  2.345E+00 0.000E+00

     total cpu time spent up to now is     2122.8 secs

     total energy              =   -4657.28274597 Ry
     estimated scf accuracy    <       0.02279839 Ry

     iteration #  8     ecut=   120.00 Ry     beta= 0.70
     Davidson diagonalization with overlap
     ethr =  5.07E-06,  avg # of iterations =  2.0

     negative rho (up, down):  2.345E+00 0.000E+00

     total cpu time spent up to now is     2172.0 secs

     total energy              =   -4657.28388343 Ry
     estimated scf accuracy    <       0.00428912 Ry

     iteration #  9     ecut=   120.00 Ry     beta= 0.70
     Davidson diagonalization with overlap
     ethr =  9.53E-07,  avg # of iterations =  2.0

     negative rho (up, down):  2.345E+00 0.000E+00

     total cpu time spent up to now is     2221.8 secs

     total energy              =   -4657.28400175 Ry
     estimated scf accuracy    <       0.00104538 Ry

     iteration # 10     ecut=   120.00 Ry     beta= 0.70
     Davidson diagonalization with overlap
     ethr =  2.32E-07,  avg # of iterations =  2.0

     negative rho (up, down):  2.345E+00 0.000E+00

     total cpu time spent up to now is     2273.9 secs

     total energy              =   -4657.28404904 Ry
     estimated scf accuracy    <       0.00149050 Ry

     iteration # 11     ecut=   120.00 Ry     beta= 0.70
     Davidson diagonalization with overlap
     ethr =  2.32E-07,  avg # of iterations =  2.0

     negative rho (up, down):  2.345E+00 0.000E+00

     total cpu time spent up to now is     2324.0 secs

     total energy              =   -4657.28402800 Ry
     estimated scf accuracy    <       0.00220204 Ry

     iteration # 12     ecut=   120.00 Ry     beta= 0.70
     Davidson diagonalization with overlap
     ethr =  2.32E-07,  avg # of iterations =  2.0

     negative rho (up, down):  2.345E+00 0.000E+00

     total cpu time spent up to now is     2375.8 secs

     total energy              =   -4657.28408041 Ry
     estimated scf accuracy    <       0.00147148 Ry

     iteration # 13     ecut=   120.00 Ry     beta= 0.70
     Davidson diagonalization with overlap
     ethr =  2.32E-07,  avg # of iterations =  2.0

     negative rho (up, down):  2.345E+00 0.000E+00

     total cpu time spent up to now is     2425.3 secs

     total energy              =   -4657.28417266 Ry
     estimated scf accuracy    <       0.00001198 Ry

     iteration # 14     ecut=   120.00 Ry     beta= 0.70
     Davidson diagonalization with overlap
     ethr =  2.66E-09,  avg # of iterations =  4.0

     negative rho (up, down):  2.345E+00 0.000E+00

     total cpu time spent up to now is     2483.1 secs

     total energy              =   -4657.28417258 Ry
     estimated scf accuracy    <       0.00010584 Ry

     iteration # 15     ecut=   120.00 Ry     beta= 0.70
     Davidson diagonalization with overlap
     ethr =  2.66E-09,  avg # of iterations =  3.0

     negative rho (up, down):  2.345E+00 0.000E+00

     total cpu time spent up to now is     2536.0 secs

     total energy              =   -4657.28417651 Ry
     estimated scf accuracy    <       0.00002822 Ry

     iteration # 16     ecut=   120.00 Ry     beta= 0.70
     Davidson diagonalization with overlap
     ethr =  2.66E-09,  avg # of iterations =  3.0

     negative rho (up, down):  2.345E+00 0.000E+00

     total cpu time spent up to now is     2589.5 secs

     total energy              =   -4657.28417456 Ry
     estimated scf accuracy    <       0.00008614 Ry

     iteration # 17     ecut=   120.00 Ry     beta= 0.70
     Davidson diagonalization with overlap
     ethr =  2.66E-09,  avg # of iterations =  3.0

     negative rho (up, down):  2.345E+00 0.000E+00

     total cpu time spent up to now is     2641.4 secs

     total energy              =   -4657.28417810 Ry
     estimated scf accuracy    <       0.00000769 Ry

     iteration # 18     ecut=   120.00 Ry     beta= 0.70
     Davidson diagonalization with overlap
     ethr =  1.71E-09,  avg # of iterations =  2.0

     negative rho (up, down):  2.345E+00 0.000E+00

     total cpu time spent up to now is     2695.1 secs

     total energy              =   -4657.28417846 Ry
     estimated scf accuracy    <       0.00000641 Ry

     iteration # 19     ecut=   120.00 Ry     beta= 0.70
     Davidson diagonalization with overlap
     ethr =  1.43E-09,  avg # of iterations =  2.0

     negative rho (up, down):  2.345E+00 0.000E+00

     total cpu time spent up to now is     2744.1 secs

     total energy              =   -4657.28417869 Ry
     estimated scf accuracy    <       0.00000249 Ry

     iteration # 20     ecut=   120.00 Ry     beta= 0.70
     Davidson diagonalization with overlap
     ethr =  5.54E-10,  avg # of iterations =  2.0

     negative rho (up, down):  2.345E+00 0.000E+00

     total cpu time spent up to now is     2794.1 secs

     total energy              =   -4657.28417867 Ry
     estimated scf accuracy    <       0.00000323 Ry

     iteration # 21     ecut=   120.00 Ry     beta= 0.70
     Davidson diagonalization with overlap
     ethr =  5.54E-10,  avg # of iterations =  2.0

     negative rho (up, down):  2.345E+00 0.000E+00

     total cpu time spent up to now is     2845.4 secs

     total energy              =   -4657.28417833 Ry
     estimated scf accuracy    <       0.00000967 Ry

     iteration # 22     ecut=   120.00 Ry     beta= 0.70
     Davidson diagonalization with overlap
     ethr =  5.54E-10,  avg # of iterations =  3.0

     negative rho (up, down):  2.345E+00 0.000E+00

     total cpu time spent up to now is     2898.4 secs

     total energy              =   -4657.28417819 Ry
     estimated scf accuracy    <       0.00001538 Ry

     iteration # 23     ecut=   120.00 Ry     beta= 0.70
     Davidson diagonalization with overlap
     ethr =  5.54E-10,  avg # of iterations =  2.0

     negative rho (up, down):  2.345E+00 0.000E+00

     total cpu time spent up to now is     2950.0 secs

     End of self-consistent calculation

          k = 0.0000 0.0000 0.0000 ( 66693 PWs)   bands (ev):

   -39.1645 -39.1602 -39.1601 -39.1574 -39.1574 -39.1539 -39.1539 -39.1538
   -39.1538 -32.8309 -32.8309 -32.8274 -32.8204 -32.8204 -32.8204 -32.8203
   -32.8161 -32.8160 -26.4035 -26.4034 -26.3884 -26.3884 -26.3882 -26.3881
   -26.3795 -26.3741 -26.3740 -19.8260 -19.8257 -19.8253 -19.8253 -19.8147
   -19.8146 -19.7956 -19.7956 -19.7689  -6.7211  -6.6521  -6.6521  -6.5683
    -6.5683  -6.5263  -6.5262  -6.5192  -6.5192  -6.4709  -6.4628  -6.4152
    -6.4151  -6.3532  -6.3531  -6.3217  -6.3216  -6.2828  -6.2828  -6.2587
    -6.2587  -6.2541  -6.2541  -6.2524  -6.2524  -6.2374  -6.2374  -3.5286
    -3.5286  -3.3950  -3.3629  -3.3628  -3.3616  -3.3616  -3.3504  -3.3503
    -3.2846  -3.2846  -3.2134  -3.0764  -3.0763  -3.0732  -3.0732  -3.0671
    -3.0671  -2.9313  -2.9312  -2.9094  -2.9093  -2.7812  -2.6148  -2.6147
    -2.5795  -2.5794  -2.3896  -2.3895  -2.3490  -2.3489  -2.1261  -2.1261
    -2.0658  -2.0658  -2.0256  -1.9688  -1.9688  -1.9649  -1.9649  -1.8018
    -1.8018  -1.5161  -1.5161  -1.5122  -1.5122  -1.4691  -1.4220  -1.4219
    -1.3936  -1.3936  -1.1175  -1.1175  -1.0597   1.6821   1.6821   1.7459
     1.7459   1.8542   1.8542   1.8633   1.8634   1.8870   1.8871   1.8931
     1.8931   1.9727   1.9727   2.0539   2.0539   2.0857   2.0857   2.1402
     2.1402   2.2233   2.2357   2.2359   2.2534   2.2534   2.2644   2.3372
    20.2724  20.9098  21.1864  21.5295  21.9253  21.9393  21.9393  22.1102
    22.1662  22.1973  22.1973  22.3757  22.3757  22.6509  22.6510  22.8689
    22.8689  22.9086  22.9086  22.9088  22.9088  22.9453  22.9454  22.9582
    22.9583  22.9888  22.9888  23.3048  23.3048  23.4091  23.4091  23.8546
    23.8547  23.8848  23.8848  24.2273  24.2274  24.2783  24.2783  24.4178
    24.4179  24.4228  24.4229  24.4483  24.4483  24.4621  24.4622  24.5979
    24.5980  24.6207  24.6207  25.0165  25.0165  25.0653  25.0653  25.3691
    25.3692  25.4657  25.4658  26.2324  26.2325  26.2326  26.2326  26.2797
    26.2797  26.3926  26.3927  26.5964  26.5964  26.7051  26.7052  26.8669
    26.8669  27.0469  27.0470  27.7528  27.7528  27.8765  27.8766  27.9141
    27.9142  28.2025  28.2025  28.2040  28.2347  28.2831  28.7919  28.7920
    28.8507  28.8507  29.4337  29.4338  29.4376  29.4376  29.4948  29.4949
    29.5199  29.5199  29.6391  29.6391  29.6560  29.6561  29.6708  29.6709
    29.8341  29.8341  30.2782  30.2782  30.3044  30.3044  30.3134  30.3134
    30.3681  30.3682  30.7991  30.7991  30.8138  30.8138  31.8197  31.8197
    31.9613  31.9614  31.9777  31.9778  32.1212  32.1399

     the Fermi energy is    28.0545 ev

!    total energy              =   -4657.28417881 Ry
     estimated scf accuracy    <       0.00000011 Ry
     smearing contrib. (-TS)   =      -0.09110842 Ry
     internal energy E=F+TS    =   -4657.19307039 Ry

     The total energy is F=E-TS. E is the sum of the following terms:
     one-electron contribution =     101.81944084 Ry
     hartree contribution      =     349.18074352 Ry
     xc contribution           =   -1412.08164092 Ry
     ewald contribution        =   -3696.11161383 Ry

     convergence has been achieved in  23 iterations

     negative rho (up, down):  2.345E+00 0.000E+00

     Forces acting on atoms (cartesian axes, Ry/au):

     atom    1 type  1   force =     0.25866001    0.23863413    0.14629047
     atom    2 type  2   force =     0.24678192   -0.25230014   -0.13135118
     atom    3 type  3   force =    -0.27473675    0.26353528   -0.17643222
     atom    4 type  4   force =    -0.23076768   -0.24956992    0.16148267
     atom    5 type  1   force =     0.25868437    0.23830910    0.14629350
     atom    6 type  2   force =     0.24677392   -0.25231760   -0.13135106
     atom    7 type  3   force =    -0.27472528    0.26334419   -0.17642111
     atom    8 type  4   force =    -0.23071864   -0.24964831    0.16147014
     atom    9 type  1   force =     0.25866355    0.23839389    0.14629318
     atom   10 type  2   force =     0.24679899   -0.25232609   -0.13134468
     atom   11 type  3   force =    -0.27473226    0.26351000   -0.17642682
     atom   12 type  4   force =    -0.23071175   -0.24958519    0.16148208
     atom   13 type  1   force =     0.25866110    0.23851797    0.14630413
     atom   14 type  2   force =     0.24675527   -0.25231686   -0.13135650
     atom   15 type  3   force =    -0.27465009    0.26346847   -0.17642866
     atom   16 type  4   force =    -0.23067689   -0.24959569    0.16148320
     atom   17 type  1   force =     0.25862387    0.23832855    0.14630192
     atom   18 type  2   force =     0.24674873   -0.25229508   -0.13134160
     atom   19 type  3   force =    -0.27467133    0.26346164   -0.17643434
     atom   20 type  4   force =    -0.23071042   -0.24964939    0.16149109
     atom   21 type  1   force =     0.25867323    0.23847374    0.14631103
     atom   22 type  2   force =     0.24674785   -0.25229792   -0.13135895
     atom   23 type  3   force =    -0.27466961    0.26344943   -0.17643367
     atom   24 type  4   force =    -0.23068491   -0.24952154    0.16149332
     atom   25 type  1   force =     0.25855708    0.23850192    0.14629511
     atom   26 type  2   force =     0.24673605   -0.25230615   -0.13135009
     atom   27 type  3   force =    -0.27466282    0.26353952   -0.17641941
     atom   28 type  4   force =    -0.23065010   -0.24963719    0.16147379
     atom   29 type  1   force =     0.25856813    0.23839246    0.14630020
     atom   30 type  2   force =     0.24674194   -0.25235235   -0.13136560
     atom   31 type  3   force =    -0.27465265    0.26343524   -0.17642748
     atom   32 type  4   force =    -0.23066068   -0.24967326    0.16148237
     atom   33 type  1   force =     0.25854352    0.23842050    0.14631129
     atom   34 type  2   force =     0.24672868   -0.25225041   -0.13135085
     atom   35 type  3   force =    -0.27466165    0.26342397   -0.17643266
     atom   36 type  4   force =    -0.23070471   -0.24949693    0.16146738
     The non-local contrib.  to forces
     atom    1 type  1   force =    -0.07068029   -0.06613361   -0.11027496
     atom    2 type  2   force =    -0.08124388    0.06866939    0.02853374
     atom    3 type  3   force =     0.06130262   -0.06297306    0.16101617
     atom    4 type  4   force =     0.08581456    0.07770540   -0.02407085
     atom    5 type  1   force =    -0.07074742   -0.06624821   -0.11027395
     atom    6 type  2   force =    -0.08124227    0.06865299    0.02854888
     atom    7 type  3   force =     0.06128593   -0.06315256    0.16099561
     atom    8 type  4   force =     0.08582593    0.07768677   -0.02408450
     atom    9 type  1   force =    -0.07074677   -0.06624028   -0.11027964
     atom   10 type  2   force =    -0.08127279    0.06869302    0.02854805
     atom   11 type  3   force =     0.06127813   -0.06296497    0.16100808
     atom   12 type  4   force =     0.08585592    0.07775225   -0.02407572
     atom   13 type  1   force =    -0.07079047   -0.06617091   -0.11028223
     atom   14 type  2   force =    -0.08123781    0.06868096    0.02854342
     atom   15 type  3   force =     0.06132036   -0.06300879    0.16100017
     atom   16 type  4   force =     0.08583207    0.07769321   -0.02409485
     atom   17 type  1   force =    -0.07073827   -0.06631644   -0.11027429
     atom   18 type  2   force =    -0.08124662    0.06867512    0.02854438
     atom   19 type  3   force =     0.06132999   -0.06305216    0.16099657
     atom   20 type  4   force =     0.08586875    0.07768886   -0.02410131
     atom   21 type  1   force =    -0.07078508   -0.06612870   -0.11026016
     atom   22 type  2   force =    -0.08122884    0.06866359    0.02855385
     atom   23 type  3   force =     0.06132318   -0.06302577    0.16097785
     atom   24 type  4   force =     0.08584665    0.07774168   -0.02409895
     atom   25 type  1   force =    -0.07076380   -0.06612491   -0.11027051
     atom   26 type  2   force =    -0.08121698    0.06866059    0.02853847
     atom   27 type  3   force =     0.06137175   -0.06293712    0.16099061
     atom   28 type  4   force =     0.08589063    0.07769560   -0.02407567
     atom   29 type  1   force =    -0.07073699   -0.06619593   -0.11027687
     atom   30 type  2   force =    -0.08124161    0.06869452    0.02855488
     atom   31 type  3   force =     0.06136809   -0.06303915    0.16100698
     atom   32 type  4   force =     0.08586922    0.07768734   -0.02407841
     atom   33 type  1   force =    -0.07070921   -0.06626187   -0.11025995
     atom   34 type  2   force =    -0.08123317    0.06867054    0.02854644
     atom   35 type  3   force =     0.06138490   -0.06312441    0.16100682
     atom   36 type  4   force =     0.08586855    0.07775865   -0.02408085
     The ionic contribution  to forces
     atom    1 type  1   force =     4.09600581    3.99373336    3.18192661
     atom    2 type  2   force =     4.39359168   -4.41764294   -3.10018528
     atom    3 type  3   force =    -4.53696377    4.47139733   -3.31511147
     atom    4 type  4   force =    -3.95414990   -4.04274458    3.23321973
     atom    5 type  1   force =     4.09867578    3.99187718    3.18194417
     atom    6 type  2   force =     4.39473116   -4.41968799   -3.10030640
     atom    7 type  3   force =    -4.53653431    4.47125844   -3.31486772
     atom    8 type  4   force =    -3.95186322   -4.04586590    3.23311148
     atom    9 type  1   force =     4.09797871    3.99199963    3.18195414
     atom   10 type  2   force =     4.39297296   -4.41832057   -3.10031446
     atom   11 type  3   force =    -4.53541832    4.46911102   -3.31494681
     atom   12 type  4   force =    -3.95296411   -4.04544117    3.23326737
     atom   13 type  1   force =     4.10037685    3.99250652    3.18207760
     atom   14 type  2   force =     4.39494997   -4.41724719   -3.10035888
     atom   15 type  3   force =    -4.53618168    4.46983938   -3.31495346
     atom   16 type  4   force =    -3.95338122   -4.04411613    3.23337061
     atom   17 type  1   force =     4.09866314    3.99427130    3.18200655
     atom   18 type  2   force =     4.39543732   -4.41852933   -3.10005598
     atom   19 type  3   force =    -4.53797591    4.47168703   -3.31499023
     atom   20 type  4   force =    -3.95542751   -4.04394034    3.23326312
     atom   21 type  1   force =     4.10058082    3.99058876    3.18192112
     atom   22 type  2   force =     4.39637366   -4.41942774   -3.10033135
     atom   23 type  3   force =    -4.53775281    4.47011750   -3.31483536
     atom   24 type  4   force =    -3.95279289   -4.04526527    3.23327743
     atom   25 type  1   force =     4.09710159    3.99151704    3.18188873
     atom   26 type  2   force =     4.39345469   -4.41877268   -3.10024989
     atom   27 type  3   force =    -4.53981011    4.47074039   -3.31483419
     atom   28 type  4   force =    -3.95497761   -4.04514435    3.23321342
     atom   29 type  1   force =     4.09599112    3.99214956    3.18198551
     atom   30 type  2   force =     4.39185392   -4.41828789   -3.10035313
     atom   31 type  3   force =    -4.53829681    4.46990341   -3.31501937
     atom   32 type  4   force =    -3.95530680   -4.04534321    3.23334323
     atom   33 type  1   force =     4.09495687    3.99344235    3.18193241
     atom   34 type  2   force =     4.39280382   -4.41804514   -3.10010505
     atom   35 type  3   force =    -4.53977089    4.47117332   -3.31505255
     atom   36 type  4   force =    -3.95693201   -4.04349108    3.23316838
     The local contribution  to forces
     atom    1 type  1   force =    -3.76235397   -3.68635770   -2.90777289
     atom    2 type  2   force =    -4.07032236    4.10125402    2.94049246
     atom    3 type  3   force =     4.20369944   -4.14860668    2.97196648
     atom    4 type  4   force =     3.64231927    3.72017296   -3.04870840
     atom    5 type  1   force =    -3.76507233   -3.68554325   -2.90779156
     atom    6 type  2   force =    -4.07192928    4.10297715    2.94057698
     atom    7 type  3   force =     4.20317652   -4.14967626    2.97176186
     atom    8 type  4   force =     3.63999703    3.72298274   -3.04858938
     atom    9 type  1   force =    -3.76445429   -3.68543430   -2.90778981
     atom   10 type  2   force =    -4.06960936    4.10230503    2.94058440
     atom   11 type  3   force =     4.20217413   -4.14660355    2.97179775
     atom   12 type  4   force =     3.64136155    3.72320338   -3.04873680
     atom   13 type  1   force =    -3.76687969   -3.68552602   -2.90788891
     atom   14 type  2   force =    -4.07225060    4.10085069    2.94063253
     atom   15 type  3   force =     4.20320253   -4.14750072    2.97182794
     atom   16 type  4   force =     3.64182567    3.72153378   -3.04883966
     atom   17 type  1   force =    -3.76520963   -3.68793323   -2.90782768
     atom   18 type  2   force =    -4.07217792    4.10185392    2.94032940
     atom   19 type  3   force =     4.20494134   -4.14941916    2.97185339
     atom   20 type  4   force =     3.64404556    3.72103314   -3.04869984
     atom   21 type  1   force =    -3.76690487   -3.68365066   -2.90773356
     atom   22 type  2   force =    -4.07333769    4.10342301    2.94057724
     atom   23 type  3   force =     4.20480638   -4.14785071    2.97172892
     atom   24 type  4   force =     3.64121471    3.72311950   -3.04871412
     atom   25 type  1   force =    -3.76371107   -3.68458563   -2.90773410
     atom   26 type  2   force =    -4.07031349    4.10228924    2.94053248
     atom   27 type  3   force =     4.20688949   -4.14787632    2.97172785
     atom   28 type  4   force =     3.64373891    3.72249445   -3.04871507
     atom   29 type  1   force =    -3.76250687   -3.68544044   -2.90781784
     atom   30 type  2   force =    -4.06876874    4.10154845    2.94060818
     atom   31 type  3   force =     4.20552718   -4.14778556    2.97189496
     atom   32 type  4   force =     3.64389675    3.72244139   -3.04882816
     atom   33 type  1   force =    -3.76159411   -3.68684376   -2.90775999
     atom   34 type  2   force =    -4.07004033    4.10215871    2.94037777
     atom   35 type  3   force =     4.20677688   -4.14922301    2.97190649
     atom   36 type  4   force =     3.64543279    3.72132589   -3.04866077
     The core correction contribution to forces
     atom    1 type  1   force =    -0.00411247   -0.00207709   -0.01763125
     atom    2 type  2   force =     0.00498934   -0.00463803   -0.00011275
     atom    3 type  3   force =    -0.00300990    0.00423423    0.00575875
     atom    4 type  4   force =    -0.00504223   -0.00476486    0.00100173
     atom    5 type  1   force =    -0.00411620   -0.00207421   -0.01763065
     atom    6 type  2   force =     0.00498794   -0.00463711   -0.00011304
     atom    7 type  3   force =    -0.00301045    0.00423142    0.00575805
     atom    8 type  4   force =    -0.00504245   -0.00476477    0.00100199
     atom    9 type  1   force =    -0.00411779   -0.00207825   -0.01763178
     atom   10 type  2   force =     0.00499052   -0.00463806   -0.00011275
     atom   11 type  3   force =    -0.00301368    0.00423988    0.00575866
     atom   12 type  4   force =    -0.00504204   -0.00476389    0.00100184
     atom   13 type  1   force =    -0.00411983   -0.00207457   -0.01763103
     atom   14 type  2   force =     0.00498761   -0.00463821   -0.00011279
     atom   15 type  3   force =    -0.00301147    0.00423733    0.00575815
     atom   16 type  4   force =    -0.00504128   -0.00476380    0.00100251
     atom   17 type  1   force =    -0.00411354   -0.00208190   -0.01763003
     atom   18 type  2   force =     0.00498912   -0.00463786   -0.00011274
     atom   19 type  3   force =    -0.00300961    0.00423333    0.00575807
     atom   20 type  4   force =    -0.00504160   -0.00476586    0.00100330
     atom   21 type  1   force =    -0.00412327   -0.00206980   -0.01762831
     atom   22 type  2   force =     0.00498778   -0.00463669   -0.00011331
     atom   23 type  3   force =    -0.00301199    0.00423602    0.00575723
     atom   24 type  4   force =    -0.00504248   -0.00476328    0.00100323
     atom   25 type  1   force =    -0.00412183   -0.00207013   -0.01762955
     atom   26 type  2   force =     0.00498774   -0.00463749   -0.00011250
     atom   27 type  3   force =    -0.00300755    0.00423714    0.00575774
     atom   28 type  4   force =    -0.00504218   -0.00476453    0.00100172
     atom   29 type  1   force =    -0.00412242   -0.00207727   -0.01763000
     atom   30 type  2   force =     0.00498862   -0.00463912   -0.00011339
     atom   31 type  3   force =    -0.00300993    0.00423583    0.00575833
     atom   32 type  4   force =    -0.00504233   -0.00476512    0.00100178
     atom   33 type  1   force =    -0.00411391   -0.00207807   -0.01762687
     atom   34 type  2   force =     0.00498774   -0.00463672   -0.00011306
     atom   35 type  3   force =    -0.00300478    0.00423182    0.00575832
     atom   36 type  4   force =    -0.00504260   -0.00476367    0.00100176
     The Hubbard contrib.    to forces
     atom    1 type  1   force =     0.00000000    0.00000000    0.00000000
     atom    2 type  2   force =     0.00000000    0.00000000    0.00000000
     atom    3 type  3   force =     0.00000000    0.00000000    0.00000000
     atom    4 type  4   force =     0.00000000    0.00000000    0.00000000
     atom    5 type  1   force =     0.00000000    0.00000000    0.00000000
     atom    6 type  2   force =     0.00000000    0.00000000    0.00000000
     atom    7 type  3   force =     0.00000000    0.00000000    0.00000000
     atom    8 type  4   force =     0.00000000    0.00000000    0.00000000
     atom    9 type  1   force =     0.00000000    0.00000000    0.00000000
     atom   10 type  2   force =     0.00000000    0.00000000    0.00000000
     atom   11 type  3   force =     0.00000000    0.00000000    0.00000000
     atom   12 type  4   force =     0.00000000    0.00000000    0.00000000
     atom   13 type  1   force =     0.00000000    0.00000000    0.00000000
     atom   14 type  2   force =     0.00000000    0.00000000    0.00000000
     atom   15 type  3   force =     0.00000000    0.00000000    0.00000000
     atom   16 type  4   force =     0.00000000    0.00000000    0.00000000
     atom   17 type  1   force =     0.00000000    0.00000000    0.00000000
     atom   18 type  2   force =     0.00000000    0.00000000    0.00000000
     atom   19 type  3   force =     0.00000000    0.00000000    0.00000000
     atom   20 type  4   force =     0.00000000    0.00000000    0.00000000
     atom   21 type  1   force =     0.00000000    0.00000000    0.00000000
     atom   22 type  2   force =     0.00000000    0.00000000    0.00000000
     atom   23 type  3   force =     0.00000000    0.00000000    0.00000000
     atom   24 type  4   force =     0.00000000    0.00000000    0.00000000
     atom   25 type  1   force =     0.00000000    0.00000000    0.00000000
     atom   26 type  2   force =     0.00000000    0.00000000    0.00000000
     atom   27 type  3   force =     0.00000000    0.00000000    0.00000000
     atom   28 type  4   force =     0.00000000    0.00000000    0.00000000
     atom   29 type  1   force =     0.00000000    0.00000000    0.00000000
     atom   30 type  2   force =     0.00000000    0.00000000    0.00000000
     atom   31 type  3   force =     0.00000000    0.00000000    0.00000000
     atom   32 type  4   force =     0.00000000    0.00000000    0.00000000
     atom   33 type  1   force =     0.00000000    0.00000000    0.00000000
     atom   34 type  2   force =     0.00000000    0.00000000    0.00000000
     atom   35 type  3   force =     0.00000000    0.00000000    0.00000000
     atom   36 type  4   force =     0.00000000    0.00000000    0.00000000
     The SCF correction term to forces
     atom    1 type  1   force =    -0.00020293   -0.00052842    0.00004294
     atom    2 type  2   force =    -0.00023672    0.00005982   -0.00007939
     atom    3 type  3   force =     0.00023098   -0.00051414   -0.00006218
     atom    4 type  4   force =     0.00028676    0.00006357    0.00004043
     atom    5 type  1   force =    -0.00005932    0.00030000    0.00004545
     atom    6 type  2   force =     0.00022252    0.00037976   -0.00005750
     atom    7 type  3   force =     0.00035317    0.00068556   -0.00006894
     atom    8 type  4   force =     0.00036020    0.00031526    0.00003053
     atom    9 type  1   force =    -0.00000018    0.00014950    0.00004024
     atom   10 type  2   force =    -0.00028622   -0.00036310   -0.00004994
     atom   11 type  3   force =     0.00024362   -0.00026997   -0.00004452
     atom   12 type  4   force =     0.00007306   -0.00033335    0.00002536
     atom   13 type  1   force =     0.00007038   -0.00021464    0.00002866
     atom   14 type  2   force =     0.00030223    0.00003930   -0.00006080
     atom   15 type  3   force =     0.00001630   -0.00009632   -0.00006147
     atom   16 type  4   force =     0.00008400    0.00005966    0.00004456
     atom   17 type  1   force =     0.00001830    0.00039122    0.00002733
     atom   18 type  2   force =    -0.00025704    0.00034548   -0.00004669
     atom   19 type  3   force =     0.00003900    0.00001502   -0.00005217
     atom   20 type  4   force =    -0.00015950    0.00033721    0.00002578
     atom   21 type  1   force =    -0.00009825   -0.00026345    0.00001191
     atom   22 type  2   force =    -0.00005093   -0.00031767   -0.00004541
     atom   23 type  3   force =    -0.00003825   -0.00002520   -0.00006234
     atom   24 type  4   force =     0.00008523   -0.00035175    0.00002571
     atom   25 type  1   force =     0.00004831   -0.00023204    0.00004051
     atom   26 type  2   force =    -0.00017978    0.00015660   -0.00005868
     atom   27 type  3   force =    -0.00011027   -0.00062217   -0.00006146
     atom   28 type  4   force =    -0.00026372    0.00008405    0.00004937
     atom   29 type  1   force =    -0.00006057   -0.00004106    0.00003937
     atom   30 type  2   force =    -0.00009411    0.00033408   -0.00006217
     atom   31 type  3   force =    -0.00024504    0.00012312   -0.00006840
     atom   32 type  4   force =    -0.00008139    0.00030875    0.00004390
     atom   33 type  1   force =     0.00000000    0.00016426    0.00002567
     atom   34 type  2   force =     0.00020674   -0.00039540   -0.00005696
     atom   35 type  3   force =    -0.00005163    0.00036866   -0.00005177
     atom   36 type  4   force =    -0.00003532   -0.00032431    0.00003883

     Total force =     2.332555     Total SCF correction =     0.002188


     Computing stress (Cartesian axis) and pressure


     negative rho (up, down):  2.345E+00 0.000E+00
          total   stress  (Ry/bohr**3)                   (kbar)     P=     1483.71
   0.01196928  -0.00004365   0.00006625         1760.74       -6.42        9.75
  -0.00004365   0.01189897   0.00003753           -6.42     1750.40        5.52
   0.00006625   0.00003753   0.00638992            9.75        5.52      939.99

     Energy error            =      9.2E-01 Ry
     Gradient error          =      2.7E-01 Ry/Bohr

     number of scf cycles    =   2
     number of bfgs steps    =   1

     energy             old  =   -4656.3595823839 Ry
     energy             new  =   -4657.2841788100 Ry

     CASE: energy            _new < energy            _old

     new trust radius        =       0.2244423339 bohr
     new conv_thr            =       0.0000010000 Ry


ATOMIC_POSITIONS (angstrom)
Hf            0.9200090860        0.9202545797        0.9076953755
Nb            0.9200511791        2.7510946182        2.7608270259
Ta            2.7517407733        0.9192198493        2.7631817586
Zr            2.7482147503        2.7494532127        0.9082948170
Hf            0.9199572868        4.5901950147        0.9076937690
Nb            0.9200453353        6.4211056307        2.7608293046
Ta            2.7517334635        4.5891668906        2.7631852842
Zr            2.7482041308        6.4194753797        0.9082937469
Hf            0.9199697942        8.2602151420        0.9076966804
Nb            0.9200551677       10.0910971707        2.7608304777
Ta            2.7517183957        8.2592362660        2.7631818616
Zr            2.7482161380       10.0894887345        0.9082951393
Hf            4.5899211513        0.9202406613        0.9076941577
Nb            4.5900389091        2.7510911924        2.7608256819
Ta            6.4217479426        0.9192168321        2.7631866467
Zr            6.4182291080        2.7494670716        0.9082930757
Hf            4.5899429875        4.5901544503        0.9076921757
Nb            4.5900348744        6.4211013178        2.7608263530
Ta            6.4217709932        4.5891888388        2.7631865382
Zr            6.4182441817        6.4194500825        0.9082969157
Hf            4.5899207976        8.2602635186        0.9076961189
Nb            4.5900299331       10.0911072716        2.7608258051
Ta            6.4217644715        8.2592123612        2.7631858104
Zr            6.4182243669       10.0895054640        0.9082969404
Hf            8.2599609746        0.9202546178        0.9076917140
Nb            8.2600344410        2.7510985091        2.7608267203
Ta           10.0917943798        0.9192341828        2.7631863793
Zr           10.0882627415        2.7494646438        0.9082925391
Hf            8.2599864711        4.5902122579        0.9076942601
Nb            8.2600402976        6.4210862841        2.7608243262
Ta           10.0917734252        4.5892078580        2.7631839843
Zr           10.0882637755        6.4194651213        0.9082926406
Hf            8.2599983963        8.2601898131        0.9076977727
Nb            8.2600371043       10.0911139297        2.7608243174
Ta           10.0917946964        8.2591852259        2.7631817571
Zr           10.0882680791       10.0894860051        0.9082921288



     Writing config-only to output data dir outdir/pwscf.save/
     NEW-OLD atomic charge density approx. for the potential

     negative rho (up, down):  2.345E+00 0.000E+00

     total cpu time spent up to now is     3061.1 secs

     Self-consistent Calculation

     iteration #  1     ecut=   120.00 Ry     beta= 0.70
     Davidson diagonalization with overlap
     ethr =  1.00E-06,  avg # of iterations = 17.0

     negative rho (up, down):  2.345E+00 0.000E+00

[...]
     atom   34 type  2   force =     0.00006533    0.00001163    0.00001076
     atom   35 type  3   force =     0.00012159   -0.00009395    0.00003471
     atom   36 type  4   force =    -0.00013623   -0.00003163   -0.00004441
     The ionic contribution  to forces
     atom    1 type  1   force =    -0.00113577   -0.00445756    0.00285230
     atom    2 type  2   force =     0.00215932   -0.00320811   -0.00082970
     atom    3 type  3   force =    -0.00142434   -0.00166268   -0.00070240
     atom    4 type  4   force =     0.00430786   -0.00112215   -0.00135537
     atom    5 type  1   force =    -0.00338467   -0.00441129    0.00294622
     atom    6 type  2   force =     0.00337965    0.00356629   -0.00090464
     atom    7 type  3   force =    -0.00202948    0.00103018   -0.00076941
     atom    8 type  4   force =     0.00608514    0.00875293   -0.00124394
     atom    9 type  1   force =    -0.00037223    0.00054716    0.00293537
     atom   10 type  2   force =     0.00446725   -0.00373202   -0.00085329
     atom   11 type  3   force =    -0.00067463    0.00471642   -0.00079659
     atom   12 type  4   force =     0.00695138   -0.00002333   -0.00133031
     atom   13 type  1   force =     0.00013688   -0.00722569    0.00292281
     atom   14 type  2   force =     0.00575275   -0.00368808   -0.00082590
     atom   15 type  3   force =    -0.00723697    0.00004227   -0.00065639
     atom   16 type  4   force =     0.00318675    0.00114246   -0.00140788
     atom   17 type  1   force =     0.00221991   -0.00222220    0.00298859
     atom   18 type  2   force =     0.00550839    0.00418378   -0.00093962
     atom   19 type  3   force =    -0.00531483    0.00006056   -0.00075081
     atom   20 type  4   force =     0.00053316    0.00723247   -0.00131867
     atom   21 type  1   force =     0.00037072    0.00112193    0.00298921
     atom   22 type  2   force =     0.00452167   -0.00385563   -0.00085072
     atom   23 type  3   force =    -0.00823674    0.00408939   -0.00077980
     atom   24 type  4   force =    -0.00145381   -0.00089353   -0.00139777
     atom   25 type  1   force =    -0.00461488   -0.00215363    0.00285338
     atom   26 type  2   force =     0.00166968   -0.00162414   -0.00078675
     atom   27 type  3   force =    -0.00444300    0.00154328   -0.00062417
     atom   28 type  4   force =     0.00166510    0.00165540   -0.00142584
     atom   29 type  1   force =    -0.00452293   -0.00579120    0.00291949
     atom   30 type  2   force =     0.00073095    0.00223437   -0.00086272
     atom   31 type  3   force =    -0.00576444   -0.00140858   -0.00068997
     atom   32 type  4   force =     0.00251024    0.00612904   -0.00135122
     atom   33 type  1   force =    -0.00561975   -0.00029333    0.00297182
     atom   34 type  2   force =     0.00060499   -0.00403580   -0.00081507
     atom   35 type  3   force =    -0.00415539    0.00391068   -0.00071418
     atom   36 type  4   force =     0.00362209   -0.00014965   -0.00139608
     The local contribution  to forces
     atom    1 type  1   force =     0.00062133    0.00398533   -0.00257046
     atom    2 type  2   force =    -0.00211937    0.00334480    0.00080127
     atom    3 type  3   force =     0.00113545    0.00174518    0.00066013
     atom    4 type  4   force =    -0.00405518    0.00129823    0.00125249
     atom    5 type  1   force =     0.00265470    0.00398513   -0.00265676
     atom    6 type  2   force =    -0.00337583   -0.00358745    0.00087063
     atom    7 type  3   force =     0.00147733   -0.00076805    0.00072140
     atom    8 type  4   force =    -0.00587483   -0.00835562    0.00114816
     atom    9 type  1   force =    -0.00020811   -0.00113478   -0.00264652
     atom   10 type  2   force =    -0.00439351    0.00350327    0.00082206
     atom   11 type  3   force =     0.00029588   -0.00462120    0.00074490
     atom   12 type  4   force =    -0.00644429    0.00018464    0.00122985
     atom   13 type  1   force =    -0.00059095    0.00650510   -0.00263465
     atom   14 type  2   force =    -0.00558191    0.00359704    0.00079892
     atom   15 type  3   force =     0.00665866    0.00012530    0.00061905
     atom   16 type  4   force =    -0.00279434   -0.00089106    0.00130087
     atom   17 type  1   force =    -0.00261133    0.00179492   -0.00269553
     atom   18 type  2   force =    -0.00547402   -0.00416345    0.00090371
     atom   19 type  3   force =     0.00496202   -0.00002129    0.00070404
     atom   20 type  4   force =    -0.00021369   -0.00684957    0.00121654
     atom   21 type  1   force =    -0.00088773   -0.00146087   -0.00269591
     atom   22 type  2   force =    -0.00439216    0.00381384    0.00082140
     atom   23 type  3   force =     0.00773233   -0.00384867    0.00073012
     atom   24 type  4   force =     0.00157044    0.00098249    0.00129084
     atom   25 type  1   force =     0.00389367    0.00180067   -0.00257094
     atom   26 type  2   force =    -0.00160702    0.00176484    0.00076227
     atom   27 type  3   force =     0.00411443   -0.00129601    0.00059083
     atom   28 type  4   force =    -0.00128985   -0.00119527    0.00131736
     atom   29 type  1   force =     0.00394527    0.00512764   -0.00263208
     atom   30 type  2   force =    -0.00049297   -0.00220432    0.00083336
     atom   31 type  3   force =     0.00547298    0.00154740    0.00065078
     atom   32 type  4   force =    -0.00202373   -0.00578153    0.00124729
     atom   33 type  1   force =     0.00502794   -0.00016827   -0.00267982
     atom   34 type  2   force =    -0.00053459    0.00374649    0.00078799
     atom   35 type  3   force =     0.00384710   -0.00386374    0.00067211
     atom   36 type  4   force =    -0.00323107    0.00008300    0.00129024
     The core correction contribution to forces
     atom    1 type  1   force =     0.00004857    0.00002526   -0.00002381
     atom    2 type  2   force =    -0.00000201    0.00000118   -0.00000023
     atom    3 type  3   force =     0.00000436   -0.00000948    0.00000181
     atom    4 type  4   force =     0.00000120   -0.00000126    0.00000182
     atom    5 type  1   force =     0.00005380    0.00003164   -0.00002405
     atom    6 type  2   force =    -0.00000263    0.00000116   -0.00000027
     atom    7 type  3   force =     0.00000347   -0.00000714    0.00000184
     atom    8 type  4   force =     0.00000123    0.00000233    0.00000189
     atom    9 type  1   force =     0.00004901    0.00002712   -0.00002406
     atom   10 type  2   force =    -0.00000294   -0.00000076   -0.00000027
     atom   11 type  3   force =     0.00000510   -0.00001124    0.00000179
     atom   12 type  4   force =     0.00000250   -0.00000026    0.00000184
     atom   13 type  1   force =     0.00005066    0.00002848   -0.00002386
     atom   14 type  2   force =    -0.00000201    0.00000101   -0.00000018
     atom   15 type  3   force =     0.00000414   -0.00000765    0.00000183
     atom   16 type  4   force =    -0.00000011   -0.00000061    0.00000176
     atom   17 type  1   force =     0.00004721    0.00003020   -0.00002411
     atom   18 type  2   force =    -0.00000182   -0.00000015   -0.00000030
     atom   19 type  3   force =     0.00000491   -0.00001119    0.00000179
     atom   20 type  4   force =     0.00000034    0.00000338    0.00000176
     atom   21 type  1   force =     0.00004852    0.00002520   -0.00002419
     atom   22 type  2   force =    -0.00000156    0.00000075   -0.00000022
     atom   23 type  3   force =     0.00000557   -0.00000881    0.00000176
     atom   24 type  4   force =    -0.00000092   -0.00000218    0.00000174
     atom   25 type  1   force =     0.00005026    0.00002396   -0.00002370
     atom   26 type  2   force =    -0.00000199    0.00000120   -0.00000015
     atom   27 type  3   force =     0.00000633   -0.00000998    0.00000186
     atom   28 type  4   force =     0.00000127    0.00000035    0.00000177
     atom   29 type  1   force =     0.00004879    0.00003001   -0.00002396
     atom   30 type  2   force =    -0.00000153    0.00000175   -0.00000020
     atom   31 type  3   force =     0.00000670   -0.00001066    0.00000182
     atom   32 type  4   force =     0.00000074    0.00000352    0.00000180
     atom   33 type  1   force =     0.00005211    0.00002996   -0.00002410
     atom   34 type  2   force =    -0.00000154   -0.00000148   -0.00000019
     atom   35 type  3   force =     0.00000435   -0.00000736    0.00000180
     atom   36 type  4   force =     0.00000074   -0.00000296    0.00000179
     The Hubbard contrib.    to forces
     atom    1 type  1   force =     0.00000000    0.00000000    0.00000000
     atom    2 type  2   force =     0.00000000    0.00000000    0.00000000
     atom    3 type  3   force =     0.00000000    0.00000000    0.00000000
     atom    4 type  4   force =     0.00000000    0.00000000    0.00000000
     atom    5 type  1   force =     0.00000000    0.00000000    0.00000000
     atom    6 type  2   force =     0.00000000    0.00000000    0.00000000
     atom    7 type  3   force =     0.00000000    0.00000000    0.00000000
     atom    8 type  4   force =     0.00000000    0.00000000    0.00000000
     atom    9 type  1   force =     0.00000000    0.00000000    0.00000000
     atom   10 type  2   force =     0.00000000    0.00000000    0.00000000
     atom   11 type  3   force =     0.00000000    0.00000000    0.00000000
     atom   12 type  4   force =     0.00000000    0.00000000    0.00000000
     atom   13 type  1   force =     0.00000000    0.00000000    0.00000000
     atom   14 type  2   force =     0.00000000    0.00000000    0.00000000
     atom   15 type  3   force =     0.00000000    0.00000000    0.00000000
     atom   16 type  4   force =     0.00000000    0.00000000    0.00000000
     atom   17 type  1   force =     0.00000000    0.00000000    0.00000000
     atom   18 type  2   force =     0.00000000    0.00000000    0.00000000
     atom   19 type  3   force =     0.00000000    0.00000000    0.00000000
     atom   20 type  4   force =     0.00000000    0.00000000    0.00000000
     atom   21 type  1   force =     0.00000000    0.00000000    0.00000000
     atom   22 type  2   force =     0.00000000    0.00000000    0.00000000
     atom   23 type  3   force =     0.00000000    0.00000000    0.00000000
     atom   24 type  4   force =     0.00000000    0.00000000    0.00000000
     atom   25 type  1   force =     0.00000000    0.00000000    0.00000000
     atom   26 type  2   force =     0.00000000    0.00000000    0.00000000
     atom   27 type  3   force =     0.00000000    0.00000000    0.00000000
     atom   28 type  4   force =     0.00000000    0.00000000    0.00000000
     atom   29 type  1   force =     0.00000000    0.00000000    0.00000000
     atom   30 type  2   force =     0.00000000    0.00000000    0.00000000
     atom   31 type  3   force =     0.00000000    0.00000000    0.00000000
     atom   32 type  4   force =     0.00000000    0.00000000    0.00000000
     atom   33 type  1   force =     0.00000000    0.00000000    0.00000000
     atom   34 type  2   force =     0.00000000    0.00000000    0.00000000
     atom   35 type  3   force =     0.00000000    0.00000000    0.00000000
     atom   36 type  4   force =     0.00000000    0.00000000    0.00000000
     The SCF correction term to forces
     atom    1 type  1   force =    -0.00005338    0.00001419    0.00000923
     atom    2 type  2   force =     0.00001241   -0.00016281   -0.00000923
     atom    3 type  3   force =    -0.00006077    0.00009077   -0.00000810
     atom    4 type  4   force =     0.00006429   -0.00002990    0.00000722
     atom    5 type  1   force =     0.00004275   -0.00015740    0.00000938
     atom    6 type  2   force =     0.00003993    0.00006333   -0.00000909
     atom    7 type  3   force =     0.00018507   -0.00016051   -0.00000845
     atom    8 type  4   force =     0.00016437    0.00000630    0.00000738
     atom    9 type  1   force =     0.00002338    0.00015759    0.00000868
     atom   10 type  2   force =    -0.00003816    0.00007874   -0.00000844
     atom   11 type  3   force =     0.00003994    0.00008699   -0.00000786
     atom   12 type  4   force =    -0.00007105    0.00000978    0.00000680
     atom   13 type  1   force =    -0.00003598    0.00010472    0.00000879
     atom   14 type  2   force =    -0.00006061    0.00005633   -0.00000885
     atom   15 type  3   force =     0.00009060    0.00005550   -0.00000824
     atom   16 type  4   force =    -0.00003400   -0.00001335    0.00000690
     atom   17 type  1   force =     0.00000043   -0.00005539    0.00000900
     atom   18 type  2   force =     0.00008503   -0.00003077   -0.00000904
     atom   19 type  3   force =    -0.00008764    0.00001315   -0.00000863
     atom   20 type  4   force =    -0.00004393    0.00001098    0.00000748
     atom   21 type  1   force =     0.00003804   -0.00003620    0.00000866
     atom   22 type  2   force =    -0.00001140   -0.00004396   -0.00000865
     atom   23 type  3   force =    -0.00000135   -0.00004992   -0.00000850
     atom   24 type  4   force =     0.00007799   -0.00001281    0.00000688
     atom   25 type  1   force =     0.00008174    0.00000353    0.00000899
     atom   26 type  2   force =     0.00003987   -0.00013781   -0.00000895
     atom   27 type  3   force =    -0.00002329    0.00000246   -0.00000847
     atom   28 type  4   force =    -0.00002219   -0.00018363    0.00000740
     atom   29 type  1   force =    -0.00005071   -0.00002040    0.00000936
     atom   30 type  2   force =    -0.00013235    0.00001697   -0.00000945
     atom   31 type  3   force =    -0.00009150   -0.00013475   -0.00000911
     atom   32 type  4   force =    -0.00011259    0.00002888    0.00000769
     atom   33 type  1   force =    -0.00006978    0.00003081    0.00000937
     atom   34 type  2   force =     0.00004054    0.00010106   -0.00000885
     atom   35 type  3   force =    -0.00003248    0.00015167   -0.00000850
     atom   36 type  4   force =     0.00000195    0.00013901    0.00000688

     Total force =     0.001665     Total SCF correction =     0.000683
     SCF correction compared to forces is large: reduce conv_thr to get better values


     Computing stress (Cartesian axis) and pressure


     negative rho (up, down):  2.344E+00 0.000E+00
          total   stress  (Ry/bohr**3)                   (kbar)     P=     1357.34
   0.01109605   0.00000000   0.00000000         1632.29        0.00        0.00
   0.00000000   0.01104603   0.00000000            0.00     1624.93        0.00
   0.00000000   0.00000000   0.00553890            0.00        0.00      814.80

     Energy error            =      7.7E-06 Ry
     Gradient error          =      3.5E-04 Ry/Bohr

     bfgs converged in   6 scf cycles and   5 bfgs steps
     (criteria: energy <  1.0E-04 Ry, force <  1.0E-03 Ry/Bohr)

     End of BFGS Geometry Optimization

     Final energy             =   -4658.7485015565 Ry

     File outdir/pwscf.bfgs deleted, as requested
Begin final coordinates

ATOMIC_POSITIONS (angstrom)
Hf            0.9176680224        0.9177019738        0.9173521276
Nb            0.9173234497        2.7526248949        2.7525186559
Ta            2.7527284347        0.9173930264        2.7525073352
Zr            2.7522343302        2.7524120661        0.9176242062
Hf            0.9177049499        4.5876836806        0.9173485170
Nb            0.9173393046        6.4225621002        2.7525199979
Ta            2.7527381860        4.5873684005        2.7525078690
Zr            2.7522121020        6.4222559905        0.9176220620
Hf            0.9176377821        8.2576059596        0.9173508845
Nb            0.9173151100       10.0926521295        2.7525204402
Ta            2.7527055935        8.2573505107        2.7525105776
Zr            2.7521841910       10.0923909531        0.9176248834
Hf            4.5876252465        0.9177395962        0.9173471000
Nb            4.5873280794        2.7526229914        2.7525155282
Ta            6.4227987760        0.9173606716        2.7525060972
Zr            6.4222541303        2.7523801565        0.9176260136
Hf            4.5875872276        4.5876453502        0.9173464303
Nb            4.5873035682        6.4225798169        2.7525198425
Ta            6.4227676683        4.5873976647        2.7525092496
Zr            6.4222605519        6.4222685466        0.9176255743
Hf            4.5876286132        8.2576081386        0.9173484470
Nb            4.5873145691       10.0926342860        2.7525176395
Ta            6.4228155496        8.2573511420        2.7525109737
Zr            6.4223108640       10.0924137859        0.9176270915
Hf            8.2577255535        0.9176494414        0.9173494770
Nb            8.2573161809        2.7526189789        2.7525162168
Ta           10.0927512453        0.9173570606        2.7525054863
Zr           10.0922470453        2.7523662296        0.9176262271
Hf            8.2577340775        4.5877322464        0.9173482188
Nb            8.2573219524        6.4225786718        2.7525175871
Ta           10.0927773926        4.5874121293        2.7525064987
Zr           10.0922625090        6.4222837416        0.9176248013
Hf            8.2577506656        8.2576064873        0.9173469976
Nb            8.2573348820       10.0926400800        2.7525171790
Ta           10.0927535576        8.2573441870        2.7525076957
Zr           10.0922386382       10.0924069134        0.9176260706
End final coordinates



     Writing all to output data dir outdir/pwscf.save/

     init_run     :     34.16s CPU     36.08s WALL (       1 calls)
     electrons    :   5838.30s CPU   6011.37s WALL (       6 calls)
     update_pot   :      5.31s CPU      5.35s WALL (       5 calls)
     forces       :    155.91s CPU    160.86s WALL (       6 calls)
     stress       :    450.91s CPU    462.85s WALL (       6 calls)

     Called by init_run:
     wfcinit      :     25.66s CPU     25.87s WALL (       1 calls)
     potinit      :      0.82s CPU      0.90s WALL (       1 calls)
     hinit0       :      1.39s CPU      1.43s WALL (       1 calls)

     Called by electrons:
     c_bands      :   4317.30s CPU   4345.55s WALL (     102 calls)
     sum_band     :    958.92s CPU   1033.27s WALL (     102 calls)
     v_of_rho     :     23.68s CPU     24.76s WALL (     107 calls)
     newd         :    564.91s CPU    638.51s WALL (     107 calls)
     mix_rho      :      3.74s CPU      3.93s WALL (     102 calls)

     Called by c_bands:
     init_us_2    :      4.36s CPU      4.41s WALL (     205 calls)
     init_us_2:cp :      4.36s CPU      4.41s WALL (     205 calls)
     cegterg      :   4293.26s CPU   4321.38s WALL (     102 calls)

     Called by *egterg:
     cdiaghg      :    108.67s CPU    110.57s WALL (     500 calls)
     h_psi        :   1729.51s CPU   1749.75s WALL (     507 calls)
     s_psi        :    684.94s CPU    685.64s WALL (     507 calls)
     g_psi        :      1.07s CPU      1.08s WALL (     404 calls)

     Called by h_psi:
     h_psi:calbec :    756.46s CPU    757.69s WALL (     507 calls)
     vloc_psi     :    286.63s CPU    303.39s WALL (     507 calls)
     add_vuspsi   :    685.00s CPU    685.70s WALL (     507 calls)

     General routines
     calbec       :   1144.89s CPU   1146.78s WALL (     639 calls)
     fft          :     30.58s CPU     32.17s WALL (    1535 calls)
     ffts         :      0.88s CPU      0.92s WALL (     209 calls)
     fftw         :    280.99s CPU    296.92s WALL (  165644 calls)
     interpolate  :      1.93s CPU      2.05s WALL (     107 calls)

     Parallel routines

     PWSCF        :      1h48m CPU      1h51m WALL


   This run was terminated on:   0:47:11  30May2023            

=------------------------------------------------------------------------------=
   JOB DONE.
=------------------------------------------------------------------------------=
