
     Program PWSCF v.7.2 starts on 18May2023 at  3: 1:54 

     This program is part of the open-source Quantum ESPRESSO suite
     for quantum simulation of materials; please cite
         "P. Giannozzi et al., J. Phys.:Condens. Matter 21 395502 (2009);
         "P. Giannozzi et al., J. Phys.:Condens. Matter 29 465901 (2017);
         "P. Giannozzi et al., J. Chem. Phys. 152 154105 (2020);
          URL http://www.quantum-espresso.org", 
     in publications or presentations arising from this work. More details at
     http://www.quantum-espresso.org/quote

     Parallel version (MPI), running on    12 processors

     MPI processes distributed on     1 nodes
     78258 MiB available memory on the printing compute node when the environment starts

     Reading input from HfNbTaZr_random_32_relax.in
Warning: card &CELL ignored
Warning: card / ignored

     Current dimensions of program PWSCF are:
     Max number of different atomic species (ntypx) = 10
     Max number of k-points (npk) =  40000
     Max angular momentum in pseudopotentials (lmaxx) =  4

     R & G space division:  proc/nbgrp/npool/nimage =      12
     Subspace diagonalization in iterative solution of the eigenvalue problem:
     one sub-group per band group will be used
     custom distributed-memory algorithm (size of sub-group:  2*  2 procs)


     Parallelization info
     --------------------
     sticks:   dense  smooth     PW     G-vecs:    dense   smooth      PW
     Min         125     125     31                 3705     3705     463
     Max         127     127     32                 3707     3707     468
     Sum        1517    1517    377                44473    44473    5575

     Using Slab Decomposition



     bravais-lattice index     =            0
     lattice parameter (alat)  =       6.3117  a.u.
     unit-cell volume          =     251.4409 (a.u.)^3
     number of atoms/cell      =           32
     number of atomic types    =            4
     number of electrons       =       400.00
     number of Kohn-Sham states=          240
     kinetic-energy cutoff     =     120.0000  Ry
     charge density cutoff     =     480.0000  Ry
     scf convergence threshold =      1.0E-06
     mixing beta               =       0.7000
     number of iterations used =            8  plain     mixing
     energy convergence thresh.=      1.0E-04
     force convergence thresh. =      1.0E-03
     Exchange-correlation= SLA  PW   PBE  PBE
                           (   1   4   3   4   0   0   0)
     nstep                     =           50


     celldm(1)=   6.311685  celldm(2)=   0.000000  celldm(3)=   0.000000
     celldm(4)=   0.000000  celldm(5)=   0.000000  celldm(6)=   0.000000

     crystal axes: (cart. coord. in units of alat)
               a(1) = (   1.000000   0.000000   0.000000 )  
               a(2) = (   0.000000   1.000000   0.000000 )  
               a(3) = (   0.000000   0.000000   1.000000 )  

     reciprocal axes: (cart. coord. in units 2 pi/alat)
               b(1) = (  1.000000  0.000000  0.000000 )  
               b(2) = (  0.000000  1.000000  0.000000 )  
               b(3) = (  0.000000  0.000000  1.000000 )  


     PseudoPot. # 1 for Hf read from file:
     q-e/pseudo/hf_pbe_v1.uspp.F.UPF
     MD5 check sum: 8ee9378dfe14276e333edf04c5e4aa26
     Pseudo is Ultrasoft + core correction, Zval = 12.0
     Generated by new atomic code, or converted to UPF format
     Using radial grid of  921 points,  8 beta functions with: 
                l(1) =   0
                l(2) =   0
                l(3) =   0
                l(4) =   1
                l(5) =   1
                l(6) =   2
                l(7) =   2
                l(8) =   3
     Q(r) pseudized with  6 coefficients,  rinner =    1.200   1.200   1.200
                                                       1.200   1.200   1.200
                                                       1.200

     PseudoPot. # 2 for Nb read from file:
     q-e/pseudo/nb_pbe_v1.uspp.F.UPF
     MD5 check sum: 573aab8a2fa660278ed4a62cd769473f
     Pseudo is Ultrasoft + core correction, Zval = 13.0
     Generated by new atomic code, or converted to UPF format
     Using radial grid of  887 points,  6 beta functions with: 
                l(1) =   0
                l(2) =   0
                l(3) =   1
                l(4) =   1
                l(5) =   2
                l(6) =   2
     Q(r) pseudized with  6 coefficients,  rinner =    1.000   1.000   1.000
                                                       1.000   1.000

     PseudoPot. # 3 for Ta read from file:
     q-e/pseudo/ta_pbe_v1.uspp.F.UPF
     MD5 check sum: f8bbe9446314a3b8ea5d9f3e3836c939
     Pseudo is Ultrasoft + core correction, Zval = 13.0
     Generated by new atomic code, or converted to UPF format
     Using radial grid of  921 points,  7 beta functions with: 
                l(1) =   0
                l(2) =   0
                l(3) =   1
                l(4) =   1
                l(5) =   2
                l(6) =   2
                l(7) =   3
     Q(r) pseudized with  6 coefficients,  rinner =    1.300   1.300   1.300
                                                       1.300   1.300   1.300
                                                       1.300

     PseudoPot. # 4 for Zr read from file:
     q-e/pseudo/zr_pbe_v1.uspp.F.UPF
     MD5 check sum: 5db81b1e868ab7776c4564c113de050b
     Pseudo is Ultrasoft + core correction, Zval = 12.0
     Generated by new atomic code, or converted to UPF format
     Using radial grid of  887 points,  6 beta functions with: 
                l(1) =   0
                l(2) =   0
                l(3) =   1
                l(4) =   1
                l(5) =   2
                l(6) =   2
     Q(r) pseudized with  6 coefficients,  rinner =    1.200   1.200   1.200
                                                       1.200   1.200

     atomic species   valence    mass     pseudopotential
        Hf            12.00   178.49000     Hf( 1.00)
        Nb            13.00    92.90637     Nb( 1.00)
        Ta            13.00   180.94788     Ta( 1.00)
        Zr            12.00    91.22400     Zr( 1.00)

     No symmetry found



   Cartesian axes

     site n.     atom                  positions (alat units)
         1           Hf  tau(   1) = (   0.0000000   0.0000000   0.0000000  )
         2           Hf  tau(   2) = (   0.5000000   0.5000000   0.5000000  )
         3           Nb  tau(   3) = (   0.2981748   0.0121829   0.2027392  )
         4           Nb  tau(   4) = (  -0.1477095   0.4326020   0.8146501  )
         5           Ta  tau(   5) = (   0.5253934   0.3741731  -0.5626972  )
         6           Ta  tau(   6) = (   0.2847261  -0.1630605   0.0724872  )
         7           Zr  tau(   7) = (   0.4182358  -0.0750432  -0.0129401  )
         8           Zr  tau(   8) = (   0.0703636   0.5525480   0.4719457  )
         9           Hf  tau(   9) = (  -0.0313602  -0.4788779   0.1833330  )
        10           Hf  tau(  10) = (   0.0918312   0.3761560   0.2444965  )
        11           Nb  tau(  11) = (   0.1472748  -0.1950551   0.0503142  )
        12           Nb  tau(  12) = (   0.3135483   0.0660689   0.8591203  )
        13           Ta  tau(  13) = (  -0.6490528  -0.1572879  -0.3143693  )
        14           Ta  tau(  14) = (   0.1548652  -0.3736361  -0.0758125  )
        15           Zr  tau(  15) = (   0.0468551  -0.2710915  -0.1791961  )
        16           Zr  tau(  16) = (  -0.0051438   0.1286920   0.5872693  )
        17           Hf  tau(  17) = (   0.5816678   0.1089614   0.0675057  )
        18           Hf  tau(  18) = (  -0.1099912   0.4352740   0.4738651  )
        19           Hf  tau(  19) = (   0.0357078   0.3335778   0.6158910  )
        20           Hf  tau(  20) = (   0.4413196   0.1267222  -0.1207839  )
        21           Nb  tau(  21) = (   0.0545178  -0.1528988   0.3370743  )
        22           Nb  tau(  22) = (   0.3751546   0.6384033   0.1920469  )
        23           Nb  tau(  23) = (   0.2178999  -0.0299405  -0.0956942  )
        24           Nb  tau(  24) = (   0.2588639   0.5146291   0.5764411  )
        25           Ta  tau(  25) = (  -0.0836669   0.3251577  -0.2543602  )
        26           Ta  tau(  26) = (   0.5110692   0.1966216   0.3618925  )
        27           Ta  tau(  27) = (   0.5497609   0.0101533  -0.1943284  )
        28           Ta  tau(  28) = (   0.2204271   0.3952944   0.5079575  )
        29           Zr  tau(  29) = (   0.2749835   0.7033039  -0.0680664  )
        30           Zr  tau(  30) = (   0.2648096   0.1021979   0.5552859  )
        31           Zr  tau(  31) = (   0.3909746   0.2596999  -0.1069830  )
        32           Zr  tau(  32) = (   0.1579814   0.3612268   0.7209098  )

     number of k points=     1  Gaussian smearing, width (Ry)=  0.0220
                       cart. coord. in units 2pi/alat
        k(    1) = (   0.0000000   0.0000000   0.0000000), wk =   2.0000000

     Dense  grid:    44473 G-vectors     FFT dimensions: (  45,  45,  45)

     Estimated max dynamical RAM per process >      48.85 MB

     Estimated total dynamical RAM >     586.23 MB

     Initial potential from superposition of free atoms

     starting charge     383.9520, renormalised to     400.0000
     Starting wfcs are  416 randomized atomic wfcs

     total cpu time spent up to now is        3.3 secs

     Self-consistent Calculation

     iteration #  1     ecut=   120.00 Ry     beta= 0.70
     Davidson diagonalization with overlap
     ethr =  1.00E-02,  avg # of iterations = 15.0

     negative rho (up, down):  1.902E+01 0.000E+00

     total cpu time spent up to now is       16.5 secs

     total energy              =    1719.28344829 Ry
     estimated scf accuracy    <    1851.53711306 Ry

     iteration #  2     ecut=   120.00 Ry     beta= 0.70
     Davidson diagonalization with overlap
     ethr =  1.00E-02,  avg # of iterations =  5.0

     negative rho (up, down):  1.121E+01 0.000E+00

     total cpu time spent up to now is       25.2 secs

     total energy              =    1373.56727320 Ry
     estimated scf accuracy    <    6469.22299781 Ry

     iteration #  3     ecut=   120.00 Ry     beta= 0.70
     Davidson diagonalization with overlap
     ethr =  1.00E-02,  avg # of iterations =  7.0

     negative rho (up, down):  7.501E+00 0.000E+00

     total cpu time spent up to now is       34.1 secs

     total energy              =     385.65610656 Ry
     estimated scf accuracy    <     516.22460963 Ry

     iteration #  4     ecut=   120.00 Ry     beta= 0.70
     Davidson diagonalization with overlap
     ethr =  1.00E-02,  avg # of iterations =  3.0

     negative rho (up, down):  6.298E+00 0.000E+00

     total cpu time spent up to now is       39.2 secs

     total energy              =     370.61234838 Ry
     estimated scf accuracy    <     138.49224732 Ry

     iteration #  5     ecut=   120.00 Ry     beta= 0.70
     Davidson diagonalization with overlap
     ethr =  1.00E-02,  avg # of iterations =  2.0

     negative rho (up, down):  4.555E+00 0.000E+00

     total cpu time spent up to now is       42.5 secs

     total energy              =     395.14852731 Ry
     estimated scf accuracy    <      80.07650689 Ry

     iteration #  6     ecut=   120.00 Ry     beta= 0.70
     Davidson diagonalization with overlap
     ethr =  1.00E-02,  avg # of iterations =  3.0

     negative rho (up, down):  3.349E+00 0.000E+00

     total cpu time spent up to now is       45.9 secs

     total energy              =     395.77284376 Ry
     estimated scf accuracy    <      14.77512982 Ry

     iteration #  7     ecut=   120.00 Ry     beta= 0.70
     Davidson diagonalization with overlap
     ethr =  3.69E-03,  avg # of iterations =  3.0

     negative rho (up, down):  3.432E+00 0.000E+00

     total cpu time spent up to now is       49.5 secs

     total energy              =     392.63174997 Ry
     estimated scf accuracy    <       1.04022553 Ry

     iteration #  8     ecut=   120.00 Ry     beta= 0.70
     Davidson diagonalization with overlap
     ethr =  2.60E-04,  avg # of iterations =  4.0

     negative rho (up, down):  3.523E+00 0.000E+00

     total cpu time spent up to now is       53.9 secs

     total energy              =     392.51967759 Ry
     estimated scf accuracy    <       0.27856699 Ry

     iteration #  9     ecut=   120.00 Ry     beta= 0.70
     Davidson diagonalization with overlap
     ethr =  6.96E-05,  avg # of iterations = 15.0

     negative rho (up, down):  3.485E+00 0.000E+00

     total cpu time spent up to now is       59.5 secs

     total energy              =     392.46729615 Ry
     estimated scf accuracy    <       0.01904158 Ry

     iteration # 10     ecut=   120.00 Ry     beta= 0.70
     Davidson diagonalization with overlap
     ethr =  4.76E-06,  avg # of iterations = 18.0

     negative rho (up, down):  3.520E+00 0.000E+00

     total cpu time spent up to now is       69.0 secs

     total energy              =     392.46606057 Ry
     estimated scf accuracy    <       0.01555536 Ry

     iteration # 11     ecut=   120.00 Ry     beta= 0.70
     Davidson diagonalization with overlap
     ethr =  3.89E-06,  avg # of iterations =  3.0

     negative rho (up, down):  3.513E+00 0.000E+00

     total cpu time spent up to now is       72.6 secs

     total energy              =     392.46231875 Ry
     estimated scf accuracy    <       0.00208800 Ry

     iteration # 12     ecut=   120.00 Ry     beta= 0.70
     Davidson diagonalization with overlap
     ethr =  5.22E-07,  avg # of iterations =  2.0

     negative rho (up, down):  3.511E+00 0.000E+00

     total cpu time spent up to now is       76.3 secs

     total energy              =     392.46197946 Ry
     estimated scf accuracy    <       0.00015718 Ry

     iteration # 13     ecut=   120.00 Ry     beta= 0.70
     Davidson diagonalization with overlap
     ethr =  3.93E-08,  avg # of iterations =  2.0

     negative rho (up, down):  3.511E+00 0.000E+00

     total cpu time spent up to now is       79.8 secs

     total energy              =     392.46194746 Ry
     estimated scf accuracy    <       0.00000953 Ry

     iteration # 14     ecut=   120.00 Ry     beta= 0.70
     Davidson diagonalization with overlap
     ethr =  2.38E-09,  avg # of iterations =  4.0

     negative rho (up, down):  3.511E+00 0.000E+00

     total cpu time spent up to now is       84.0 secs

     total energy              =     392.46194591 Ry
     estimated scf accuracy    <       0.00000713 Ry

     iteration # 15     ecut=   120.00 Ry     beta= 0.70
     Davidson diagonalization with overlap
     ethr =  1.78E-09,  avg # of iterations =  2.0

     negative rho (up, down):  3.511E+00 0.000E+00

     total cpu time spent up to now is       87.5 secs

     End of self-consistent calculation

          k = 0.0000 0.0000 0.0000 (  5575 PWs)   bands (ev):

  -374.5722-137.7902 -81.1030 -48.5254 -40.2967  -3.1831   2.2904   8.9298
    10.0332  15.0676  18.1330  20.8235  34.7468  39.2251  46.4284  48.2494
    56.0901  60.4010  62.3837  63.8175  69.2799  70.1392  74.2857  76.5804
    76.7461  79.5769  81.5076  83.9090  85.0107  88.0624  94.1391  94.5894
    97.5898  98.0744 100.6298 101.0506 103.8296 104.0383 106.8920 107.5270
   108.5898 109.9297 112.7732 115.2634 117.7645 119.1562 120.1871 121.3334
   124.4109 125.1266 125.4870 126.6174 127.3588 129.1952 132.3668 132.7525
   134.7068 134.9022 135.2567 136.1467 137.7516 138.5450 140.5952 142.2789
   143.1104 144.9081 145.6318 146.7774 147.6283 149.6866 150.6984 151.7724
   152.0065 155.6811 156.8552 158.0725 158.6558 159.2807 160.0855 160.5960
   162.0831 162.6661 164.2494 165.3879 166.5284 167.1071 167.8205 168.7350
   170.1044 170.9111 171.7355 172.4906 173.1625 173.9991 176.1160 176.3542
   177.5819 179.0520 180.2332 181.0787 181.6512 182.3464 182.8765 183.9155
   184.5969 184.9079 186.9114 187.3553 188.9707 189.5765 190.0084 190.5818
   191.5558 192.3103 193.0222 193.9018 194.7956 195.5626 196.9170 197.8139
   198.6564 199.0919 201.2126 201.5743 202.2530 202.6359 203.3791 204.1966
   204.8165 205.0846 206.2193 206.9999 207.8580 208.3627 209.0727 209.4472
   210.2229 210.4879 211.5240 212.3952 213.1938 214.0437 215.0602 216.3541
   217.1097 217.2736 218.8557 219.5866 220.2381 220.9053 221.5297 222.2556
   223.2753 223.8932 224.7774 225.1638 226.0861 226.9242 228.0860 228.5496
   229.1139 230.0844 230.4241 230.8259 231.4498 232.2579 233.5785 233.8811
   235.0307 235.5689 236.0913 236.8965 237.5762 238.5260 239.3688 239.7176
   240.9297 241.3589 242.6008 242.9192 243.2435 244.0674 244.2738 246.2836
   246.7573 247.7644 248.0527 248.3799 249.4338 249.6994 250.6821 251.8197
   252.3178 253.5050 254.5209 255.5632 255.9458 256.0565 256.8596 257.5328
   257.9402 258.7691 260.0072 260.4326 261.1699 261.6120 262.0262 262.2982
   263.0399 263.7691 264.1654 264.4639 265.2116 265.8803 267.0858 267.6798
   268.2139 268.4143 268.5966 269.3188 270.4060 270.9914 272.0379 272.5682
   272.8318 273.8068 274.2815 274.9417 276.0768 276.7646 277.3519 277.7068
   277.8280 278.5005 279.6428 280.4110 280.8863 281.1377 282.1165 283.4271

     the Fermi energy is   257.7365 ev

!    total energy              =     392.46194468 Ry
     estimated scf accuracy    <       0.00000033 Ry
     smearing contrib. (-TS)   =      -0.01562301 Ry
     internal energy E=F+TS    =     392.47756770 Ry

     The total energy is F=E-TS. E is the sum of the following terms:
     one-electron contribution =    2378.68805457 Ry
     hartree contribution      =    1816.31933708 Ry
     xc contribution           =   -1838.59909283 Ry
     ewald contribution        =   -1963.93073112 Ry

     convergence has been achieved in  15 iterations

     negative rho (up, down):  3.511E+00 0.000E+00

     Forces acting on atoms (cartesian axes, Ry/au):

     atom    1 type  1   force =  -198.69872978  101.36505856   29.60879519
     atom    2 type  1   force =   333.56545097 -584.57148122 -346.15581524
     atom    3 type  2   force =   -16.89040643  105.78730803  150.52934698
     atom    4 type  2   force =  -246.80744392  298.23999108  242.63860811
     atom    5 type  3   force =   -47.01166661  791.12661239  357.61245411
     atom    6 type  3   force =   281.84293912  -22.12043234  311.89012990
     atom    7 type  4   force =   239.98197920  -99.72274785   74.54606950
     atom    8 type  4   force =   -51.59499677  232.94749482  -48.65822231
     atom    9 type  1   force =   -83.96801676   13.72468505  -50.56238815
     atom   10 type  1   force =    17.08973031  -83.35572360  -86.69303044
     atom   11 type  2   force =  -451.03987538  -20.59736676  143.92693074
     atom   12 type  2   force =  -247.17526088  132.54542469 -203.64600940
     atom   13 type  3   force =    50.63723119  -86.01780767 -174.68709371
     atom   14 type  3   force =  -199.06369709 -409.67103603    2.79581864
     atom   15 type  4   force =  -204.55358407   77.17080068 -178.45141015
     atom   16 type  4   force =   -64.30083385 -206.03148143  -46.90405595
     atom   17 type  1   force =   166.58749610   46.11668773  110.37198560
     atom   18 type  1   force =  -161.83169950    1.73994938  -69.26129704
     atom   19 type  1   force =  -104.73778574  -61.76518659 -158.67157844
     atom   20 type  1   force =   373.36521858  109.15269372    8.76593916
     atom   21 type  2   force =   -39.41926980   20.20703362   50.13477867
     atom   22 type  2   force =    83.66120435  -71.74999864   72.22202432
     atom   23 type  2   force =  -326.99734709  -64.41544940  -45.82652690
     atom   24 type  2   force =   102.20309473  389.34834515  208.53297280
     atom   25 type  3   force =   -58.16873906 -289.11430091   31.17551382
     atom   26 type  3   force =    42.85671235 -183.11349054  -68.58195548
     atom   27 type  3   force =   338.64228729 -134.42142355 -199.33060842
     atom   28 type  3   force =    -0.31848609 -310.09509864 -257.97658781
     atom   29 type  4   force =   373.75685289  -81.14223752 -139.80311938
     atom   30 type  4   force =    16.51492359  -56.44010171  -46.33557044
     atom   31 type  4   force =   -95.37513874  457.64077628   52.83634066
     atom   32 type  4   force =   177.24785687  -12.76749680  273.95756106
     The non-local contrib.  to forces
     atom    1 type  1   force =    11.76371901   -7.71640538   -2.23300037
     atom    2 type  1   force =   263.58644197 -922.37200174 -485.25638789
     atom    3 type  2   force =    -4.87637296   -3.55904074   -1.33488955
     atom    4 type  2   force =   -21.13281241   20.45904951   20.23706673
     atom    5 type  3   force =  -189.90273426  934.12248050  462.21236102
     atom    6 type  3   force =     8.50401110   -1.52211404  -16.18277943
     atom    7 type  4   force =    -7.58827870    4.45869953    3.13124900
     atom    8 type  4   force =     6.49344269   14.48915986    6.20586700
     atom    9 type  1   force =    54.64488785  -56.75832044   27.75091428
     atom   10 type  1   force =   -46.05085151   60.79165737   -2.35008044
     atom   11 type  2   force =   -11.87469967   11.11941616   -9.00210478
     atom   12 type  2   force =   -24.62843717    6.54688506    7.01909087
     atom   13 type  3   force =    -0.71837306   14.10374739   17.77571185
     atom   14 type  3   force =     0.06951302   23.67223496    3.93499671
     atom   15 type  4   force =    -1.52168406   -1.67936147   -0.18624983
     atom   16 type  4   force =     3.14114716  -13.97579756   -1.03635028
     atom   17 type  1   force =   -26.30346361   -2.79309993  -33.68681221
     atom   18 type  1   force =    67.96765613  -22.25480809   26.10738099
     atom   19 type  1   force =   -17.27255881   13.86136915   -8.72348803
     atom   20 type  1   force =    37.03013841  -37.71665362   13.85400248
     atom   21 type  2   force =    -0.67268142    1.26804636    5.73561276
     atom   22 type  2   force =     5.57684778   -5.50264781    5.69207297
     atom   23 type  2   force =     8.20105611   -0.57146866    9.23627899
     atom   24 type  2   force =   -73.16867589   21.38881845   21.95255767
     atom   25 type  3   force =    53.79152376   -0.65902660  -50.45234390
     atom   26 type  3   force =    -5.75843968   -4.95013041   -5.89117423
     atom   27 type  3   force =   -28.52901953   14.60385579   28.59650400
     atom   28 type  3   force =   -79.45309079   -6.40123685   27.51767497
     atom   29 type  4   force =     7.06788298   -5.02034382    3.06574766
     atom   30 type  4   force =    -6.08014548   -6.94292161   -3.47287828
     atom   31 type  4   force =   -17.14653999   20.97012386   -0.58310200
     atom   32 type  4   force =   -10.62657820   -6.42476766   -6.95733912
     The ionic contribution  to forces
     atom    1 type  1   force =  -427.73715842  132.36521704   93.06480347
     atom    2 type  1   force =   218.56551440  412.65077059  110.03386408
     atom    3 type  2   force =    42.06594428  172.79441527  355.65679857
     atom    4 type  2   force =  -433.14893661  332.27222193  316.42178568
     atom    5 type  3   force =   288.54197005 -128.24246462 -161.47491690
     atom    6 type  3   force =   338.87403496  -65.48472778  438.08400418
     atom    7 type  4   force =   534.66990482 -163.05351431  147.13052478
     atom    8 type  4   force =  -197.12187435  331.62379716 -136.48253800
     atom    9 type  1   force =  -304.97251617   67.89279091  -72.61818727
     atom   10 type  1   force =   -28.96996693 -173.88137684 -118.31456113
     atom   11 type  2   force =  -643.32740274  -82.97537758  278.80218336
     atom   12 type  2   force =  -156.40970309  207.56280246 -263.88722832
     atom   13 type  3   force =   191.86111420 -144.85276886 -326.58168986
     atom   14 type  3   force =  -271.78702552 -489.86432826   30.96248379
     atom   15 type  4   force =  -457.30162229   91.63982542 -252.78552711
     atom   16 type  4   force =  -261.19712314 -325.51773123 -133.62648681
     atom   17 type  1   force =   366.38473965   69.25909129  222.51447640
     atom   18 type  1   force =  -382.49038799   52.95989521 -166.59502528
     atom   19 type  1   force =  -219.14225241 -100.86004747 -191.36821588
     atom   20 type  1   force =   505.79503142  201.64274822    1.42385652
     atom   21 type  2   force =  -242.45713408   54.75681458  118.06760560
     atom   22 type  2   force =   296.66108231 -139.87909119  150.22050577
     atom   23 type  2   force =  -462.50110651  -19.82690708  -89.69495535
     atom   24 type  2   force =   303.16158746  469.71333434  140.72055801
     atom   25 type  3   force =  -284.16391353 -305.00572104  118.61366294
     atom   26 type  3   force =   198.45685705 -204.33281944  -80.58147817
     atom   27 type  3   force =   587.50247803 -193.71301628 -292.04338325
     atom   28 type  3   force =   115.49235965 -293.92249887 -364.42658700
     atom   29 type  4   force =   481.02535422 -226.51161688 -155.07318863
     atom   30 type  4   force =    63.62952842 -135.00379038 -172.91313957
     atom   31 type  4   force =    80.18728004  595.24039280  117.90729428
     atom   32 type  4   force =   159.85334281    0.55368089  338.84270109
     The local contribution  to forces
     atom    1 type  1   force =   209.70793170  -19.37618361  -60.03990753
     atom    2 type  1   force =  -144.96800976  -71.74463181   29.60711961
     atom    3 type  2   force =   -54.06703854  -62.55223623 -202.59954386
     atom    4 type  2   force =   206.13695964  -53.01395789  -92.80300120
     atom    5 type  3   force =  -143.14901469  -17.32086771   54.97818622
     atom    6 type  3   force =   -63.91374117   43.80322933 -105.90775049
     atom    7 type  4   force =  -285.04310225   57.87869223  -75.20139451
     atom    8 type  4   force =   138.87644081 -111.08784940   81.05943831
     atom    9 type  1   force =   158.77270296    8.46588103  -10.08185932
     atom   10 type  1   force =    97.25132088   21.51347402   32.48856399
     atom   11 type  2   force =   202.33972953   50.96708639 -124.98973549
     atom   12 type  2   force =   -68.24225672  -81.91104846   52.40962414
     atom   13 type  3   force =  -139.43991504   42.58612953  130.22935293
     atom   14 type  3   force =    71.79535014   51.91591979  -32.48676267
     atom   15 type  4   force =   252.28842148  -12.02217917   72.80951002
     atom   16 type  4   force =   192.87063840  131.27748998   87.25637943
     atom   17 type  1   force =  -165.87916004  -18.86032698  -71.90158676
     atom   18 type  1   force =   144.07839672  -27.16793479   67.22734793
     atom   19 type  1   force =   134.77792562   21.71581692   40.89887831
     atom   20 type  1   force =  -168.98875835  -46.31187056   -7.75283937
     atom   21 type  2   force =   203.34383059  -35.66476940  -73.30408833
     atom   22 type  2   force =  -217.93977393   73.09172479  -83.18476134
     atom   23 type  2   force =   126.41909670  -43.57864749   33.86761993
     atom   24 type  2   force =  -126.88953293  -99.94406365   46.73416928
     atom   25 type  3   force =   165.94032494   14.94934404  -30.69389933
     atom   26 type  3   force =  -149.01494718   21.13463564   16.24672803
     atom   27 type  3   force =  -211.75118268   39.69139792   58.33664833
     atom   28 type  3   force =   -32.86539635  -10.82753752   75.76072414
     atom   29 type  4   force =  -112.09590222  149.42595318   11.15663473
     atom   30 type  4   force =   -40.65746169   85.01013773  129.47626376
     atom   31 type  4   force =  -159.04455615 -154.40821642  -63.89667889
     atom   32 type  4   force =    29.74283571   -6.77233671  -55.37400901
     The core correction contribution to forces
     atom    1 type  1   force =     7.56636912   -3.90798500   -1.18236975
     atom    2 type  1   force =    -3.61725480   -3.10436760   -0.54163219
     atom    3 type  2   force =    -0.01245448   -0.89602732   -1.19387143
     atom    4 type  2   force =     1.33688068   -1.47591249   -1.21630796
     atom    5 type  3   force =    -2.50058761    2.56901593    1.89523757
     atom    6 type  3   force =    -1.62102033    1.08278419   -4.10286084
     atom    7 type  4   force =    -2.05552256    0.99288865   -0.51342840
     atom    8 type  4   force =     0.15685972   -2.07662587    0.55779688
     atom    9 type  1   force =     7.58685801   -5.87517876    4.38639014
     atom   10 type  1   force =    -5.14069255    8.22140139    1.48210964
     atom   11 type  2   force =     1.82225115    0.29123408   -0.88293653
     atom   12 type  2   force =     2.10590728    0.34591162    0.81467751
     atom   13 type  3   force =    -1.06436880    2.14370900    3.88960528
     atom   14 type  3   force =     0.85809198    4.60578901    0.38620840
     atom   15 type  4   force =     1.98056848   -0.76748901    1.71151446
     atom   16 type  4   force =     0.88324348    2.18427488    0.50181242
     atom   17 type  1   force =    -7.61339609   -1.48890264   -6.55363539
     atom   18 type  1   force =     8.61226221   -1.79590203    3.99792109
     atom   19 type  1   force =    -3.10197679    3.51917402    0.52067388
     atom   20 type  1   force =    -0.46959110   -8.46181768    1.24255910
     atom   21 type  2   force =     0.36639165   -0.15391158   -0.36559312
     atom   22 type  2   force =    -0.63616720    0.53995897   -0.50571933
     atom   23 type  2   force =     0.88347928   -0.43938846    0.76637909
     atom   24 type  2   force =    -0.89967533   -1.80788500   -0.87572523
     atom   25 type  3   force =     6.26219288    1.60225435   -6.29105526
     atom   26 type  3   force =    -0.82533434    5.03536497    1.64216990
     atom   27 type  3   force =    -8.57793299    4.99543257    5.78057105
     atom   28 type  3   force =    -3.49199375    1.05823736    3.16950714
     atom   29 type  4   force =    -2.24012987    0.96392328    1.04861035
     atom   30 type  4   force =    -0.37634772    0.49605882    0.57282358
     atom   31 type  4   force =     0.62997462   -4.16092731   -0.58936469
     atom   32 type  4   force =    -1.72214112   -0.12241505   -2.55332865
     The Hubbard contrib.    to forces
     atom    1 type  1   force =     0.00000000    0.00000000    0.00000000
     atom    2 type  1   force =     0.00000000    0.00000000    0.00000000
     atom    3 type  2   force =     0.00000000    0.00000000    0.00000000
     atom    4 type  2   force =     0.00000000    0.00000000    0.00000000
     atom    5 type  3   force =     0.00000000    0.00000000    0.00000000
     atom    6 type  3   force =     0.00000000    0.00000000    0.00000000
     atom    7 type  4   force =     0.00000000    0.00000000    0.00000000
     atom    8 type  4   force =     0.00000000    0.00000000    0.00000000
     atom    9 type  1   force =     0.00000000    0.00000000    0.00000000
     atom   10 type  1   force =     0.00000000    0.00000000    0.00000000
     atom   11 type  2   force =     0.00000000    0.00000000    0.00000000
     atom   12 type  2   force =     0.00000000    0.00000000    0.00000000
     atom   13 type  3   force =     0.00000000    0.00000000    0.00000000
     atom   14 type  3   force =     0.00000000    0.00000000    0.00000000
     atom   15 type  4   force =     0.00000000    0.00000000    0.00000000
     atom   16 type  4   force =     0.00000000    0.00000000    0.00000000
     atom   17 type  1   force =     0.00000000    0.00000000    0.00000000
     atom   18 type  1   force =     0.00000000    0.00000000    0.00000000
     atom   19 type  1   force =     0.00000000    0.00000000    0.00000000
     atom   20 type  1   force =     0.00000000    0.00000000    0.00000000
     atom   21 type  2   force =     0.00000000    0.00000000    0.00000000
     atom   22 type  2   force =     0.00000000    0.00000000    0.00000000
     atom   23 type  2   force =     0.00000000    0.00000000    0.00000000
     atom   24 type  2   force =     0.00000000    0.00000000    0.00000000
     atom   25 type  3   force =     0.00000000    0.00000000    0.00000000
     atom   26 type  3   force =     0.00000000    0.00000000    0.00000000
     atom   27 type  3   force =     0.00000000    0.00000000    0.00000000
     atom   28 type  3   force =     0.00000000    0.00000000    0.00000000
     atom   29 type  4   force =     0.00000000    0.00000000    0.00000000
     atom   30 type  4   force =     0.00000000    0.00000000    0.00000000
     atom   31 type  4   force =     0.00000000    0.00000000    0.00000000
     atom   32 type  4   force =     0.00000000    0.00000000    0.00000000
     The SCF correction term to forces
     atom    1 type  1   force =     0.00083597    0.00060366   -0.00085777
     atom    2 type  1   force =    -0.00081366   -0.00106252    0.00109401
     atom    3 type  2   force =    -0.00005756    0.00038520    0.00072611
     atom    4 type  2   force =     0.00089195   -0.00122182   -0.00106228
     atom    5 type  3   force =    -0.00087292   -0.00136358    0.00145906
     atom    6 type  3   force =     0.00008173    0.00058409   -0.00061065
     atom    7 type  4   force =    -0.00059494    0.00067420   -0.00100851
     atom    8 type  4   force =     0.00056153   -0.00079878    0.00108636
     atom    9 type  1   force =     0.00047777   -0.00029954    0.00022689
     atom   10 type  1   force =     0.00034759   -0.00069140    0.00081036
     atom   11 type  2   force =     0.00067354    0.00046234   -0.00060296
     atom   12 type  2   force =    -0.00034402    0.00106215   -0.00230074
     atom   13 type  3   force =    -0.00079894    0.00156342   -0.00020106
     atom   14 type  3   force =     0.00080046   -0.00046339   -0.00123472
     atom   15 type  4   force =     0.00115948    0.00019305   -0.00078483
     atom   16 type  4   force =     0.00168742    0.00047065    0.00046215
     atom   17 type  1   force =    -0.00079664    0.00011413   -0.00058358
     atom   18 type  1   force =     0.00080060   -0.00111277    0.00095109
     atom   19 type  1   force =     0.00150382   -0.00131107    0.00044613
     atom   20 type  1   force =    -0.00117463    0.00047551   -0.00176672
     atom   21 type  2   force =     0.00075063    0.00104180    0.00111463
     atom   22 type  2   force =    -0.00035744    0.00024475   -0.00020089
     atom   23 type  2   force =     0.00055450    0.00115043   -0.00197669
     atom   24 type  2   force =    -0.00018140   -0.00167085    0.00128593
     atom   25 type  3   force =     0.00156007   -0.00096352   -0.00097778
     atom   26 type  3   force =    -0.00099633   -0.00035316    0.00167185
     atom   27 type  3   force =    -0.00162836    0.00109461   -0.00107569
     atom   28 type  3   force =     0.00006232   -0.00187462    0.00196579
     atom   29 type  4   force =     0.00007496    0.00003486   -0.00105062
     atom   30 type  4   force =    -0.00022277    0.00060187    0.00123293
     atom   31 type  4   force =    -0.00087010   -0.00040851   -0.00193519
     atom   32 type  4   force =     0.00082484   -0.00147012   -0.00059040

     Total force =  2060.351055     Total SCF correction =     0.009779


     Computing stress (Cartesian axis) and pressure


     negative rho (up, down):  3.511E+00 0.000E+00
          total   stress  (Ry/bohr**3)                   (kbar)     P=  2832264.61
  21.94157128   2.27220202  -0.52178024      3227716.57   334252.46   -76756.52
   2.27220202  18.97296401   0.17255338       334252.46  2791019.36    25383.48
  -0.52178024   0.17255338  16.84549536       -76756.52    25383.48  2478057.92


     BFGS Geometry Optimization
     Energy error            =      0.0E+00 Ry
     Gradient error          =      7.9E+02 Ry/Bohr

     number of scf cycles    =   1
     number of bfgs steps    =   0

     energy             new  =     392.4619446805 Ry

     new trust radius        =       0.5000000000 bohr
     new conv_thr            =       0.0000010000 Ry


ATOMIC_POSITIONS (angstrom)
Hf           -0.0604660538        0.0308464231        0.0090102589
Hf            1.7715073752        1.4921089250        1.5646612483
Nb            0.9907638476        0.0728830037        0.7229566858
Nb           -0.5684558785        1.5356482055        2.7947688352
Ta            1.7405078131        1.4904861694       -1.7705834925
Ta            1.0367530269       -0.5513536685        0.3370187385
Zr            1.4699366583       -0.2809908347       -0.0205349034
Zr            0.2193135429        1.9163986534        1.5614912857
Hf           -0.1302954002       -1.5952755659        0.5969454874
Hf            0.3119169016        1.2309949465        0.7902367822
Nb            0.3546419097       -0.6577521743        0.2118477935
Nb            0.9720334852        0.2610051836        2.8074902288
Ta           -2.1524270297       -0.5515176018       -1.1031525592
Ta            0.4566724955       -1.3726115495       -0.2523630780
Zr            0.0942481467       -0.8819617931       -0.6528195868
Zr           -0.0367477673        0.3671338081        1.9472061535
Hf            1.9934646950        0.3779648651        0.2590564563
Hf           -0.4166174987        1.4543447269        1.5616326689
Hf            0.0873914078        1.0953540216        2.0087905770
Hf            1.5876263949        0.4564684293       -0.4007505056
Nb            0.1700938451       -0.5045328853        1.1410848191
Nb            1.2784753630        2.1104328596        0.6634147078
Nb            0.6282768940       -0.1196033962       -0.3335641555
Nb            0.8957068286        1.8373439138        1.9887721267
Ta           -0.2971488912        0.9980462229       -0.8400759936
Ta            1.7200129950        0.6009929401        1.1878507553
Ta            1.9392537057       -0.0069938590       -0.7097153064
Ta            0.7361294956        1.2259183250        1.6180731020
Zr            1.0321827710        2.3243425036       -0.2698851764
Zr            0.8894896778        0.3241656658        1.8405546669
Zr            1.2768315492        1.0066625587       -0.3412445911
Zr            0.5815961872        1.2026121535        2.4912067601



     Writing config-only to output data dir outdir/pwscf.save/
     NEW-OLD atomic charge density approx. for the potential

     negative rho (up, down):  3.718E+00 0.000E+00

     total cpu time spent up to now is       93.2 secs

     Self-consistent Calculation

     iteration #  1     ecut=   120.00 Ry     beta= 0.70
     Davidson diagonalization with overlap

 %%%%%%%%%%%%%%%%%%%%%%%%%%%%%%%%%%%%%%%%%%%%%%%%%%%%%%%%%%%%%%%%%%%%%%%%%%%%%%
     Error in routine  pzpotrf (1):
      problems computing cholesky decomposition
 %%%%%%%%%%%%%%%%%%%%%%%%%%%%%%%%%%%%%%%%%%%%%%%%%%%%%%%%%%%%%%%%%%%%%%%%%%%%%%

     stopping ...
