
     Program PWSCF v.7.2 starts on 30May2023 at 17:57:56 

     This program is part of the open-source Quantum ESPRESSO suite
     for quantum simulation of materials; please cite
         "P. Giannozzi et al., J. Phys.:Condens. Matter 21 395502 (2009);
         "P. Giannozzi et al., J. Phys.:Condens. Matter 29 465901 (2017);
         "P. Giannozzi et al., J. Chem. Phys. 152 154105 (2020);
          URL http://www.quantum-espresso.org", 
     in publications or presentations arising from this work. More details at
     http://www.quantum-espresso.org/quote

     Parallel version (MPI), running on    12 processors

     MPI processes distributed on     1 nodes
     67057 MiB available memory on the printing compute node when the environment starts

     Reading input from HfNbTaZr_lattice_16_MD_nsteps_20.in
Warning: card &CELL ignored
Warning: card / ignored

     Current dimensions of program PWSCF are:
     Max number of different atomic species (ntypx) = 10
     Max number of k-points (npk) =  40000
     Max angular momentum in pseudopotentials (lmaxx) =  4

     File ./pwscf.update deleted, as requested

     File ./pwscf.md deleted, as requested

     gamma-point specific algorithms are used

     R & G space division:  proc/nbgrp/npool/nimage =      12
     Subspace diagonalization in iterative solution of the eigenvalue problem:
     a serial algorithm will be used


     Parallelization info
     --------------------
     sticks:   dense  smooth     PW     G-vecs:    dense   smooth      PW
     Min         612     612    151                74884    74884    9352
     Max         614     614    156                74899    74899    9362
     Sum        7353    7353   1837               898687   898687  112271

     Using Slab Decomposition



     bravais-lattice index     =            0
     lattice parameter (alat)  =      13.8706  a.u.
     unit-cell volume          =    5060.0776 (a.u.)^3
     number of atoms/cell      =           17
     number of atomic types    =            5
     number of electrons       =       201.00
     number of Kohn-Sham states=          121
     kinetic-energy cutoff     =     120.0000  Ry
     charge density cutoff     =     480.0000  Ry
     scf convergence threshold =      1.0E-03
     mixing beta               =       0.7000
     number of iterations used =            8  TF        mixing
     energy convergence thresh.=      0.0E+00
     force convergence thresh. =      0.0E+00
     Exchange-correlation=  SLA  PW   PBX  PBC
                           (   1   4   3   4   0   0   0)
     nstep                     =           20


     celldm(1)=  13.870590  celldm(2)=   0.000000  celldm(3)=   0.000000
     celldm(4)=   0.000000  celldm(5)=   0.000000  celldm(6)=   0.000000

     crystal axes: (cart. coord. in units of alat)
               a(1) = (   1.000000   0.000000   0.000000 )  
               a(2) = (   0.000000   1.000000   0.000000 )  
               a(3) = (   0.000000   0.000000   1.896149 )  

     reciprocal axes: (cart. coord. in units 2 pi/alat)
               b(1) = (  1.000000  0.000000  0.000000 )  
               b(2) = (  0.000000  1.000000  0.000000 )  
               b(3) = (  0.000000  0.000000  0.527385 )  


     PseudoPot. # 1 for Hf read from file:
     q-e/pseudo/hf_pbe_v1.uspp.F.UPF
     MD5 check sum: 8ee9378dfe14276e333edf04c5e4aa26
     Pseudo is Ultrasoft + core correction, Zval = 12.0
     Generated by new atomic code, or converted to UPF format
     Using radial grid of  921 points,  8 beta functions with: 
                l(1) =   0
                l(2) =   0
                l(3) =   0
                l(4) =   1
                l(5) =   1
                l(6) =   2
                l(7) =   2
                l(8) =   3
     Q(r) pseudized with  6 coefficients,  rinner =    1.200   1.200   1.200
                                                       1.200   1.200   1.200
                                                       1.200

     PseudoPot. # 2 for Nb read from file:
     q-e/pseudo/nb_pbe_v1.uspp.F.UPF
     MD5 check sum: 573aab8a2fa660278ed4a62cd769473f
     Pseudo is Ultrasoft + core correction, Zval = 13.0
     Generated by new atomic code, or converted to UPF format
     Using radial grid of  887 points,  6 beta functions with: 
                l(1) =   0
                l(2) =   0
                l(3) =   1
                l(4) =   1
                l(5) =   2
                l(6) =   2
     Q(r) pseudized with  6 coefficients,  rinner =    1.000   1.000   1.000
                                                       1.000   1.000

     PseudoPot. # 3 for Ta read from file:
     q-e/pseudo/ta_pbe_v1.uspp.F.UPF
     MD5 check sum: f8bbe9446314a3b8ea5d9f3e3836c939
     Pseudo is Ultrasoft + core correction, Zval = 13.0
     Generated by new atomic code, or converted to UPF format
     Using radial grid of  921 points,  7 beta functions with: 
                l(1) =   0
                l(2) =   0
                l(3) =   1
                l(4) =   1
                l(5) =   2
                l(6) =   2
                l(7) =   3
     Q(r) pseudized with  6 coefficients,  rinner =    1.300   1.300   1.300
                                                       1.300   1.300   1.300
                                                       1.300

     PseudoPot. # 4 for Zr read from file:
     q-e/pseudo/zr_pbe_v1.uspp.F.UPF
     MD5 check sum: 5db81b1e868ab7776c4564c113de050b
     Pseudo is Ultrasoft + core correction, Zval = 12.0
     Generated by new atomic code, or converted to UPF format
     Using radial grid of  887 points,  6 beta functions with: 
                l(1) =   0
                l(2) =   0
                l(3) =   1
                l(4) =   1
                l(5) =   2
                l(6) =   2
     Q(r) pseudized with  6 coefficients,  rinner =    1.200   1.200   1.200
                                                       1.200   1.200

     PseudoPot. # 5 for H  read from file:
     q-e/pseudo/h_pbe_v1.4.uspp.F.UPF
     MD5 check sum: 761ae9a214b05c3daf00ab9f6b793d6f
     Pseudo is Ultrasoft, Zval =  1.0
     Generated by new atomic code, or converted to UPF format
     Using radial grid of  615 points,  2 beta functions with: 
                l(1) =   0
                l(2) =   0
     Q(r) pseudized with  8 coefficients,  rinner =    0.700

     atomic species   valence    mass     pseudopotential
        Hf            12.00   178.49000     Hf( 1.00)
        Nb            13.00    92.90637     Nb( 1.00)
        Ta            13.00   180.94788     Ta( 1.00)
        Zr            12.00    91.22400     Zr( 1.00)
        H              1.00     2.01400     H ( 1.00)

     Starting magnetic structure 
     atomic species   magnetization
        Hf           0.000
        Nb           0.000
        Ta           0.000
        Zr           0.000
        H            0.000

     No symmetry found



   Cartesian axes

     site n.     atom                  positions (alat units)
         1           Hf  tau(   1) = (   0.1249797   0.1249746   0.8174773  )
         2           Nb  tau(   2) = (   0.1250259   0.3749771   1.0599394  )
         3           Ta  tau(   3) = (   0.3751799   0.1250253   1.0787069  )
         4           Zr  tau(   4) = (   0.3749599   0.3750193   0.8264272  )
         5           Hf  tau(   5) = (   0.1249742   0.6249777   0.8174756  )
         6           Nb  tau(   6) = (   0.1250266   0.8749767   1.0599171  )
         7           Ta  tau(   7) = (   0.3751804   0.6250229   1.0787032  )
         8           Zr  tau(   8) = (   0.3749645   0.8750292   0.8264090  )
         9           Hf  tau(   9) = (   0.6249795   0.1249703   0.8174402  )
        10           Nb  tau(  10) = (   0.6250164   0.3749776   1.0600053  )
        11           Ta  tau(  11) = (   0.8747978   0.1250218   1.0787100  )
        12           Zr  tau(  12) = (   0.8750615   0.3750194   0.8264039  )
        13           Hf  tau(  13) = (   0.6249842   0.6249832   0.8174387  )
        14           Nb  tau(  14) = (   0.6250158   0.8749771   1.0599880  )
        15           Ta  tau(  15) = (   0.8747961   0.6250217   1.0787071  )
        16           Zr  tau(  16) = (   0.8750574   0.8750259   0.8263861  )
        17           H   tau(  17) = (   0.6811989   0.5449591   1.2261580  )

     number of k points=     1  Gaussian smearing, width (Ry)=  0.0220
                       cart. coord. in units 2pi/alat
        k(    1) = (   0.0000000   0.0000000   0.0000000), wk =   1.0000000

     Dense  grid:   449344 G-vectors     FFT dimensions: ( 100, 100, 192)

     Estimated max dynamical RAM per process >     343.02 MB

     Estimated total dynamical RAM >       4.02 GB

     Check: negative core charge=   -0.000002
     Generating pointlists ...
     new r_m :   0.1437 (alat units)  1.9925 (a.u.) for type    1
     new r_m :   0.1008 (alat units)  1.3975 (a.u.) for type    2
     new r_m :   0.1057 (alat units)  1.4658 (a.u.) for type    3
     new r_m :   0.1411 (alat units)  1.9571 (a.u.) for type    4
     new r_m :   0.1008 (alat units)  1.3975 (a.u.) for type    5

     Initial potential from superposition of free atoms

     starting charge     192.9760, renormalised to     201.0000

     negative rho (up, down):  5.378E-01 5.378E-01
     Starting wfcs are  209 randomized atomic wfcs

     total cpu time spent up to now is       17.2 secs

     Self-consistent Calculation

     iteration #  1     ecut=   120.00 Ry     beta= 0.70
     Davidson diagonalization with overlap
     ethr =  1.00E-02,  avg # of iterations =  5.5

     negative rho (up, down):  6.991E-01 6.996E-01

     total cpu time spent up to now is       42.9 secs

     total energy              =   -2060.35084153 Ry
     estimated scf accuracy    <     202.66835648 Ry

     total magnetization       =     0.00 Bohr mag/cell
     absolute magnetization    =     0.06 Bohr mag/cell

     iteration #  2     ecut=   120.00 Ry     beta= 0.70
     Davidson diagonalization with overlap
     ethr =  1.00E-02,  avg # of iterations =  5.0

     negative rho (up, down):  7.444E-01 7.443E-01

     total cpu time spent up to now is       71.0 secs

     total energy              =   -2070.11081763 Ry
     estimated scf accuracy    <      13.70953552 Ry

     total magnetization       =     0.01 Bohr mag/cell
     absolute magnetization    =     0.08 Bohr mag/cell

     iteration #  3     ecut=   120.00 Ry     beta= 0.70
     Davidson diagonalization with overlap
     ethr =  6.82E-03,  avg # of iterations =  2.0

     negative rho (up, down):  8.463E-01 8.457E-01

     total cpu time spent up to now is       93.4 secs

     total energy              =   -2070.05143373 Ry
     estimated scf accuracy    <      10.01939678 Ry

     total magnetization       =     0.01 Bohr mag/cell
     absolute magnetization    =     0.16 Bohr mag/cell

     iteration #  4     ecut=   120.00 Ry     beta= 0.70
     Davidson diagonalization with overlap
     ethr =  4.98E-03,  avg # of iterations =  2.0

     negative rho (up, down):  8.979E-01 8.993E-01

     total cpu time spent up to now is      117.5 secs

     total energy              =   -2069.98322196 Ry
     estimated scf accuracy    <       3.65202833 Ry

     total magnetization       =     0.01 Bohr mag/cell
     absolute magnetization    =     0.14 Bohr mag/cell

     iteration #  5     ecut=   120.00 Ry     beta= 0.70
     Davidson diagonalization with overlap
     ethr =  1.82E-03,  avg # of iterations =  6.0

     negative rho (up, down):  8.650E-01 8.656E-01

     total cpu time spent up to now is      140.7 secs

     total energy              =   -2069.99127489 Ry
     estimated scf accuracy    <       0.96915208 Ry

     total magnetization       =    -0.10 Bohr mag/cell
     absolute magnetization    =     0.21 Bohr mag/cell

     iteration #  6     ecut=   120.00 Ry     beta= 0.70
     Davidson diagonalization with overlap
     ethr =  4.82E-04,  avg # of iterations =  7.0

     negative rho (up, down):  8.423E-01 8.428E-01

     total cpu time spent up to now is      165.3 secs

     total energy              =   -2069.89771086 Ry
     estimated scf accuracy    <       0.73250296 Ry

     total magnetization       =    -0.07 Bohr mag/cell
     absolute magnetization    =     0.13 Bohr mag/cell

     iteration #  7     ecut=   120.00 Ry     beta= 0.70
     Davidson diagonalization with overlap
     ethr =  3.64E-04,  avg # of iterations =  2.5

     negative rho (up, down):  8.135E-01 8.136E-01

     total cpu time spent up to now is      187.7 secs

     total energy              =   -2069.86423520 Ry
     estimated scf accuracy    <       0.35766131 Ry

     total magnetization       =    -0.08 Bohr mag/cell
     absolute magnetization    =     0.14 Bohr mag/cell

     iteration #  8     ecut=   120.00 Ry     beta= 0.70
     Davidson diagonalization with overlap
     ethr =  1.78E-04,  avg # of iterations =  4.5

     negative rho (up, down):  7.190E-01 7.194E-01

     total cpu time spent up to now is      210.7 secs

     total energy              =   -2069.81663106 Ry
     estimated scf accuracy    <       0.18771640 Ry

     total magnetization       =    -0.07 Bohr mag/cell
     absolute magnetization    =     0.11 Bohr mag/cell

     iteration #  9     ecut=   120.00 Ry     beta= 0.70
     Davidson diagonalization with overlap
     ethr =  9.34E-05,  avg # of iterations =  6.5

     negative rho (up, down):  6.592E-01 6.581E-01

     total cpu time spent up to now is      235.0 secs

     total energy              =   -2069.78588094 Ry
     estimated scf accuracy    <       0.09307817 Ry

     total magnetization       =    -0.03 Bohr mag/cell
     absolute magnetization    =     0.06 Bohr mag/cell

     iteration # 10     ecut=   120.00 Ry     beta= 0.70
     Davidson diagonalization with overlap
     ethr =  4.63E-05,  avg # of iterations =  4.5

     negative rho (up, down):  6.104E-01 6.106E-01

     total cpu time spent up to now is      258.9 secs

     total energy              =   -2069.78784578 Ry
     estimated scf accuracy    <       0.04435752 Ry

     total magnetization       =    -0.00 Bohr mag/cell
     absolute magnetization    =     0.04 Bohr mag/cell

     iteration # 11     ecut=   120.00 Ry     beta= 0.70
     Davidson diagonalization with overlap
     ethr =  2.21E-05,  avg # of iterations =  6.5

     negative rho (up, down):  5.623E-01 5.627E-01

     total cpu time spent up to now is      283.2 secs

     total energy              =   -2069.78943194 Ry
     estimated scf accuracy    <       0.02539648 Ry

     total magnetization       =     0.01 Bohr mag/cell
     absolute magnetization    =     0.03 Bohr mag/cell

     iteration # 12     ecut=   120.00 Ry     beta= 0.70
     Davidson diagonalization with overlap
     ethr =  1.26E-05,  avg # of iterations =  5.5

     negative rho (up, down):  5.414E-01 5.414E-01

     total cpu time spent up to now is      307.2 secs

     total energy              =   -2069.79153705 Ry
     estimated scf accuracy    <       0.01216509 Ry

     total magnetization       =     0.01 Bohr mag/cell
     absolute magnetization    =     0.03 Bohr mag/cell

     iteration # 13     ecut=   120.00 Ry     beta= 0.70
     Davidson diagonalization with overlap
     ethr =  6.05E-06,  avg # of iterations =  2.0

     negative rho (up, down):  5.341E-01 5.342E-01

     total cpu time spent up to now is      330.6 secs

     total energy              =   -2069.79233414 Ry
     estimated scf accuracy    <       0.00814927 Ry

     total magnetization       =     0.01 Bohr mag/cell
     absolute magnetization    =     0.02 Bohr mag/cell

     iteration # 14     ecut=   120.00 Ry     beta= 0.70
     Davidson diagonalization with overlap
     ethr =  4.05E-06,  avg # of iterations =  6.0

     negative rho (up, down):  5.299E-01 5.299E-01

     total cpu time spent up to now is      352.9 secs

     total energy              =   -2069.79240504 Ry
     estimated scf accuracy    <       0.00601052 Ry

     total magnetization       =     0.00 Bohr mag/cell
     absolute magnetization    =     0.01 Bohr mag/cell

     iteration # 15     ecut=   120.00 Ry     beta= 0.70
     Davidson diagonalization with overlap
     ethr =  2.99E-06,  avg # of iterations =  2.0

     negative rho (up, down):  5.327E-01 5.327E-01

     total cpu time spent up to now is      377.4 secs

     total energy              =   -2069.79232466 Ry
     estimated scf accuracy    <       0.00408683 Ry

     total magnetization       =    -0.00 Bohr mag/cell
     absolute magnetization    =     0.01 Bohr mag/cell

     iteration # 16     ecut=   120.00 Ry     beta= 0.70
     Davidson diagonalization with overlap
     ethr =  2.03E-06,  avg # of iterations =  4.0

     negative rho (up, down):  5.382E-01 5.382E-01

     total cpu time spent up to now is      400.8 secs

     total energy              =   -2069.79212273 Ry
     estimated scf accuracy    <       0.00301935 Ry

     total magnetization       =    -0.00 Bohr mag/cell
     absolute magnetization    =     0.01 Bohr mag/cell

     iteration # 17     ecut=   120.00 Ry     beta= 0.70
     Davidson diagonalization with overlap
     ethr =  1.50E-06,  avg # of iterations =  2.0

     negative rho (up, down):  5.463E-01 5.463E-01

     total cpu time spent up to now is      422.7 secs

     total energy              =   -2069.79235807 Ry
     estimated scf accuracy    <       0.00184058 Ry

     total magnetization       =    -0.00 Bohr mag/cell
     absolute magnetization    =     0.00 Bohr mag/cell

     iteration # 18     ecut=   120.00 Ry     beta= 0.70
     Davidson diagonalization with overlap
     ethr =  9.16E-07,  avg # of iterations =  2.0

     negative rho (up, down):  5.274E-01 5.274E-01

     Magnetic moment per site  (integrated on atomic sphere of radius R)
     atom   1 (R=0.144)  charge=  9.4303  magn= -0.0002
     atom   2 (R=0.101)  charge=  7.3189  magn= -0.0000
     atom   3 (R=0.106)  charge=  7.6364  magn= -0.0002
     atom   4 (R=0.141)  charge=  9.3984  magn= -0.0001
     atom   5 (R=0.144)  charge=  9.4335  magn= -0.0000
     atom   6 (R=0.101)  charge=  7.3210  magn=  0.0000
     atom   7 (R=0.106)  charge=  7.6361  magn=  0.0001
     atom   8 (R=0.141)  charge=  9.3941  magn= -0.0001
     atom   9 (R=0.144)  charge=  9.4350  magn= -0.0000
     atom  10 (R=0.101)  charge=  7.3268  magn=  0.0000
     atom  11 (R=0.106)  charge=  7.6354  magn= -0.0000
     atom  12 (R=0.141)  charge=  9.4020  magn=  0.0000
     atom  13 (R=0.144)  charge=  9.4393  magn= -0.0000
     atom  14 (R=0.101)  charge=  7.3220  magn= -0.0000
     atom  15 (R=0.106)  charge=  7.6423  magn= -0.0001
     atom  16 (R=0.141)  charge=  9.3962  magn= -0.0001
     atom  17 (R=0.101)  charge=  1.0442  magn= -0.0000

     total cpu time spent up to now is      445.0 secs

     End of self-consistent calculation

 ------ SPIN UP ------------


          k = 0.0000 0.0000 0.0000 ( 56136 PWs)   bands (ev):

   -63.1851 -63.1259 -63.0719 -63.0409 -56.4892 -56.4848 -56.4666 -56.4523
   -49.7431 -49.7285 -49.6961 -49.6843 -43.1719 -43.1583 -43.1494 -43.1384
   -30.3208 -30.2792 -30.1118 -30.1032 -30.0388 -30.0180 -29.9373 -29.9189
   -29.8260 -29.7549 -29.7135 -29.7051 -26.8754 -26.6503 -26.5382 -26.4666
   -26.3969 -26.3841 -26.3300 -26.2979 -26.2112 -26.2028 -26.1435 -25.9550
   -25.9215 -25.6095 -25.5285 -25.5210 -25.2902 -25.2004 -25.0568 -25.0536
   -25.0402 -25.0207 -24.9545 -24.9202 -21.7003 -21.6100 -21.5355 -21.5165
   -21.3341 -21.2903 -21.2458 -21.2278 -21.1946 -21.1282 -21.0963 -21.0293
    -2.2830  -1.0130  -0.7013  -0.3662  -0.2533  -0.1358  -0.0090   0.6229
     0.9701   1.2833   1.3246   1.3558   1.4015   1.4215   1.7384   1.8352
     2.0936   2.1115   2.3050   2.3690   2.4049   2.5691   2.8398   3.0846
     3.1751   3.2792   3.4177   3.4418   3.4554   3.5457   3.6990   3.7185
     3.7891   3.9039   4.0434   4.0992   4.3223   4.5505   4.6768   4.8315
     4.9892   5.1792   5.3184   5.3845   5.4336   5.4914   5.6233   5.8463
     6.1414   6.3469   6.3475   6.4293   6.4732   6.4925   6.5705   6.6148
     6.8142

 ------ SPIN DOWN ----------


          k = 0.0000 0.0000 0.0000 ( 56136 PWs)   bands (ev):

   -63.1850 -63.1260 -63.0722 -63.0413 -56.4892 -56.4849 -56.4666 -56.4522
   -49.7431 -49.7284 -49.6961 -49.6844 -43.1719 -43.1584 -43.1494 -43.1384
   -30.3208 -30.2793 -30.1120 -30.1036 -30.0388 -30.0179 -29.9376 -29.9195
   -29.8259 -29.7552 -29.7139 -29.7056 -26.8754 -26.6505 -26.5384 -26.4667
   -26.3970 -26.3840 -26.3301 -26.2977 -26.2114 -26.2029 -26.1434 -25.9549
   -25.9215 -25.6095 -25.5286 -25.5209 -25.2903 -25.2005 -25.0568 -25.0536
   -25.0403 -25.0208 -24.9545 -24.9202 -21.7004 -21.6100 -21.5356 -21.5166
   -21.3344 -21.2907 -21.2460 -21.2281 -21.1946 -21.1282 -21.0963 -21.0294
    -2.2831  -1.0131  -0.7015  -0.3663  -0.2532  -0.1360  -0.0091   0.6228
     0.9699   1.2831   1.3246   1.3557   1.4013   1.4214   1.7382   1.8351
     2.0933   2.1114   2.3051   2.3691   2.4048   2.5691   2.8397   3.0844
     3.1752   3.2788   3.4176   3.4416   3.4551   3.5457   3.6989   3.7185
     3.7891   3.9039   4.0433   4.0990   4.3218   4.5500   4.6768   4.8314
     4.9891   5.1791   5.3182   5.3842   5.4334   5.4911   5.6234   5.8464
     6.1411   6.3468   6.3479   6.4297   6.4731   6.4927   6.5702   6.6147
     6.8152

     the Fermi energy is     4.3355 ev

!    total energy              =   -2069.79233936 Ry
     estimated scf accuracy    <       0.00084341 Ry
     smearing contrib. (-TS)   =      -0.03785923 Ry
     internal energy E=F+TS    =   -2069.75448012 Ry

     total magnetization       =    -0.00 Bohr mag/cell
     absolute magnetization    =     0.00 Bohr mag/cell

     convergence has been achieved in  18 iterations

     negative rho (up, down):  5.274E-01 5.274E-01

     Forces acting on atoms (cartesian axes, Ry/au):

     atom    1 type  1   force =     0.00111345    0.00003769   -0.33114294
     atom    2 type  2   force =     0.00750831    0.01220655    0.42523350
     atom    3 type  3   force =    -0.00363903   -0.02128043    0.30021937
     atom    4 type  4   force =    -0.00299703    0.00957684   -0.39271855
     atom    5 type  1   force =     0.00488850   -0.01152887   -0.33516332
     atom    6 type  2   force =     0.00960399    0.00961513    0.44142591
     atom    7 type  3   force =    -0.01197768   -0.00046903    0.29278528
     atom    8 type  4   force =     0.00956418   -0.00561748   -0.39393981
     atom    9 type  1   force =     0.00700431   -0.00701256   -0.32328830
     atom   10 type  2   force =    -0.01267285   -0.04605209    0.38706914
     atom   11 type  3   force =    -0.00820927   -0.01244086    0.29565970
     atom   12 type  4   force =    -0.00070560    0.00431997   -0.39589886
     atom   13 type  1   force =    -0.00155114    0.00577528   -0.33439138
     atom   14 type  2   force =     0.00793798    0.02357857    0.41696607
     atom   15 type  3   force =     0.01840067    0.01456404    0.28614558
     atom   16 type  4   force =    -0.01560283   -0.00066907   -0.39308261
     atom   17 type  5   force =    -0.00866594    0.02539632    0.05412121
     The non-local contrib.  to forces
     atom    1 type  1   force =     0.00399322   -0.00610086   -0.24573303
     atom    2 type  2   force =     0.00330222   -0.02406478   -0.21575054
     atom    3 type  3   force =    -0.00048991   -0.01527586    0.24418130
     atom    4 type  4   force =    -0.00893874    0.00671592    0.06184098
     atom    5 type  1   force =    -0.00999017    0.00343668   -0.25161001
     atom    6 type  2   force =     0.00035006    0.02099228   -0.22265103
     atom    7 type  3   force =     0.05180455    0.00072364    0.28075708
     atom    8 type  4   force =    -0.00024479   -0.00477091    0.06463373
     atom    9 type  1   force =     0.00116141    0.02627094   -0.23948788
     atom   10 type  2   force =    -0.02075153   -0.07495167   -0.20454897
     atom   11 type  3   force =    -0.00629958   -0.00327566    0.24321241
     atom   12 type  4   force =    -0.00813060    0.01544155    0.05444516
     atom   13 type  1   force =    -0.00140361   -0.00157556   -0.26904731
     atom   14 type  2   force =    -0.01198266    0.01650215   -0.23305332
     atom   15 type  3   force =     0.01909811    0.04098255    0.21337128
     atom   16 type  4   force =     0.00160491   -0.00304662    0.05424115
     atom   17 type  5   force =     0.01553341   -0.01295706   -0.05420180
     The ionic contribution  to forces
     atom    1 type  1   force =     0.02490335   -0.02653795  -58.39713026
     atom    2 type  2   force =     0.13953093   -0.16064810   53.37907009
     atom    3 type  3   force =    -0.22233049   -0.13418352   59.79526708
     atom    4 type  4   force =    -0.13807940   -0.09554034  -56.00869019
     atom    5 type  1   force =     0.05273651    0.03674360  -58.48416631
     atom    6 type  2   force =     0.07289742    0.14945746   53.43702001
     atom    7 type  3   force =    -0.81018188    0.22346940   59.47986705
     atom    8 type  4   force =    -0.08932325    0.07988492  -55.92852260
     atom    9 type  1   force =    -0.02323462   -0.06539639  -58.54085869
     atom   10 type  2   force =    -0.49303027   -1.47125815   52.07420660
     atom   11 type  3   force =     0.24652651   -0.20866742   59.74578026
     atom   12 type  4   force =     0.15264355   -0.14024379  -56.12292892
     atom   13 type  1   force =    -0.07177950    0.10455586  -58.90271996
     atom   14 type  2   force =    -0.12901530    0.62801624   53.15545623
     atom   15 type  3   force =     1.48916833    0.60090378   58.78058045
     atom   16 type  4   force =     0.09172567    0.11347998  -55.98601203
     atom   17 type  5   force =    -0.29315755    0.36596441    8.52378117
     The local contribution  to forces
     atom    1 type  1   force =    -0.02911211    0.03363846   58.33639026
     atom    2 type  2   force =    -0.13886076    0.20513461  -52.78380029
     atom    3 type  3   force =     0.21922838    0.12794908  -59.79993658
     atom    4 type  4   force =     0.14064143    0.10047168   55.58025923
     atom    5 type  1   force =    -0.03734416   -0.04795521   58.43009265
     atom    6 type  2   force =    -0.06982775   -0.16940626  -52.81644686
     atom    7 type  3   force =     0.74434473   -0.22619982  -59.53141573
     atom    8 type  4   force =     0.09758264   -0.08289467   55.49501053
     atom    9 type  1   force =     0.02675342    0.02697043   58.48208779
     atom   10 type  2   force =     0.50287304    1.50765419  -51.52486900
     atom   11 type  3   force =    -0.24487916    0.19691836  -59.75353058
     atom   12 type  4   force =    -0.14237620    0.13128267   55.70263130
     atom   13 type  1   force =     0.07193127   -0.09617838   58.87676702
     atom   14 type  2   force =     0.15095698   -0.62496220  -52.54906481
     atom   15 type  3   force =    -1.49124714   -0.63134377  -58.75992480
     atom   16 type  4   force =    -0.10540723   -0.11306875   55.56800747
     atom   17 type  5   force =     0.26917314   -0.32744103   -8.41775649
     The core correction contribution to forces
     atom    1 type  1   force =     0.00085846   -0.00096949   -0.01509290
     atom    2 type  2   force =    -0.00012014    0.00106920    0.02081515
     atom    3 type  3   force =     0.00159649   -0.00169665    0.03368012
     atom    4 type  4   force =     0.00067071   -0.00043371   -0.01218347
     atom    5 type  1   force =    -0.00122812   -0.00314308   -0.01305152
     atom    6 type  2   force =     0.00003342   -0.00071751    0.02170587
     atom    7 type  3   force =     0.00131668    0.00152580    0.03811264
     atom    8 type  4   force =    -0.00002159    0.00030343   -0.01235915
     atom    9 type  1   force =     0.00195078    0.00445697   -0.01167349
     atom   10 type  2   force =    -0.00002854    0.00140857    0.01824316
     atom   11 type  3   force =    -0.00136462   -0.00091415    0.03370792
     atom   12 type  4   force =     0.00035601   -0.00089997   -0.01203369
     atom   13 type  1   force =    -0.00105283    0.00004863   -0.02104375
     atom   14 type  2   force =     0.00061342   -0.00117927    0.02239979
     atom   15 type  3   force =     0.00453926    0.00589702    0.02786104
     atom   16 type  4   force =    -0.00007251    0.00013070   -0.01173156
     atom   17 type  5   force =     0.00000000    0.00000000    0.00000000
     The Hubbard contrib.    to forces
     atom    1 type  1   force =     0.00000000    0.00000000    0.00000000
     atom    2 type  2   force =     0.00000000    0.00000000    0.00000000
     atom    3 type  3   force =     0.00000000    0.00000000    0.00000000
     atom    4 type  4   force =     0.00000000    0.00000000    0.00000000
     atom    5 type  1   force =     0.00000000    0.00000000    0.00000000
     atom    6 type  2   force =     0.00000000    0.00000000    0.00000000
     atom    7 type  3   force =     0.00000000    0.00000000    0.00000000
     atom    8 type  4   force =     0.00000000    0.00000000    0.00000000
     atom    9 type  1   force =     0.00000000    0.00000000    0.00000000
     atom   10 type  2   force =     0.00000000    0.00000000    0.00000000
     atom   11 type  3   force =     0.00000000    0.00000000    0.00000000
     atom   12 type  4   force =     0.00000000    0.00000000    0.00000000
     atom   13 type  1   force =     0.00000000    0.00000000    0.00000000
     atom   14 type  2   force =     0.00000000    0.00000000    0.00000000
     atom   15 type  3   force =     0.00000000    0.00000000    0.00000000
     atom   16 type  4   force =     0.00000000    0.00000000    0.00000000
     atom   17 type  5   force =     0.00000000    0.00000000    0.00000000
     The SCF correction term to forces
     atom    1 type  1   force =     0.00000000   -0.00000000   -0.00000000
     atom    2 type  2   force =     0.00000000   -0.00000000    0.00000000
     atom    3 type  3   force =    -0.00000000    0.00000000    0.00000000
     atom    4 type  4   force =     0.00000000   -0.00000000   -0.00000000
     atom    5 type  1   force =     0.00000000   -0.00000000   -0.00000000
     atom    6 type  2   force =     0.00000000    0.00000000    0.00000000
     atom    7 type  3   force =     0.00000000   -0.00000000    0.00000000
     atom    8 type  4   force =     0.00000000    0.00000000   -0.00000000
     atom    9 type  1   force =     0.00000000    0.00000000   -0.00000000
     atom   10 type  2   force =    -0.00000000   -0.00000000    0.00000000
     atom   11 type  3   force =    -0.00000000    0.00000000    0.00000000
     atom   12 type  4   force =    -0.00000000   -0.00000000   -0.00000000
     atom   13 type  1   force =     0.00000000   -0.00000000   -0.00000000
     atom   14 type  2   force =    -0.00000000    0.00000000    0.00000000
     atom   15 type  3   force =    -0.00000000   -0.00000000    0.00000000
     atom   16 type  4   force =    -0.00000000    0.00000000   -0.00000000
     atom   17 type  5   force =    -0.00016054   -0.00018298    0.00275356

     Total force =     0.060408     Total SCF correction =     0.002764

     Molecular Dynamics Calculation

     Starting temperature  =   300.00 K

     temperature is set once at start

     mass Hf               =   178.49
     mass Nb               =    92.91
     mass Ta               =   180.95
     mass Zr               =    91.22
     mass H                =     2.01
     Time step             =    10.50 a.u.,  0.5080 femto-seconds

     Entering Dynamics:    iteration =     1
                           time      =   0.0005 pico-seconds


ATOMIC_POSITIONS (angstrom)
Hf            0.9173507110        0.9173135972        6.0002837354    0   0   0
Nb            0.9176900085        2.7523320100        7.7799550803    0   0   0
Ta            2.7538208285        0.9176860149        7.9177084703    0   0   0
Zr            2.7522059512        2.7526418480        6.0659757673    0   0   0
Hf            0.9173105916        4.5873364617        6.0002711019    0   0   0
Nb            0.9176950052        6.4223291151        7.7797918918    0   0   0
Ta            2.7538243094        4.5876680102        7.9176812404    0   0   0
Zr            2.7522395759        6.4227147098        6.0658425039    0   0   0
Hf            4.5873495791        0.9172816749        6.0000109568    0   0   0
Nb            4.5876207816        2.7523359852        7.7804388155    0   0   0
Ta            6.4210161579        0.9176597836        7.9177312144    0   0   0
Zr            6.4229515852        2.7526427058        6.0658048318    0   0   0
Hf            4.5873841500        4.5873764414        6.0000000000    0   0   0
Nb            4.5876157176        6.4223321265        7.7803118750    0   0   0
Ta            6.4210034632        4.5876595310        7.9177105287    0   0   0
Zr            6.4229215841        6.4226899848        6.0656737289    0   0   0
H             4.9998622866        4.0004035813        8.8646736568


     kinetic energy (Ekin) =           0.55137389 Ry
     temperature           =       58036.70163102 K 
     Ekin + Etot (const)   =       -2069.24096546 Ry

     File ./pwscf.msd.dat deleted, as requested

     Writing config-only to output data dir ./pwscf.save/
     NEW-OLD atomic charge density approx. for the potential

     Check: negative core charge=   -0.000002

     negative rho (up, down):  5.274E-01 5.274E-01
     Generating pointlists ...
     new r_m :   0.0958 (alat units)  1.3282 (a.u.) for type    2
     new r_m :   0.1015 (alat units)  1.4077 (a.u.) for type    3
     new r_m :   0.0958 (alat units)  1.3282 (a.u.) for type    5

     total cpu time spent up to now is      461.0 secs

     Self-consistent Calculation

     iteration #  1     ecut=   120.00 Ry     beta= 0.70
     Davidson diagonalization with overlap
     ethr =  1.00E-06,  avg # of iterations =  6.0

     negative rho (up, down):  5.273E-01 5.273E-01

     total cpu time spent up to now is      495.8 secs

     total energy              =   -2069.77289081 Ry
     estimated scf accuracy    <       0.01247199 Ry

     total magnetization       =    -0.00 Bohr mag/cell
     absolute magnetization    =     0.00 Bohr mag/cell

     iteration #  2     ecut=   120.00 Ry     beta= 0.70
     Davidson diagonalization with overlap
     ethr =  6.20E-06,  avg # of iterations =  2.0

     negative rho (up, down):  5.274E-01 5.274E-01

     total cpu time spent up to now is      518.2 secs

     total energy              =   -2069.77371110 Ry
     estimated scf accuracy    <       0.00304657 Ry

     total magnetization       =    -0.00 Bohr mag/cell
     absolute magnetization    =     0.00 Bohr mag/cell

     iteration #  3     ecut=   120.00 Ry     beta= 0.70
     Davidson diagonalization with overlap
     ethr =  1.52E-06,  avg # of iterations =  2.0

     negative rho (up, down):  5.275E-01 5.275E-01

     Magnetic moment per site  (integrated on atomic sphere of radius R)
     atom   1 (R=0.144)  charge=  9.4253  magn= -0.0000
     atom   2 (R=0.096)  charge=  6.7721  magn= -0.0000
     atom   3 (R=0.101)  charge=  7.2454  magn= -0.0001
     atom   4 (R=0.141)  charge=  9.3960  magn= -0.0000
     atom   5 (R=0.144)  charge=  9.4275  magn= -0.0000
     atom   6 (R=0.096)  charge=  6.7678  magn=  0.0000
     atom   7 (R=0.101)  charge=  7.2416  magn=  0.0000
     atom   8 (R=0.141)  charge=  9.3905  magn= -0.0000
     atom   9 (R=0.144)  charge=  9.4299  magn= -0.0000
     atom  10 (R=0.096)  charge=  6.7836  magn=  0.0000
     atom  11 (R=0.101)  charge=  7.2406  magn=  0.0000
     atom  12 (R=0.141)  charge=  9.3995  magn= -0.0000
     atom  13 (R=0.144)  charge=  9.4345  magn= -0.0000
     atom  14 (R=0.096)  charge=  6.7719  magn= -0.0000
     atom  15 (R=0.101)  charge=  7.2511  magn= -0.0000
     atom  16 (R=0.141)  charge=  9.3923  magn= -0.0001
     atom  17 (R=0.096)  charge=  1.0378  magn= -0.0000

     total cpu time spent up to now is      539.9 secs

     End of self-consistent calculation

 ------ SPIN UP ------------


          k = 0.0000 0.0000 0.0000 ( 56136 PWs)   bands (ev):

   -63.0347 -62.9804 -62.9353 -62.8658 -56.3538 -56.3495 -56.3203 -56.3138
   -49.5873 -49.5670 -49.5457 -49.5310 -43.0341 -43.0211 -43.0110 -43.0015
   -30.1730 -30.1287 -29.9646 -29.9527 -29.8900 -29.8683 -29.7894 -29.7602
   -29.6789 -29.6102 -29.5750 -29.5486 -26.7323 -26.5070 -26.3938 -26.3213
   -26.2516 -26.2299 -26.1832 -26.1413 -26.0679 -26.0522 -25.9922 -25.7989
   -25.7821 -25.4670 -25.3859 -25.3835 -25.1487 -25.0607 -24.9124 -24.9089
   -24.8971 -24.8848 -24.8073 -24.7818 -21.5616 -21.4713 -21.3967 -21.3777
   -21.1958 -21.1522 -21.1074 -21.0898 -21.0561 -20.9890 -20.9583 -20.8909
    -2.3650  -0.9062  -0.5998  -0.2154  -0.1176   0.0130   0.1414   0.7544
     1.1148   1.4208   1.4665   1.4967   1.5370   1.5629   1.8854   2.0167
     2.2358   2.2563   2.4426   2.4958   2.5506   2.7301   2.9859   3.2245
     3.3199   3.4187   3.5312   3.5787   3.5801   3.6889   3.8391   3.8570
     3.9165   4.0343   4.1689   4.2288   4.4591   4.6687   4.8206   4.9655
     5.0948   5.3198   5.4511   5.5201   5.5735   5.6275   5.7622   5.9860
     6.2829   6.4726   6.4841   6.5651   6.6020   6.6203   6.7108   6.7589
     6.9553

 ------ SPIN DOWN ----------


          k = 0.0000 0.0000 0.0000 ( 56136 PWs)   bands (ev):

   -63.0346 -62.9805 -62.9354 -62.8658 -56.3538 -56.3495 -56.3204 -56.3138
   -49.5873 -49.5669 -49.5457 -49.5310 -43.0341 -43.0211 -43.0110 -43.0016
   -30.1730 -30.1287 -29.9647 -29.9528 -29.8900 -29.8683 -29.7896 -29.7603
   -29.6789 -29.6103 -29.5751 -29.5487 -26.7324 -26.5070 -26.3938 -26.3213
   -26.2516 -26.2299 -26.1832 -26.1413 -26.0679 -26.0522 -25.9922 -25.7989
   -25.7822 -25.4670 -25.3859 -25.3836 -25.1487 -25.0608 -24.9124 -24.9089
   -24.8971 -24.8848 -24.8073 -24.7818 -21.5616 -21.4714 -21.3967 -21.3777
   -21.1959 -21.1522 -21.1074 -21.0898 -21.0562 -20.9890 -20.9583 -20.8909
    -2.3650  -0.9062  -0.5998  -0.2155  -0.1176   0.0130   0.1413   0.7544
     1.1148   1.4207   1.4665   1.4967   1.5369   1.5629   1.8854   2.0166
     2.2358   2.2563   2.4426   2.4958   2.5506   2.7301   2.9859   3.2245
     3.3199   3.4185   3.5311   3.5787   3.5801   3.6889   3.8391   3.8570
     3.9165   4.0343   4.1689   4.2287   4.4590   4.6685   4.8206   4.9654
     5.0948   5.3197   5.4511   5.5201   5.5734   5.6274   5.7622   5.9860
     6.2828   6.4725   6.4841   6.5650   6.6020   6.6203   6.7108   6.7589
     6.9544

     the Fermi energy is     4.4661 ev

!    total energy              =   -2069.77352302 Ry
     estimated scf accuracy    <       0.00065671 Ry
     smearing contrib. (-TS)   =      -0.03783152 Ry
     internal energy E=F+TS    =   -2069.73569151 Ry

     total magnetization       =    -0.00 Bohr mag/cell
     absolute magnetization    =     0.00 Bohr mag/cell

     convergence has been achieved in   3 iterations

     negative rho (up, down):  5.275E-01 5.275E-01

     Forces acting on atoms (cartesian axes, Ry/au):

     atom    1 type  1   force =     0.00338285    0.00308445   -0.34119188
     atom    2 type  2   force =     0.00829225    0.01097272    0.42811411
     atom    3 type  3   force =    -0.00502989   -0.02222117    0.31228882
     atom    4 type  4   force =    -0.00287215    0.00704366   -0.39567134
     atom    5 type  1   force =     0.00452357   -0.01616613   -0.34808183
     atom    6 type  2   force =     0.01180530    0.01331680    0.44664951
     atom    7 type  3   force =    -0.01169891   -0.00139327    0.30235134
     atom    8 type  4   force =     0.01026110   -0.00362532   -0.39757037
     atom    9 type  1   force =     0.00640542   -0.00273957   -0.33323936
     atom   10 type  2   force =    -0.02100713   -0.07360331    0.36755767
     atom   11 type  3   force =    -0.00976226   -0.00944966    0.30733573
     atom   12 type  4   force =    -0.00144195    0.00403532   -0.40120622
     atom   13 type  1   force =    -0.00067614    0.00181757   -0.34648263
     atom   14 type  2   force =     0.00734911    0.02637705    0.41913954
     atom   15 type  3   force =     0.02968661    0.01933703    0.28541466
     atom   16 type  4   force =    -0.01625386   -0.00003485   -0.39902152
     atom   17 type  5   force =    -0.01296394    0.04324869    0.09361375
     The non-local contrib.  to forces
     atom    1 type  1   force =     0.00551258   -0.00592379   -0.25306989
     atom    2 type  2   force =     0.00245223   -0.01948716   -0.21395121
     atom    3 type  3   force =    -0.00035901   -0.01458846    0.25308658
     atom    4 type  4   force =    -0.00621461    0.00660293    0.05923244
     atom    5 type  1   force =    -0.01046960    0.00299443   -0.25909123
     atom    6 type  2   force =     0.00033661    0.02122094   -0.22508241
     atom    7 type  3   force =     0.05206202    0.00187286    0.28695543
     atom    8 type  4   force =     0.00174212   -0.00385087    0.05941722
     atom    9 type  1   force =     0.00145186    0.02842392   -0.24425415
     atom   10 type  2   force =    -0.02096069   -0.07599663   -0.19988076
     atom   11 type  3   force =    -0.00716355   -0.00146307    0.25100706
     atom   12 type  4   force =    -0.01146099    0.01699265    0.04977728
     atom   13 type  1   force =    -0.00169865   -0.00198540   -0.27443697
     atom   14 type  2   force =    -0.01448443    0.01640981   -0.23666166
     atom   15 type  3   force =     0.01978173    0.04439671    0.22178745
     atom   16 type  4   force =    -0.00212287   -0.00423169    0.05067638
     atom   17 type  5   force =     0.01927910   -0.01767247   -0.05717017
     The ionic contribution  to forces
     atom    1 type  1   force =     0.02683423   -0.02909476  -58.39766766
     atom    2 type  2   force =     0.14794179   -0.16806926   53.40385758
     atom    3 type  3   force =    -0.22898875   -0.13967032   59.81894374
     atom    4 type  4   force =    -0.15436895   -0.10592582  -56.02003284
     atom    5 type  1   force =     0.05849718    0.03985025  -58.48995188
     atom    6 type  2   force =     0.07649195    0.15535008   53.45785776
     atom    7 type  3   force =    -0.87126562    0.24004965   59.51888637
     atom    8 type  4   force =    -0.09760079    0.08825384  -55.93238224
     atom    9 type  1   force =    -0.02566689   -0.07382350  -58.54774510
     atom   10 type  2   force =    -0.57835606   -1.73009412   52.02472280
     atom   11 type  3   force =     0.25466112   -0.21907488   59.77329051
     atom   12 type  4   force =     0.17357307   -0.15879499  -56.14799515
     atom   13 type  1   force =    -0.08426456    0.12225768  -58.96430556
     atom   14 type  2   force =    -0.13849894    0.67962303   53.18559742
     atom   15 type  3   force =     1.68831632    0.68296744   58.80102489
     atom   16 type  4   force =     0.10123895    0.12686123  -55.99432991
     atom   17 type  5   force =    -0.34854405    0.48933444    8.51022927
     The local contribution  to forces
     atom    1 type  1   force =    -0.02571613    0.04962141   58.30150174
     atom    2 type  2   force =    -0.13482173    0.19129286  -52.75918181
     atom    3 type  3   force =     0.22844322    0.14863310  -59.76601194
     atom    4 type  4   force =     0.16182692    0.10139675   55.55596433
     atom    5 type  1   force =    -0.04303400   -0.06685220   58.38564192
     atom    6 type  2   force =    -0.05634465   -0.15579793  -52.78494274
     atom    7 type  3   force =     0.81307007   -0.25997737  -59.51609552
     atom    8 type  4   force =     0.11273936   -0.08297253   55.46071790
     atom    9 type  1   force =     0.02429513    0.04741223   58.44691237
     atom   10 type  2   force =     0.57545003    1.73513109  -51.45639420
     atom   11 type  3   force =    -0.26350530    0.22804089  -59.72335622
     atom   12 type  4   force =    -0.16906118    0.14764995   55.68191120
     atom   13 type  1   force =     0.08728414   -0.12768368   58.88588664
     atom   14 type  2   force =     0.15248877   -0.66307572  -52.52887753
     atom   15 type  3   force =    -1.69868762   -0.73384469  -58.74447869
     atom   16 type  4   force =    -0.12233135   -0.12311340   55.52165484
     atom   17 type  5   force =     0.31603612   -0.42937561   -8.36169118
     The core correction contribution to forces
     atom    1 type  1   force =     0.00094289   -0.00120954   -0.01514463
     atom    2 type  2   force =    -0.00007482    0.00082105    0.02065455
     atom    3 type  3   force =     0.00185089   -0.00190419    0.03376667
     atom    4 type  4   force =     0.00052486   -0.00048127   -0.01223219
     atom    5 type  1   force =    -0.00107254   -0.00290520   -0.01359145
     atom    6 type  2   force =    -0.00001735   -0.00074623    0.02175514
     atom    7 type  3   force =     0.00158176    0.00168568    0.03860866
     atom    8 type  4   force =    -0.00011003    0.00030316   -0.01233865
     atom    9 type  1   force =     0.00200117    0.00406802   -0.01236049
     atom   10 type  2   force =    -0.00024393    0.00086625    0.01773500
     atom   11 type  3   force =    -0.00130081   -0.00100162    0.03387589
     atom   12 type  4   force =     0.00050217   -0.00098466   -0.01201856
     atom   13 type  1   force =    -0.00117845    0.00009969   -0.02095369
     atom   14 type  2   force =     0.00072682   -0.00113477    0.02245179
     atom   15 type  3   force =     0.00493829    0.00666522    0.02785911
     atom   16 type  4   force =     0.00008594    0.00021827   -0.01185891
     atom   17 type  5   force =     0.00000000    0.00000000    0.00000000
     The Hubbard contrib.    to forces
     atom    1 type  1   force =     0.00000000    0.00000000    0.00000000
     atom    2 type  2   force =     0.00000000    0.00000000    0.00000000
     atom    3 type  3   force =     0.00000000    0.00000000    0.00000000
     atom    4 type  4   force =     0.00000000    0.00000000    0.00000000
     atom    5 type  1   force =     0.00000000    0.00000000    0.00000000
     atom    6 type  2   force =     0.00000000    0.00000000    0.00000000
     atom    7 type  3   force =     0.00000000    0.00000000    0.00000000
     atom    8 type  4   force =     0.00000000    0.00000000    0.00000000
     atom    9 type  1   force =     0.00000000    0.00000000    0.00000000
     atom   10 type  2   force =     0.00000000    0.00000000    0.00000000
     atom   11 type  3   force =     0.00000000    0.00000000    0.00000000
     atom   12 type  4   force =     0.00000000    0.00000000    0.00000000
     atom   13 type  1   force =     0.00000000    0.00000000    0.00000000
     atom   14 type  2   force =     0.00000000    0.00000000    0.00000000
     atom   15 type  3   force =     0.00000000    0.00000000    0.00000000
     atom   16 type  4   force =     0.00000000    0.00000000    0.00000000
     atom   17 type  5   force =     0.00000000    0.00000000    0.00000000
     The SCF correction term to forces
     atom    1 type  1   force =    -0.00000000   -0.00000000    0.00000000
     atom    2 type  2   force =    -0.00000000    0.00000000   -0.00000000
     atom    3 type  3   force =    -0.00000000   -0.00000000   -0.00000000
     atom    4 type  4   force =    -0.00000000    0.00000000    0.00000000
     atom    5 type  1   force =     0.00000000    0.00000000    0.00000000
     atom    6 type  2   force =    -0.00000000   -0.00000000   -0.00000000
     atom    7 type  3   force =    -0.00000000    0.00000000   -0.00000000
     atom    8 type  4   force =    -0.00000000   -0.00000000    0.00000000
     atom    9 type  1   force =     0.00000000   -0.00000000    0.00000000
     atom   10 type  2   force =     0.00000000   -0.00000000   -0.00000000
     atom   11 type  3   force =     0.00000000   -0.00000000   -0.00000000
     atom   12 type  4   force =     0.00000000   -0.00000000    0.00000000
     atom   13 type  1   force =    -0.00000000    0.00000000    0.00000000
     atom   14 type  2   force =     0.00000000   -0.00000000   -0.00000000
     atom   15 type  3   force =     0.00000000    0.00000000   -0.00000000
     atom   16 type  4   force =     0.00000000    0.00000000    0.00000000
     atom   17 type  5   force =     0.00017894    0.00094423    0.00046447

     Total force =     0.103933     Total SCF correction =     0.001067

     Entering Dynamics:    iteration =     2
                           time      =   0.0010 pico-seconds


ATOMIC_POSITIONS (angstrom)
Hf            0.9173507110        0.9173135972        6.0002837354    0   0   0
Nb            0.9176900085        2.7523320100        7.7799550803    0   0   0
Ta            2.7538208285        0.9176860149        7.9177084703    0   0   0
Zr            2.7522059512        2.7526418480        6.0659757673    0   0   0
Hf            0.9173105916        4.5873364617        6.0002711019    0   0   0
Nb            0.9176950052        6.4223291151        7.7797918918    0   0   0
Ta            2.7538243094        4.5876680102        7.9176812404    0   0   0
Zr            2.7522395759        6.4227147098        6.0658425039    0   0   0
Hf            4.5873495791        0.9172816749        6.0000109568    0   0   0
Nb            4.5876207816        2.7523359852        7.7804388155    0   0   0
Ta            6.4210161579        0.9176597836        7.9177312144    0   0   0
Zr            6.4229515852        2.7526427058        6.0658048318    0   0   0
Hf            4.5873841500        4.5873764414        6.0000000000    0   0   0
Nb            4.5876157176        6.4223321265        7.7803118750    0   0   0
Ta            6.4210034632        4.5876595310        7.9177105287    0   0   0
Zr            6.4229215841        6.4226899848        6.0656737289    0   0   0
H             4.9993125449        4.0021817207        8.7323226069


     kinetic energy (Ekin) =           0.53256647 Ry
     temperature           =       56057.06389534 K 
     Ekin + Etot (const)   =       -2069.24095655 Ry

     Writing config-only to output data dir ./pwscf.save/
     NEW-OLD atomic charge density approx. for the potential

     Check: negative core charge=   -0.000002

     negative rho (up, down):  5.275E-01 5.275E-01
     Generating pointlists ...
     new r_m :   0.0913 (alat units)  1.2660 (a.u.) for type    2
     new r_m :   0.0978 (alat units)  1.3563 (a.u.) for type    3
     new r_m :   0.0913 (alat units)  1.2660 (a.u.) for type    5

     total cpu time spent up to now is      556.1 secs

     Self-consistent Calculation

     iteration #  1     ecut=   120.00 Ry     beta= 0.70
     Davidson diagonalization with overlap
     ethr =  1.00E-06,  avg # of iterations =  8.5

     negative rho (up, down):  5.277E-01 5.277E-01

     total cpu time spent up to now is      595.3 secs

     total energy              =   -2069.74368531 Ry
     estimated scf accuracy    <       0.02473070 Ry

     total magnetization       =    -0.00 Bohr mag/cell
     absolute magnetization    =     0.00 Bohr mag/cell

     iteration #  2     ecut=   120.00 Ry     beta= 0.70
     Davidson diagonalization with overlap
     ethr =  1.23E-05,  avg # of iterations =  2.0

     negative rho (up, down):  5.276E-01 5.276E-01

     total cpu time spent up to now is      619.9 secs

     total energy              =   -2069.74566030 Ry
     estimated scf accuracy    <       0.00732413 Ry

     total magnetization       =    -0.00 Bohr mag/cell
     absolute magnetization    =     0.00 Bohr mag/cell

     iteration #  3     ecut=   120.00 Ry     beta= 0.70
     Davidson diagonalization with overlap
     ethr =  3.64E-06,  avg # of iterations =  1.0

     negative rho (up, down):  5.274E-01 5.274E-01

     total cpu time spent up to now is      638.3 secs

     total energy              =   -2069.74611797 Ry
     estimated scf accuracy    <       0.00109554 Ry

     total magnetization       =    -0.00 Bohr mag/cell
     absolute magnetization    =     0.00 Bohr mag/cell

     iteration #  4     ecut=   120.00 Ry     beta= 0.70
     Davidson diagonalization with overlap
     ethr =  5.45E-07,  avg # of iterations =  2.0

     negative rho (up, down):  5.274E-01 5.274E-01

     Magnetic moment per site  (integrated on atomic sphere of radius R)
     atom   1 (R=0.144)  charge=  9.4272  magn= -0.0000
     atom   2 (R=0.091)  charge=  6.2391  magn= -0.0000
     atom   3 (R=0.098)  charge=  6.8702  magn= -0.0000
     atom   4 (R=0.141)  charge=  9.3965  magn= -0.0000
     atom   5 (R=0.144)  charge=  9.4295  magn=  0.0000
     atom   6 (R=0.091)  charge=  6.2377  magn=  0.0000
     atom   7 (R=0.098)  charge=  6.8703  magn=  0.0000
     atom   8 (R=0.141)  charge=  9.3933  magn= -0.0000
     atom   9 (R=0.144)  charge=  9.4304  magn= -0.0000
     atom  10 (R=0.091)  charge=  6.2529  magn=  0.0000
     atom  11 (R=0.098)  charge=  6.8688  magn=  0.0000
     atom  12 (R=0.141)  charge=  9.4001  magn= -0.0000
     atom  13 (R=0.144)  charge=  9.4363  magn=  0.0000
     atom  14 (R=0.091)  charge=  6.2374  magn= -0.0000
     atom  15 (R=0.098)  charge=  6.8821  magn= -0.0000
     atom  16 (R=0.141)  charge=  9.3940  magn= -0.0000
     atom  17 (R=0.091)  charge=  1.0301  magn= -0.0000

     total cpu time spent up to now is      663.0 secs

     End of self-consistent calculation

 ------ SPIN UP ------------


          k = 0.0000 0.0000 0.0000 ( 56136 PWs)   bands (ev):

   -63.1383 -63.0884 -63.0115 -62.9408 -56.4524 -56.4482 -56.4113 -56.4035
   -49.6908 -49.6697 -49.6440 -49.6089 -43.1217 -43.1080 -43.0990 -43.0893
   -30.2743 -30.2279 -30.0560 -30.0361 -29.9958 -29.9734 -29.8750 -29.8385
   -29.7795 -29.7144 -29.6583 -29.6350 -26.8308 -26.6132 -26.4932 -26.4211
   -26.3511 -26.3265 -26.2780 -26.2393 -26.1690 -26.1460 -26.0842 -25.8917
   -25.8772 -25.5631 -25.4811 -25.4774 -25.2496 -25.1618 -25.0072 -25.0015
   -24.9976 -24.9826 -24.8972 -24.8796 -21.6513 -21.5608 -21.4870 -21.4677
   -21.2822 -21.2404 -21.1920 -21.1799 -21.1459 -21.0787 -21.0484 -20.9811
    -2.6708  -1.0287  -0.7111  -0.3001  -0.2185  -0.0777   0.0615   0.6510
     1.0222   1.3267   1.3711   1.4055   1.4345   1.4744   1.7925   1.9737
     2.1418   2.1610   2.3542   2.3885   2.4566   2.6590   2.8959   3.1354
     3.2258   3.3210   3.4562   3.4834   3.4985   3.5953   3.7468   3.7608
     3.8311   3.9541   4.0825   4.1444   4.3665   4.5576   4.7188   4.9122
     4.9947   5.2201   5.3556   5.4323   5.4844   5.5381   5.6835   5.8872
     6.1917   6.3727   6.3990   6.4824   6.4981   6.5287   6.6183   6.6658
     6.8621

 ------ SPIN DOWN ----------


          k = 0.0000 0.0000 0.0000 ( 56136 PWs)   bands (ev):

   -63.1383 -63.0884 -63.0115 -62.9408 -56.4524 -56.4482 -56.4113 -56.4035
   -49.6908 -49.6697 -49.6440 -49.6089 -43.1217 -43.1080 -43.0990 -43.0893
   -30.2743 -30.2279 -30.0561 -30.0361 -29.9958 -29.9733 -29.8750 -29.8386
   -29.7794 -29.7144 -29.6584 -29.6351 -26.8308 -26.6132 -26.4933 -26.4211
   -26.3510 -26.3265 -26.2781 -26.2393 -26.1690 -26.1460 -26.0842 -25.8917
   -25.8772 -25.5631 -25.4811 -25.4774 -25.2496 -25.1618 -25.0072 -25.0015
   -24.9976 -24.9826 -24.8972 -24.8796 -21.6513 -21.5608 -21.4870 -21.4677
   -21.2823 -21.2404 -21.1920 -21.1800 -21.1459 -21.0787 -21.0484 -20.9811
    -2.6708  -1.0287  -0.7111  -0.3001  -0.2185  -0.0777   0.0615   0.6510
     1.0222   1.3267   1.3711   1.4054   1.4344   1.4744   1.7925   1.9737
     2.1418   2.1610   2.3542   2.3885   2.4566   2.6590   2.8959   3.1354
     3.2258   3.3210   3.4562   3.4834   3.4984   3.5953   3.7468   3.7608
     3.8311   3.9541   4.0825   4.1443   4.3665   4.5575   4.7188   4.9122
     4.9947   5.2201   5.3556   5.4322   5.4844   5.5381   5.6835   5.8872
     6.1917   6.3727   6.3990   6.4824   6.4981   6.5286   6.6183   6.6658
     6.8618

     the Fermi energy is     4.3723 ev

!    total energy              =   -2069.74593735 Ry
     estimated scf accuracy    <       0.00037398 Ry
     smearing contrib. (-TS)   =      -0.03918312 Ry
     internal energy E=F+TS    =   -2069.70675423 Ry

     total magnetization       =    -0.00 Bohr mag/cell
     absolute magnetization    =     0.00 Bohr mag/cell

     convergence has been achieved in   4 iterations

     negative rho (up, down):  5.274E-01 5.274E-01

     Forces acting on atoms (cartesian axes, Ry/au):

     atom    1 type  1   force =     0.00231624   -0.00039646   -0.32780293
     atom    2 type  2   force =     0.00708876    0.01250562    0.41895128
     atom    3 type  3   force =    -0.00857069   -0.02726584    0.30240089
     atom    4 type  4   force =    -0.00463179    0.00687070   -0.39055702
     atom    5 type  1   force =     0.00419937   -0.01409123   -0.33077402
     atom    6 type  2   force =     0.01211249    0.01507617    0.43904566
     atom    7 type  3   force =    -0.01551868    0.00150533    0.28959401
     atom    8 type  4   force =     0.00739516   -0.00418986   -0.39254281
     atom    9 type  1   force =     0.00857326   -0.00302902   -0.31985059
     atom   10 type  2   force =    -0.03112315   -0.11007260    0.33319055
     atom   11 type  3   force =    -0.00895095   -0.01136026    0.29569340
     atom   12 type  4   force =    -0.00072946    0.00441177   -0.39561000
     atom   13 type  1   force =    -0.00041794    0.00230347   -0.33295872
     atom   14 type  2   force =     0.00800028    0.02870208    0.41025710
     atom   15 type  3   force =     0.05161531    0.03141532    0.26513549
     atom   16 type  4   force =    -0.01370670   -0.00063769   -0.39153031
     atom   17 type  5   force =    -0.01765150    0.06825249    0.12735804
     The non-local contrib.  to forces
     atom    1 type  1   force =     0.00565292   -0.00815135   -0.24738618
     atom    2 type  2   force =     0.00134485   -0.01379041   -0.20842384
     atom    3 type  3   force =    -0.00082750   -0.01636171    0.25016643
     atom    4 type  4   force =    -0.00545088    0.00829865    0.06443538
     atom    5 type  1   force =    -0.01099879    0.00438660   -0.24859940
     atom    6 type  2   force =     0.00090007    0.02307639   -0.22491500
     atom    7 type  3   force =     0.04858526    0.00486628    0.27947615
     atom    8 type  4   force =     0.00037961   -0.00504566    0.06218933
     atom    9 type  1   force =     0.00372756    0.02842611   -0.23473770
     atom   10 type  2   force =    -0.02098080   -0.07767779   -0.18950896
     atom   11 type  3   force =    -0.00641526   -0.00413791    0.24544634
     atom   12 type  4   force =    -0.01248002    0.01824916    0.05353518
     atom   13 type  1   force =    -0.00147824   -0.00168289   -0.26543994
     atom   14 type  2   force =    -0.01647738    0.01678838   -0.23557689
     atom   15 type  3   force =     0.02925835    0.05280260    0.22032075
     atom   16 type  4   force =    -0.00246016   -0.00575425    0.05750432
     atom   17 type  5   force =     0.02325507   -0.02356406   -0.05757751
     The ionic contribution  to forces
     atom    1 type  1   force =     0.02878274   -0.03163340  -58.39698870
     atom    2 type  2   force =     0.15546062   -0.17491506   53.43072183
     atom    3 type  3   force =    -0.23481848   -0.14427422   59.84381979
     atom    4 type  4   force =    -0.17194446   -0.11715689  -56.03009941
     atom    5 type  1   force =     0.06461724    0.04299330  -58.49433684
     atom    6 type  2   force =     0.07975376    0.16079818   53.47979497
     atom    7 type  3   force =    -0.92969283    0.25525646   59.56558276
     atom    8 type  4   force =    -0.10636687    0.09715375  -55.93502323
     atom    9 type  1   force =    -0.02816965   -0.08267253  -58.55314087
     atom   10 type  2   force =    -0.67101648   -2.01574817   52.00831586
     atom   11 type  3   force =     0.26178909   -0.22786303   59.80277695
     atom   12 type  4   force =     0.19673795   -0.17944552  -56.17263677
     atom   13 type  1   force =    -0.09885186    0.14274988  -59.03217380
     atom   14 type  2   force =    -0.14766098    0.73042841   53.22162152
     atom   15 type  3   force =     1.89481353    0.76589677   58.85200443
     atom   16 type  4   force =     0.11143737    0.14132293  -56.00145182
     atom   17 type  5   force =    -0.40487069    0.63710914    8.41121332
     The local contribution  to forces
     atom    1 type  1   force =    -0.03388686    0.04326996   58.35803876
     atom    2 type  2   force =    -0.15273724    0.20643274  -52.82056158
     atom    3 type  3   force =     0.22113277    0.14143371  -59.82766911
     atom    4 type  4   force =     0.17302573    0.11862281   55.61738687
     atom    5 type  1   force =    -0.04969950   -0.06122272   58.45570903
     atom    6 type  2   force =    -0.07160216   -0.17331240  -52.83255711
     atom    7 type  3   force =     0.85828843   -0.26560081  -59.59475164
     atom    8 type  4   force =     0.11113559   -0.09864739   55.51872734
     atom    9 type  1   force =     0.03157584    0.05249789   58.50379427
     atom   10 type  2   force =     0.66243446    1.98407339  -51.50505208
     atom   11 type  3   force =    -0.25998407    0.22745114  -59.78519025
     atom   12 type  4   force =    -0.18631853    0.16980278   55.76690243
     atom   13 type  1   force =     0.10251767   -0.14418654   59.00880468
     atom   14 type  2   force =     0.17460971   -0.72176111  -52.59458374
     atom   15 type  3   force =    -1.87065675   -0.79803280  -58.83770683
     atom   16 type  4   force =    -0.12042170   -0.13964410   55.59265751
     atom   17 type  5   force =     0.36432750   -0.54549268   -8.22700423
     The core correction contribution to forces
     atom    1 type  1   force =     0.00104909   -0.00130565   -0.01535969
     atom    2 type  2   force =    -0.00003635    0.00060037    0.02044035
     atom    3 type  3   force =     0.00224754   -0.00203800    0.03373711
     atom    4 type  4   force =     0.00046255   -0.00052138   -0.01225802
     atom    5 type  1   force =    -0.00100741   -0.00275628   -0.01407857
     atom    6 type  2   force =    -0.00009677   -0.00085879    0.02183521
     atom    7 type  3   force =     0.00174821    0.00170118    0.03852425
     atom    8 type  4   force =    -0.00009653    0.00033240   -0.01225027
     atom    9 type  1   force =     0.00205706    0.00372326   -0.01286463
     atom   10 type  2   force =    -0.00046850    0.00034502    0.01712167
     atom   11 type  3   force =    -0.00116078   -0.00115319    0.03360443
     atom   12 type  4   force =     0.00056475   -0.00102925   -0.01191903
     atom   13 type  1   force =    -0.00122065    0.00001802   -0.02051220
     atom   14 type  2   force =     0.00081903   -0.00110736    0.02242905
     atom   15 type  3   force =     0.00562943    0.00735633    0.02767540
     atom   16 type  4   force =     0.00015291    0.00026851   -0.01188537
     atom   17 type  5   force =     0.00000000    0.00000000    0.00000000
     The Hubbard contrib.    to forces
     atom    1 type  1   force =     0.00000000    0.00000000    0.00000000
     atom    2 type  2   force =     0.00000000    0.00000000    0.00000000
     atom    3 type  3   force =     0.00000000    0.00000000    0.00000000
     atom    4 type  4   force =     0.00000000    0.00000000    0.00000000
     atom    5 type  1   force =     0.00000000    0.00000000    0.00000000
     atom    6 type  2   force =     0.00000000    0.00000000    0.00000000
     atom    7 type  3   force =     0.00000000    0.00000000    0.00000000
     atom    8 type  4   force =     0.00000000    0.00000000    0.00000000
     atom    9 type  1   force =     0.00000000    0.00000000    0.00000000
     atom   10 type  2   force =     0.00000000    0.00000000    0.00000000
     atom   11 type  3   force =     0.00000000    0.00000000    0.00000000
     atom   12 type  4   force =     0.00000000    0.00000000    0.00000000
     atom   13 type  1   force =     0.00000000    0.00000000    0.00000000
     atom   14 type  2   force =     0.00000000    0.00000000    0.00000000
     atom   15 type  3   force =     0.00000000    0.00000000    0.00000000
     atom   16 type  4   force =     0.00000000    0.00000000    0.00000000
     atom   17 type  5   force =     0.00000000    0.00000000    0.00000000
     The SCF correction term to forces
     atom    1 type  1   force =     0.00000000   -0.00000000   -0.00000000
     atom    2 type  2   force =     0.00000000   -0.00000000   -0.00000000
     atom    3 type  3   force =     0.00000000   -0.00000000    0.00000000
     atom    4 type  4   force =    -0.00000000   -0.00000000   -0.00000000
     atom    5 type  1   force =     0.00000000    0.00000000   -0.00000000
     atom    6 type  2   force =     0.00000000    0.00000000   -0.00000000
     atom    7 type  3   force =     0.00000000    0.00000000    0.00000000
     atom    8 type  4   force =     0.00000000    0.00000000   -0.00000000
     atom    9 type  1   force =    -0.00000000   -0.00000000   -0.00000000
     atom   10 type  2   force =    -0.00000000   -0.00000000    0.00000000
     atom   11 type  3   force =    -0.00000000   -0.00000000    0.00000000
     atom   12 type  4   force =     0.00000000   -0.00000000   -0.00000000
     atom   13 type  1   force =    -0.00000000    0.00000000   -0.00000000
     atom   14 type  2   force =    -0.00000000    0.00000000   -0.00000000
     atom   15 type  3   force =    -0.00000000    0.00000000    0.00000000
     atom   16 type  4   force =    -0.00000000    0.00000000   -0.00000000
     atom   17 type  5   force =    -0.00035460    0.00023204    0.00327110

     Total force =     0.145568     Total SCF correction =     0.003298

     Entering Dynamics:    iteration =     3
                           time      =   0.0015 pico-seconds


ATOMIC_POSITIONS (angstrom)
Hf            0.9173507110        0.9173135972        6.0002837354    0   0   0
Nb            0.9176900085        2.7523320100        7.7799550803    0   0   0
Ta            2.7538208285        0.9176860149        7.9177084703    0   0   0
Zr            2.7522059512        2.7526418480        6.0659757673    0   0   0
Hf            0.9173105916        4.5873364617        6.0002711019    0   0   0
Nb            0.9176950052        6.4223291151        7.7797918918    0   0   0
Ta            2.7538243094        4.5876680102        7.9176812404    0   0   0
Zr            2.7522395759        6.4227147098        6.0658425039    0   0   0
Hf            4.5873495791        0.9172816749        6.0000109568    0   0   0
Nb            4.5876207816        2.7523359852        7.7804388155    0   0   0
Ta            6.4210161579        0.9176597836        7.9177312144    0   0   0
Zr            6.4229515852        2.7526427058        6.0658048318    0   0   0
Hf            4.5873841500        4.5873764414        6.0000000000    0   0   0
Nb            4.5876157176        6.4223321265        7.7803118750    0   0   0
Ta            6.4210034632        4.5876595310        7.9177105287    0   0   0
Zr            6.4229215841        6.4226899848        6.0656737289    0   0   0
H             4.9982017917        4.0061291055        8.6040193333


     kinetic energy (Ekin) =           0.50521438 Ry
     temperature           =       53178.02754457 K 
     Ekin + Etot (const)   =       -2069.24072297 Ry

     Writing config-only to output data dir ./pwscf.save/
     NEW-OLD atomic charge density approx. for the potential

     Check: negative core charge=   -0.000002

     negative rho (up, down):  5.274E-01 5.274E-01
     Generating pointlists ...
     new r_m :   0.0874 (alat units)  1.2124 (a.u.) for type    2
     new r_m :   0.0946 (alat units)  1.3122 (a.u.) for type    3
     new r_m :   0.0874 (alat units)  1.2124 (a.u.) for type    5

     total cpu time spent up to now is      680.7 secs

     Self-consistent Calculation

     iteration #  1     ecut=   120.00 Ry     beta= 0.70
     Davidson diagonalization with overlap
     ethr =  1.00E-06,  avg # of iterations =  6.0

     negative rho (up, down):  5.273E-01 5.273E-01

     total cpu time spent up to now is      716.3 secs

     total energy              =   -2069.70988904 Ry
     estimated scf accuracy    <       0.02168092 Ry

     total magnetization       =    -0.00 Bohr mag/cell
     absolute magnetization    =     0.00 Bohr mag/cell

     iteration #  2     ecut=   120.00 Ry     beta= 0.70
     Davidson diagonalization with overlap
     ethr =  1.08E-05,  avg # of iterations =  2.0

     negative rho (up, down):  5.274E-01 5.274E-01

     total cpu time spent up to now is      738.2 secs

     total energy              =   -2069.71094948 Ry
     estimated scf accuracy    <       0.00242187 Ry

     total magnetization       =    -0.00 Bohr mag/cell
     absolute magnetization    =     0.00 Bohr mag/cell

     iteration #  3     ecut=   120.00 Ry     beta= 0.70
     Davidson diagonalization with overlap
     ethr =  1.20E-06,  avg # of iterations =  2.0

     negative rho (up, down):  5.275E-01 5.275E-01

     Magnetic moment per site  (integrated on atomic sphere of radius R)
     atom   1 (R=0.144)  charge=  9.4245  magn=  0.0000
     atom   2 (R=0.087)  charge=  5.7445  magn= -0.0000
     atom   3 (R=0.095)  charge=  6.5239  magn= -0.0000
     atom   4 (R=0.141)  charge=  9.3954  magn= -0.0000
     atom   5 (R=0.144)  charge=  9.4267  magn=  0.0000
     atom   6 (R=0.087)  charge=  5.7454  magn=  0.0000
     atom   7 (R=0.095)  charge=  6.5222  magn=  0.0000
     atom   8 (R=0.141)  charge=  9.3936  magn=  0.0000
     atom   9 (R=0.144)  charge=  9.4285  magn= -0.0000
     atom  10 (R=0.087)  charge=  5.7655  magn= -0.0000
     atom  11 (R=0.095)  charge=  6.5209  magn= -0.0000
     atom  12 (R=0.141)  charge=  9.3985  magn= -0.0000
     atom  13 (R=0.144)  charge=  9.4349  magn= -0.0000
     atom  14 (R=0.087)  charge=  5.7518  magn= -0.0000
     atom  15 (R=0.095)  charge=  6.5367  magn= -0.0000
     atom  16 (R=0.141)  charge=  9.3940  magn=  0.0000
     atom  17 (R=0.087)  charge=  1.0254  magn= -0.0000

     total cpu time spent up to now is      761.1 secs

     End of self-consistent calculation

 ------ SPIN UP ------------


          k = 0.0000 0.0000 0.0000 ( 56136 PWs)   bands (ev):

   -63.0423 -63.0050 -62.9266 -62.8261 -56.3756 -56.3676 -56.3373 -56.3166
   -49.6082 -49.5963 -49.5339 -49.5068 -43.0458 -43.0311 -43.0246 -43.0130
   -30.1861 -30.1372 -29.9686 -29.9411 -29.9071 -29.8839 -29.7880 -29.7341
   -29.6844 -29.6308 -29.5779 -29.5279 -26.7493 -26.5400 -26.4138 -26.3358
   -26.2694 -26.2351 -26.1899 -26.1489 -26.0833 -26.0550 -25.9918 -25.7980
   -25.7968 -25.4808 -25.4034 -25.3949 -25.1718 -25.0823 -24.9228 -24.9207
   -24.9158 -24.8986 -24.8118 -24.7970 -21.5743 -21.4837 -21.4095 -21.3899
   -21.2059 -21.1647 -21.1142 -21.1061 -21.0689 -21.0011 -20.9714 -20.9036
    -2.8074  -0.9623  -0.6351  -0.2023  -0.1413   0.0151   0.1688   0.7210
     1.1087   1.4110   1.4571   1.4891   1.5130   1.5627   1.8807   2.1084
     2.2269   2.2471   2.4356   2.4541   2.5429   2.7676   2.9867   3.2162
     3.3109   3.4007   3.5187   3.5608   3.5686   3.6783   3.8222   3.8401
     3.9147   4.0295   4.1546   4.2198   4.4458   4.6160   4.8070   4.9868
     5.0512   5.3013   5.4389   5.5130   5.5663   5.6197   5.7659   5.9669
     6.2740   6.4342   6.4786   6.5556   6.5688   6.6065   6.7022   6.7532
     6.9395

 ------ SPIN DOWN ----------


          k = 0.0000 0.0000 0.0000 ( 56136 PWs)   bands (ev):

   -63.0423 -63.0050 -62.9267 -62.8261 -56.3756 -56.3676 -56.3373 -56.3166
   -49.6082 -49.5963 -49.5339 -49.5068 -43.0458 -43.0311 -43.0246 -43.0130
   -30.1862 -30.1372 -29.9686 -29.9411 -29.9071 -29.8839 -29.7880 -29.7341
   -29.6844 -29.6308 -29.5779 -29.5279 -26.7493 -26.5400 -26.4138 -26.3358
   -26.2694 -26.2351 -26.1899 -26.1489 -26.0833 -26.0550 -25.9918 -25.7980
   -25.7968 -25.4808 -25.4034 -25.3949 -25.1718 -25.0823 -24.9228 -24.9207
   -24.9158 -24.8986 -24.8118 -24.7970 -21.5743 -21.4837 -21.4095 -21.3899
   -21.2060 -21.1647 -21.1142 -21.1061 -21.0689 -21.0011 -20.9714 -20.9036
    -2.8074  -0.9623  -0.6351  -0.2023  -0.1413   0.0151   0.1688   0.7210
     1.1087   1.4110   1.4571   1.4891   1.5130   1.5627   1.8807   2.1084
     2.2269   2.2471   2.4356   2.4541   2.5429   2.7675   2.9867   3.2162
     3.3109   3.4007   3.5187   3.5608   3.5686   3.6783   3.8222   3.8401
     3.9147   4.0295   4.1546   4.2198   4.4458   4.6160   4.8071   4.9868
     5.0512   5.3013   5.4389   5.5130   5.5663   5.6197   5.7659   5.9669
     6.2740   6.4342   6.4786   6.5556   6.5688   6.6065   6.7022   6.7532
     6.9393

     the Fermi energy is     4.4457 ev

!    total energy              =   -2069.71066491 Ry
     estimated scf accuracy    <       0.00084366 Ry
     smearing contrib. (-TS)   =      -0.03952909 Ry
     internal energy E=F+TS    =   -2069.67113582 Ry

     total magnetization       =    -0.00 Bohr mag/cell
     absolute magnetization    =     0.00 Bohr mag/cell

     convergence has been achieved in   3 iterations

     negative rho (up, down):  5.275E-01 5.275E-01

     Forces acting on atoms (cartesian axes, Ry/au):

     atom    1 type  1   force =     0.00419928   -0.00388073   -0.34492897
     atom    2 type  2   force =     0.00692763    0.01175317    0.42500852
     atom    3 type  3   force =    -0.00542990   -0.03395196    0.31253145
     atom    4 type  4   force =    -0.00320353    0.00356802   -0.39507563
     atom    5 type  1   force =     0.00357323   -0.01210761   -0.34843826
     atom    6 type  2   force =     0.01352188    0.01911258    0.44615426
     atom    7 type  3   force =    -0.01108083    0.00686051    0.29705423
     atom    8 type  4   force =     0.00954219   -0.00224374   -0.39443063
     atom    9 type  1   force =     0.00798152   -0.00581558   -0.33105252
     atom   10 type  2   force =    -0.04275195   -0.15451386    0.31966440
     atom   11 type  3   force =    -0.01455061   -0.01414952    0.30376067
     atom   12 type  4   force =    -0.00316031    0.00389917   -0.40161001
     atom   13 type  1   force =     0.00014802    0.00573669   -0.34457206
     atom   14 type  2   force =     0.00769861    0.03189940    0.41817523
     atom   15 type  3   force =     0.06424359    0.04412625    0.26557570
     atom   16 type  4   force =    -0.01554595   -0.00012221   -0.39396526
     atom   17 type  5   force =    -0.02211286    0.09982945    0.16614887
     The non-local contrib.  to forces
     atom    1 type  1   force =     0.00708827   -0.01058495   -0.25999685
     atom    2 type  2   force =    -0.00002589   -0.00608398   -0.20653789
     atom    3 type  3   force =     0.00372747   -0.01936146    0.25157839
     atom    4 type  4   force =    -0.00196592    0.00820239    0.05538679
     atom    5 type  1   force =    -0.01121336    0.00533626   -0.26035980
     atom    6 type  2   force =     0.00144784    0.02487824   -0.22945838
     atom    7 type  3   force =     0.05181573    0.00960328    0.27560522
     atom    8 type  4   force =     0.00332925   -0.00445924    0.05260263
     atom    9 type  1   force =     0.00432958    0.02630180   -0.24261112
     atom   10 type  2   force =    -0.02100670   -0.07402212   -0.18413138
     atom   11 type  3   force =    -0.01036411   -0.00712762    0.24374652
     atom   12 type  4   force =    -0.01585853    0.01874807    0.04285116
     atom   13 type  1   force =    -0.00216676    0.00126126   -0.27190154
     atom   14 type  2   force =    -0.01884973    0.01572229   -0.23974258
     atom   15 type  3   force =     0.02151202    0.05677390    0.22210766
     atom   16 type  4   force =    -0.00732239   -0.00699839    0.05129697
     atom   17 type  5   force =     0.02762678   -0.03068132   -0.05682211
     The ionic contribution  to forces
     atom    1 type  1   force =     0.03069502   -0.03404588  -58.39511347
     atom    2 type  2   force =     0.16174684   -0.18110115   53.45913415
     atom    3 type  3   force =    -0.23965826   -0.14769854   59.86942011
     atom    4 type  4   force =    -0.19057049   -0.12919127  -56.03862124
     atom    5 type  1   force =     0.07099421    0.04605048  -58.49726137
     atom    6 type  2   force =     0.08263228    0.16579072   53.50240548
     atom    7 type  3   force =    -0.98407665    0.26827242   59.61889122
     atom    8 type  4   force =    -0.11558528    0.10655921  -55.93650038
     atom    9 type  1   force =    -0.03067566   -0.09164374  -58.55686542
     atom   10 type  2   force =    -0.76575459   -2.31646947   52.03784803
     atom   11 type  3   force =     0.26766485   -0.23440900   59.83363671
     atom   12 type  4   force =     0.22192328   -0.20215244  -56.19616952
     atom   13 type  1   force =    -0.11574990    0.16606438  -59.10682472
     atom   14 type  2   force =    -0.15635554    0.77989119   53.26266768
     atom   15 type  3   force =     2.10035740    0.84435376   58.93649698
     atom   16 type  4   force =     0.12229530    0.15681528  -56.00735916
     atom   17 type  5   force =    -0.45988278    0.80291406    8.21421493
     The local contribution  to forces
     atom    1 type  1   force =    -0.03311746    0.03726232   58.27450491
     atom    2 type  2   force =    -0.15314594    0.19934969  -52.86311289
     atom    3 type  3   force =     0.25388814    0.12094118  -59.85449502
     atom    4 type  4   force =     0.20531266    0.12276192   55.54672387
     atom    5 type  1   force =    -0.05758513   -0.05599407   58.37228287
     atom    6 type  2   force =    -0.06847508   -0.17054845  -52.86427934
     atom    7 type  3   force =     0.94738428   -0.25909274  -59.64762583
     atom    8 type  4   force =     0.13928902   -0.10289435   55.46007967
     atom    9 type  1   force =     0.03035360    0.05062093   58.44507454
     atom   10 type  2   force =     0.74514953    2.24434599  -51.57312902
     atom   11 type  3   force =    -0.29793679    0.21460899  -59.82004951
     atom   12 type  4   force =    -0.22631484    0.19074576   55.70879030
     atom   13 type  1   force =     0.12117329   -0.15578506   59.01764052
     atom   14 type  2   force =     0.18083675   -0.76448592  -52.64159221
     atom   15 type  3   force =    -2.09578556   -0.85220874  -58.93987882
     atom   16 type  4   force =    -0.14778905   -0.15285097   55.53032265
     atom   17 type  5   force =     0.40971668   -0.67136620   -7.99983384
     The core correction contribution to forces
     atom    1 type  1   force =     0.00118833   -0.00154819   -0.01560132
     atom    2 type  2   force =     0.00000738    0.00024315    0.02019668
     atom    3 type  3   force =     0.00274389   -0.00216466    0.03386982
     atom    4 type  4   force =     0.00033077   -0.00056447   -0.01220929
     atom    5 type  1   force =    -0.00085094   -0.00243482   -0.01484450
     atom    6 type  2   force =    -0.00019178   -0.00096089    0.02200110
     atom    7 type  3   force =     0.00202547    0.00186539    0.03852396
     atom    8 type  4   force =    -0.00015925    0.00033941   -0.01213144
     atom    9 type  1   force =     0.00200693    0.00311816   -0.01378014
     atom   10 type  2   force =    -0.00063369   -0.00036070    0.01677229
     atom   11 type  3   force =    -0.00103587   -0.00119111    0.03354539
     atom   12 type  4   force =     0.00067397   -0.00107512   -0.01179629
     atom   13 type  1   force =    -0.00127672   -0.00001419   -0.02022211
     atom   14 type  2   force =     0.00092679   -0.00100448    0.02254398
     atom   15 type  3   force =     0.00591766    0.00786831    0.02753573
     atom   16 type  4   force =     0.00030374    0.00035895   -0.01194998
     atom   17 type  5   force =     0.00000000    0.00000000    0.00000000
     The Hubbard contrib.    to forces
[...]

     iteration #  2     ecut=   120.00 Ry     beta= 0.70
     Davidson diagonalization with overlap
     ethr =  4.48E-05,  avg # of iterations =  2.0

     negative rho (up, down):  5.258E-01 5.258E-01

     total cpu time spent up to now is     2844.9 secs

     total energy              =   -2069.35377628 Ry
     estimated scf accuracy    <       0.00605071 Ry

     total magnetization       =     0.00 Bohr mag/cell
     absolute magnetization    =     0.00 Bohr mag/cell

     iteration #  3     ecut=   120.00 Ry     beta= 0.70
     Davidson diagonalization with overlap
     ethr =  3.01E-06,  avg # of iterations =  2.0

     negative rho (up, down):  5.258E-01 5.258E-01

     total cpu time spent up to now is     2868.5 secs

     total energy              =   -2069.35457649 Ry
     estimated scf accuracy    <       0.00345567 Ry

     total magnetization       =     0.00 Bohr mag/cell
     absolute magnetization    =     0.00 Bohr mag/cell

     iteration #  4     ecut=   120.00 Ry     beta= 0.70
     Davidson diagonalization with overlap
     ethr =  1.72E-06,  avg # of iterations =  2.0

     negative rho (up, down):  5.260E-01 5.260E-01

     total cpu time spent up to now is     2890.2 secs

     total energy              =   -2069.35453937 Ry
     estimated scf accuracy    <       0.00157422 Ry

     total magnetization       =     0.00 Bohr mag/cell
     absolute magnetization    =     0.00 Bohr mag/cell

     iteration #  5     ecut=   120.00 Ry     beta= 0.70
     Davidson diagonalization with overlap
     ethr =  7.83E-07,  avg # of iterations =  2.0

     negative rho (up, down):  5.258E-01 5.258E-01

     Magnetic moment per site  (integrated on atomic sphere of radius R)
     atom   1 (R=0.068)  charge=  2.5238  magn=  0.0000
     atom   2 (R=0.080)  charge=  4.7821  magn=  0.0000
     atom   3 (R=0.086)  charge=  5.4254  magn= -0.0000
     atom   4 (R=0.141)  charge=  9.3948  magn=  0.0000
     atom   5 (R=0.068)  charge=  2.5250  magn= -0.0000
     atom   6 (R=0.080)  charge=  4.7825  magn= -0.0000
     atom   7 (R=0.086)  charge=  5.4275  magn= -0.0000
     atom   8 (R=0.141)  charge=  9.3946  magn=  0.0000
     atom   9 (R=0.068)  charge=  2.5253  magn= -0.0000
     atom  10 (R=0.080)  charge=  4.7842  magn=  0.0000
     atom  11 (R=0.086)  charge=  5.4253  magn= -0.0000
     atom  12 (R=0.141)  charge=  9.3948  magn=  0.0000
     atom  13 (R=0.068)  charge=  2.5421  magn= -0.0000
     atom  14 (R=0.080)  charge=  4.7857  magn= -0.0000
     atom  15 (R=0.086)  charge=  5.4290  magn= -0.0000
     atom  16 (R=0.141)  charge=  9.3963  magn=  0.0000
     atom  17 (R=0.068)  charge=  0.8681  magn= -0.0000

     total cpu time spent up to now is     2912.3 secs

     End of self-consistent calculation

 ------ SPIN UP ------------


          k = 0.0000 0.0000 0.0000 ( 56136 PWs)   bands (ev):

   -63.1501 -63.1329 -63.0858 -63.0813 -56.3284 -56.3136 -56.2774 -56.2216
   -49.7728 -49.7289 -49.6897 -49.6793 -43.1434 -43.1274 -43.1138 -43.1029
   -30.3824 -30.2715 -30.1487 -30.1201 -30.0339 -29.9947 -29.9648 -29.9562
   -29.7952 -29.7711 -29.7012 -29.6920 -26.9874 -26.7842 -26.5134 -26.4193
   -26.3863 -26.3761 -26.3409 -26.2883 -26.2170 -26.1450 -26.1121 -25.9489
   -25.7742 -25.5293 -25.4814 -25.3934 -25.2153 -25.1855 -25.0506 -24.9605
   -24.8793 -24.8406 -24.8004 -24.7790 -21.6671 -21.5768 -21.4935 -21.4746
   -21.3051 -21.2635 -21.2136 -21.2045 -21.1486 -21.0747 -21.0468 -20.9715
    -3.5304  -1.1122  -0.6922  -0.2013  -0.1640  -0.1199   0.0542   0.5435
     0.9188   1.3300   1.3429   1.3996   1.4161   1.4550   1.7693   2.0455
     2.1630   2.3032   2.3560   2.4142   2.4432   2.7836   2.9101   3.2015
     3.3499   3.3851   3.4253   3.4764   3.4812   3.5518   3.7299   3.7695
     3.9146   3.9951   4.0231   4.1324   4.4078   4.6391   4.6932   4.7164
     4.9572   5.1512   5.4076   5.4385   5.4880   5.5171   5.7140   5.7881
     6.1773   6.3725   6.3850   6.4827   6.4907   6.5294   6.6021   6.6261
     6.9333

 ------ SPIN DOWN ----------


          k = 0.0000 0.0000 0.0000 ( 56136 PWs)   bands (ev):

   -63.1501 -63.1329 -63.0858 -63.0813 -56.3284 -56.3136 -56.2774 -56.2216
   -49.7728 -49.7289 -49.6897 -49.6793 -43.1434 -43.1274 -43.1138 -43.1029
   -30.3824 -30.2715 -30.1487 -30.1201 -30.0339 -29.9947 -29.9648 -29.9562
   -29.7952 -29.7711 -29.7012 -29.6920 -26.9874 -26.7842 -26.5134 -26.4193
   -26.3863 -26.3761 -26.3409 -26.2883 -26.2170 -26.1450 -26.1121 -25.9489
   -25.7742 -25.5293 -25.4814 -25.3934 -25.2153 -25.1855 -25.0506 -24.9605
   -24.8793 -24.8406 -24.8004 -24.7790 -21.6671 -21.5768 -21.4935 -21.4746
   -21.3051 -21.2635 -21.2136 -21.2045 -21.1486 -21.0747 -21.0468 -20.9715
    -3.5304  -1.1122  -0.6922  -0.2013  -0.1640  -0.1199   0.0542   0.5435
     0.9188   1.3300   1.3429   1.3996   1.4161   1.4550   1.7693   2.0455
     2.1630   2.3032   2.3560   2.4142   2.4432   2.7836   2.9101   3.2015
     3.3499   3.3851   3.4253   3.4764   3.4812   3.5518   3.7299   3.7695
     3.9146   3.9951   4.0231   4.1324   4.4078   4.6391   4.6932   4.7164
     4.9572   5.1512   5.4076   5.4385   5.4880   5.5171   5.7140   5.7881
     6.1773   6.3725   6.3850   6.4827   6.4907   6.5294   6.6021   6.6261
     6.9333

     the Fermi energy is     4.3853 ev

!    total energy              =   -2069.35435094 Ry
     estimated scf accuracy    <       0.00045466 Ry
     smearing contrib. (-TS)   =      -0.03924920 Ry
     internal energy E=F+TS    =   -2069.31510174 Ry

     total magnetization       =     0.00 Bohr mag/cell
     absolute magnetization    =     0.00 Bohr mag/cell

     convergence has been achieved in   5 iterations

     negative rho (up, down):  5.258E-01 5.258E-01

     Forces acting on atoms (cartesian axes, Ry/au):

     atom    1 type  1   force =     0.00212841    0.00433246   -0.33494210
     atom    2 type  2   force =    -0.00120177   -0.00150939    0.43539405
     atom    3 type  3   force =    -0.00796334    0.00194686    0.30924304
     atom    4 type  4   force =     0.01377138    0.00849965   -0.39306119
     atom    5 type  1   force =     0.00061754    0.00101011   -0.33602821
     atom    6 type  2   force =    -0.00014831   -0.00772921    0.43403829
     atom    7 type  3   force =    -0.03949333   -0.00201372    0.30554172
     atom    8 type  4   force =     0.01004324   -0.00649029   -0.39345973
     atom    9 type  1   force =    -0.00082871   -0.00033368   -0.33138180
     atom   10 type  2   force =    -0.00027617   -0.04571351    0.42405845
     atom   11 type  3   force =    -0.00259710    0.00109079    0.30717663
     atom   12 type  4   force =    -0.01042688    0.00136110   -0.39429877
     atom   13 type  1   force =    -0.10115687   -0.06604440   -1.22074239
     atom   14 type  2   force =    -0.00094250    0.05661892    0.43205556
     atom   15 type  3   force =     0.05293622   -0.00378459    0.31862986
     atom   16 type  4   force =    -0.00431929    0.00282487   -0.39639333
     atom   17 type  5   force =     0.08985746    0.05593404    0.83416991
     The non-local contrib.  to forces
     atom    1 type  1   force =     0.00243386    0.00764046   -0.24388982
     atom    2 type  2   force =    -0.00077966   -0.02325179   -0.23867533
     atom    3 type  3   force =    -0.04210267    0.00265442    0.26719877
     atom    4 type  4   force =    -0.00327900   -0.00374209    0.05551261
     atom    5 type  1   force =     0.00480538   -0.00278411   -0.28099710
     atom    6 type  2   force =    -0.00199625   -0.01390925   -0.23847830
     atom    7 type  3   force =     0.04385778    0.00095647    0.25385923
     atom    8 type  4   force =    -0.00181679    0.00244534    0.05385563
     atom    9 type  1   force =    -0.00678505   -0.00016483   -0.28240341
     atom   10 type  2   force =    -0.00959704   -0.02353348   -0.23654923
     atom   11 type  3   force =     0.01049841    0.00040683    0.27040834
     atom   12 type  4   force =     0.00349816   -0.00222042    0.05178317
     atom   13 type  1   force =     0.04400260    0.02380074    0.10392949
     atom   14 type  2   force =    -0.00839624    0.03799819   -0.23341219
     atom   15 type  3   force =    -0.04237863    0.00415805    0.24084368
     atom   16 type  4   force =     0.00455609    0.00303136    0.05018058
     atom   17 type  5   force =     0.00419554    0.00451599   -0.08450299
     The ionic contribution  to forces
     atom    1 type  1   force =     0.01887664    0.01559391  -58.28320748
     atom    2 type  2   force =     0.03814079   -0.18654956   53.81020376
     atom    3 type  3   force =    -0.22859043    0.02008969   60.18123226
     atom    4 type  4   force =    -0.38013461   -0.37209640  -55.92243247
     atom    5 type  1   force =     0.06579350   -0.01112077  -58.39396373
     atom    6 type  2   force =     0.04297131    0.19741392   53.80899997
     atom    7 type  3   force =    -1.39465003   -0.06703085   60.62451143
     atom    8 type  4   force =    -0.43508827    0.38818038  -55.95941385
     atom    9 type  1   force =    -0.01847532    0.04482721  -58.43681929
     atom   10 type  2   force =    -0.12113922   -1.52255830   54.22782380
     atom   11 type  3   force =     0.23927299    0.02495101   60.19089356
     atom   12 type  4   force =     0.41645648   -0.46477470  -55.98281046
     atom   13 type  1   force =    -0.54382239   -0.33285601  -62.75460388
     atom   14 type  2   force =    -0.15938157    1.85901193   54.37862607
     atom   15 type  3   force =     1.87592480   -0.10134980   60.90702994
     atom   16 type  4   force =     0.48383259    0.49354347  -56.03306630
     atom   17 type  5   force =     0.10001275    0.01472486    3.63699667
     The local contribution  to forces
     atom    1 type  1   force =    -0.01962695   -0.01886512   58.19207730
     atom    2 type  2   force =    -0.03552021    0.20340120  -53.19091755
     atom    3 type  3   force =     0.25989949   -0.02140814  -60.20945448
     atom    4 type  4   force =     0.39450139    0.38349045   55.45744956
     atom    5 type  1   force =    -0.06733464    0.01482901   58.33551207
     atom    6 type  2   force =    -0.03818818   -0.18858810  -53.19011987
     atom    7 type  3   force =     1.30159770    0.06353218  -60.64137711
     atom    8 type  4   force =     0.44427050   -0.39639178   55.49572888
     atom    9 type  1   force =     0.02481525   -0.04519881   58.38597332
     atom   10 type  2   force =     0.12727392    1.49527239  -53.62256904
     atom   11 type  3   force =    -0.25116462   -0.02482433  -60.22448521
     atom   12 type  4   force =    -0.42774779    0.46544297   55.51819914
     atom   13 type  1   force =     0.39143216    0.23716513   61.37274905
     atom   14 type  2   force =     0.16360645   -1.83028300  -53.76614211
     atom   15 type  3   force =    -1.77338326    0.09288885  -60.89661845
     atom   16 type  4   force =    -0.48998252   -0.49082072   55.56818876
     atom   17 type  5   force =    -0.01463972    0.03603870   -2.72538808
     The core correction contribution to forces
     atom    1 type  1   force =     0.00084636    0.00048602   -0.02169288
     atom    2 type  2   force =     0.00004529    0.00024369    0.02216099
     atom    3 type  3   force =    -0.00134431    0.00010029    0.03854982
     atom    4 type  4   force =     0.00031571    0.00032303   -0.01219685
     atom    5 type  1   force =    -0.00028885   -0.00028319   -0.02110788
     atom    6 type  2   force =     0.00007711    0.00094332    0.02224043
     atom    7 type  3   force =     0.00352319    0.00031273    0.03561238
     atom    8 type  4   force =     0.00023403   -0.00022934   -0.01207087
     atom    9 type  1   force =    -0.00071105    0.00035514   -0.02250485
     atom   10 type  2   force =     0.00053007    0.00172797    0.02220160
     atom   11 type  3   force =     0.00295514   -0.00004517    0.03878351
     atom   12 type  4   force =    -0.00029270    0.00019052   -0.01194479
     atom   13 type  1   force =     0.00571779    0.00357935    0.02967809
     atom   14 type  2   force =     0.00053014   -0.00194452    0.02200350
     atom   15 type  3   force =    -0.00265705    0.00018417    0.03477076
     atom   16 type  4   force =    -0.00038871   -0.00024900   -0.01182785
     atom   17 type  5   force =     0.00000000    0.00000000    0.00000000
     The Hubbard contrib.    to forces
     atom    1 type  1   force =     0.00000000    0.00000000    0.00000000
     atom    2 type  2   force =     0.00000000    0.00000000    0.00000000
     atom    3 type  3   force =     0.00000000    0.00000000    0.00000000
     atom    4 type  4   force =     0.00000000    0.00000000    0.00000000
     atom    5 type  1   force =     0.00000000    0.00000000    0.00000000
     atom    6 type  2   force =     0.00000000    0.00000000    0.00000000
     atom    7 type  3   force =     0.00000000    0.00000000    0.00000000
     atom    8 type  4   force =     0.00000000    0.00000000    0.00000000
     atom    9 type  1   force =     0.00000000    0.00000000    0.00000000
     atom   10 type  2   force =     0.00000000    0.00000000    0.00000000
     atom   11 type  3   force =     0.00000000    0.00000000    0.00000000
     atom   12 type  4   force =     0.00000000    0.00000000    0.00000000
     atom   13 type  1   force =     0.00000000    0.00000000    0.00000000
     atom   14 type  2   force =     0.00000000    0.00000000    0.00000000
     atom   15 type  3   force =     0.00000000    0.00000000    0.00000000
     atom   16 type  4   force =     0.00000000    0.00000000    0.00000000
     atom   17 type  5   force =     0.00000000    0.00000000    0.00000000
     The SCF correction term to forces
     atom    1 type  1   force =    -0.00000000   -0.00000000    0.00000000
     atom    2 type  2   force =    -0.00000000    0.00000000    0.00000000
     atom    3 type  3   force =     0.00000000    0.00000000    0.00000000
     atom    4 type  4   force =     0.00000000    0.00000000    0.00000000
     atom    5 type  1   force =    -0.00000000    0.00000000    0.00000000
     atom    6 type  2   force =    -0.00000000   -0.00000000    0.00000000
     atom    7 type  3   force =     0.00000000    0.00000000    0.00000000
     atom    8 type  4   force =     0.00000000   -0.00000000    0.00000000
     atom    9 type  1   force =     0.00000000   -0.00000000    0.00000000
     atom   10 type  2   force =     0.00000000    0.00000000    0.00000000
     atom   11 type  3   force =    -0.00000000    0.00000000    0.00000000
     atom   12 type  4   force =    -0.00000000    0.00000000    0.00000000
     atom   13 type  1   force =     0.00000000    0.00000000    0.00000000
     atom   14 type  2   force =     0.00000000   -0.00000000    0.00000000
     atom   15 type  3   force =    -0.00000000    0.00000000    0.00000000
     atom   16 type  4   force =    -0.00000000   -0.00000000    0.00000000
     atom   17 type  5   force =     0.00029909    0.00059198    0.00284897

     Total force =     0.840858     Total SCF correction =     0.002925

     Entering Dynamics:    iteration =    20
                           time      =   0.0102 pico-seconds


ATOMIC_POSITIONS (angstrom)
Hf            0.9173507110        0.9173135972        6.0002837354    0   0   0
Nb            0.9176900085        2.7523320100        7.7799550803    0   0   0
Ta            2.7538208285        0.9176860149        7.9177084703    0   0   0
Zr            2.7522059512        2.7526418480        6.0659757673    0   0   0
Hf            0.9173105916        4.5873364617        6.0002711019    0   0   0
Nb            0.9176950052        6.4223291151        7.7797918918    0   0   0
Ta            2.7538243094        4.5876680102        7.9176812404    0   0   0
Zr            2.7522395759        6.4227147098        6.0658425039    0   0   0
Hf            4.5873495791        0.9172816749        6.0000109568    0   0   0
Nb            4.5876207816        2.7523359852        7.7804388155    0   0   0
Ta            6.4210161579        0.9176597836        7.9177312144    0   0   0
Zr            6.4229515852        2.7526427058        6.0658048318    0   0   0
Hf            4.5873841500        4.5873764414        6.0000000000    0   0   0
Nb            4.5876157176        6.4223321265        7.7803118750    0   0   0
Ta            6.4210034632        4.5876595310        7.9177105287    0   0   0
Zr            6.4229215841        6.4226899848        6.0656737289    0   0   0
H             4.7130222286        4.7356520332        7.2031901660


     kinetic energy (Ekin) =           0.11593239 Ry
     temperature           =       12202.85097095 K 
     Ekin + Etot (const)   =       -2069.23841856 Ry

     The maximum number of steps has been reached.

     End of molecular dynamics calculation

     diffusion coefficients :
     atom     1   D =       0.00000000 cm^2/s
     atom     2   D =       0.00000000 cm^2/s
     atom     3   D =       0.00000000 cm^2/s
     atom     4   D =       0.00000000 cm^2/s
     atom     5   D =       0.00000000 cm^2/s
     atom     6   D =       0.00000000 cm^2/s
     atom     7   D =       0.00000000 cm^2/s
     atom     8   D =       0.00000000 cm^2/s
     atom     9   D =       0.00000000 cm^2/s
     atom    10   D =       0.00000000 cm^2/s
     atom    11   D =       0.00000000 cm^2/s
     atom    12   D =       0.00000000 cm^2/s
     atom    13   D =       0.00000000 cm^2/s
     atom    14   D =       0.00000000 cm^2/s
     atom    15   D =       0.00000000 cm^2/s
     atom    16   D =       0.00000000 cm^2/s
     atom    17   D =       0.00631943 cm^2/s

     < D > =       0.00631943 cm^2/s

     Writing all to output data dir ./pwscf.save/

     init_run     :     16.11s CPU     16.50s WALL (       1 calls)
     electrons    :   2523.23s CPU   2583.00s WALL (      20 calls)
     update_pot   :     52.07s CPU     52.33s WALL (      19 calls)
     forces       :    228.22s CPU    232.23s WALL (      20 calls)

     Called by init_run:
     wfcinit      :     10.76s CPU     10.90s WALL (       1 calls)
     potinit      :      1.37s CPU      1.40s WALL (       1 calls)
     hinit0       :      2.02s CPU      2.05s WALL (       1 calls)

     Called by electrons:
     c_bands      :   1886.07s CPU   1901.88s WALL (     101 calls)
     sum_band     :    429.03s CPU    452.15s WALL (     101 calls)
     v_of_rho     :     30.95s CPU     32.60s WALL (     121 calls)
     newd         :    214.72s CPU    236.57s WALL (     121 calls)
     mix_rho      :      1.88s CPU      2.06s WALL (     101 calls)

     Called by c_bands:
     init_us_2    :      3.69s CPU      3.73s WALL (     446 calls)
     init_us_2:cp :      3.69s CPU      3.73s WALL (     446 calls)
     regterg      :   1859.04s CPU   1874.65s WALL (     202 calls)

     Called by *egterg:
     rdiaghg      :     23.47s CPU     23.50s WALL (     831 calls)
     h_psi        :    772.46s CPU    783.58s WALL (     871 calls)
     s_psi        :    233.23s CPU    233.50s WALL (     871 calls)
     g_psi        :      0.81s CPU      0.82s WALL (     667 calls)

     Called by h_psi:
     h_psi:calbec :    331.67s CPU    332.35s WALL (     871 calls)
     vloc_psi     :    204.65s CPU    214.68s WALL (     871 calls)
     add_vuspsi   :    234.81s CPU    235.21s WALL (     871 calls)

     General routines
     calbec       :    574.52s CPU    575.68s WALL (    1233 calls)
     fft          :     51.20s CPU     52.66s WALL (    2134 calls)
     ffts         :      0.61s CPU      0.67s WALL (     101 calls)
     fftw         :    218.94s CPU    229.49s WALL (   73726 calls)

     Parallel routines

     PWSCF        :  47m36.21s CPU  48m44.76s WALL


   This run was terminated on:  18:46:41  30May2023            

=------------------------------------------------------------------------------=
   JOB DONE.
=------------------------------------------------------------------------------=
