
     Program PWSCF v.7.2 starts on 15May2023 at 17:23:52 

     This program is part of the open-source Quantum ESPRESSO suite
     for quantum simulation of materials; please cite
         "P. Giannozzi et al., J. Phys.:Condens. Matter 21 395502 (2009);
         "P. Giannozzi et al., J. Phys.:Condens. Matter 29 465901 (2017);
         "P. Giannozzi et al., J. Chem. Phys. 152 154105 (2020);
          URL http://www.quantum-espresso.org", 
     in publications or presentations arising from this work. More details at
     http://www.quantum-espresso.org/quote

     Parallel version (MPI), running on    12 processors

     MPI processes distributed on     1 nodes
     72767 MiB available memory on the printing compute node when the environment starts

     Reading input from HfNbTaZr_2x2x1.in

     Current dimensions of program PWSCF are:
     Max number of different atomic species (ntypx) = 10
     Max number of k-points (npk) =  40000
     Max angular momentum in pseudopotentials (lmaxx) =  4
     Message from routine volume:
     axis vectors are left-handed

     R & G space division:  proc/nbgrp/npool/nimage =      12
     Subspace diagonalization in iterative solution of the eigenvalue problem:
     a serial algorithm will be used


     Parallelization info
     --------------------
     sticks:   dense  smooth     PW     G-vecs:    dense   smooth      PW
     Min         283     283     71                12479    12479    1567
     Max         284     284     72                12483    12483    1568
     Sum        3397    3397    853               149781   149781   18805

     Using Slab Decomposition



     bravais-lattice index     =            0
     lattice parameter (alat)  =      18.8973  a.u.
     unit-cell volume          =    6748.3345 (a.u.)^3
     number of atoms/cell      =            4
     number of atomic types    =            4
     number of electrons       =        50.00
     number of Kohn-Sham states=           30
     kinetic-energy cutoff     =      30.0000  Ry
     charge density cutoff     =     120.0000  Ry
     scf convergence threshold =      1.0E-07
     mixing beta               =       0.7000
     number of iterations used =            8  plain     mixing
     energy convergence thresh.=      1.0E-04
     force convergence thresh. =      1.0E-03
     press convergence thresh. =      5.0E-01
     Exchange-correlation= SLA  PW   PBE  PBE
                           (   1   4   3   4   0   0   0)
     nstep                     =           50


     celldm(1)=  18.897261  celldm(2)=   0.000000  celldm(3)=   0.000000
     celldm(4)=   0.000000  celldm(5)=   0.000000  celldm(6)=   0.000000

     crystal axes: (cart. coord. in units of alat)
               a(1) = (   0.000000   1.000000   0.000000 )  
               a(2) = (   1.000000   0.000000   0.000000 )  
               a(3) = (   0.000000   0.000000   1.000000 )  

     reciprocal axes: (cart. coord. in units 2 pi/alat)
               b(1) = ( -0.000000  1.000000 -0.000000 )  
               b(2) = (  1.000000 -0.000000 -0.000000 )  
               b(3) = ( -0.000000 -0.000000  1.000000 )  


     PseudoPot. # 1 for Hf read from file:
     q-e/pseudo/hf_pbe_v1.uspp.F.UPF
     MD5 check sum: 8ee9378dfe14276e333edf04c5e4aa26
     Pseudo is Ultrasoft + core correction, Zval = 12.0
     Generated by new atomic code, or converted to UPF format
     Using radial grid of  921 points,  8 beta functions with: 
                l(1) =   0
                l(2) =   0
                l(3) =   0
                l(4) =   1
                l(5) =   1
                l(6) =   2
                l(7) =   2
                l(8) =   3
     Q(r) pseudized with  6 coefficients,  rinner =    1.200   1.200   1.200
                                                       1.200   1.200   1.200
                                                       1.200

     PseudoPot. # 2 for Nb read from file:
     q-e/pseudo/nb_pbe_v1.uspp.F.UPF
     MD5 check sum: 573aab8a2fa660278ed4a62cd769473f
     Pseudo is Ultrasoft + core correction, Zval = 13.0
     Generated by new atomic code, or converted to UPF format
     Using radial grid of  887 points,  6 beta functions with: 
                l(1) =   0
                l(2) =   0
                l(3) =   1
                l(4) =   1
                l(5) =   2
                l(6) =   2
     Q(r) pseudized with  6 coefficients,  rinner =    1.000   1.000   1.000
                                                       1.000   1.000

     PseudoPot. # 3 for Ta read from file:
     q-e/pseudo/ta_pbe_v1.uspp.F.UPF
     MD5 check sum: f8bbe9446314a3b8ea5d9f3e3836c939
     Pseudo is Ultrasoft + core correction, Zval = 13.0
     Generated by new atomic code, or converted to UPF format
     Using radial grid of  921 points,  7 beta functions with: 
                l(1) =   0
                l(2) =   0
                l(3) =   1
                l(4) =   1
                l(5) =   2
                l(6) =   2
                l(7) =   3
     Q(r) pseudized with  6 coefficients,  rinner =    1.300   1.300   1.300
                                                       1.300   1.300   1.300
                                                       1.300

     PseudoPot. # 4 for Zr read from file:
     q-e/pseudo/zr_pbe_v1.uspp.F.UPF
     MD5 check sum: 5db81b1e868ab7776c4564c113de050b
     Pseudo is Ultrasoft + core correction, Zval = 12.0
     Generated by new atomic code, or converted to UPF format
     Using radial grid of  887 points,  6 beta functions with: 
                l(1) =   0
                l(2) =   0
                l(3) =   1
                l(4) =   1
                l(5) =   2
                l(6) =   2
     Q(r) pseudized with  6 coefficients,  rinner =    1.200   1.200   1.200
                                                       1.200   1.200

     atomic species   valence    mass     pseudopotential
        Hf            12.00   178.49000     Hf( 1.00)
        Nb            13.00    92.90637     Nb( 1.00)
        Ta            13.00   180.94788     Ta( 1.00)
        Zr            12.00    91.22400     Zr( 1.00)

     No symmetry found



   Cartesian axes

     site n.     atom                  positions (alat units)
         1           Hf  tau(   1) = (   0.5496714  -0.0138264   0.0647689  )
         2           Nb  tau(   2) = (   0.1523030   0.4765847  -0.0234137  )
         3           Ta  tau(   3) = (   0.6579213   0.5767435  -0.0469474  )
         4           Zr  tau(   4) = (   0.0542560  -0.0463418  -0.0465730  )

     number of k points=     1  Gaussian smearing, width (Ry)=  0.0100
                       cart. coord. in units 2pi/alat
        k(    1) = (   0.0000000   0.0000000   0.0000000), wk =   2.0000000

     Dense  grid:   149781 G-vectors     FFT dimensions: (  72,  72,  72)

     Estimated max dynamical RAM per process >     105.29 MB

     Estimated total dynamical RAM >       1.23 GB

     Check: negative core charge=   -0.000005

     Initial potential from superposition of free atoms

     starting charge      47.9940, renormalised to      50.0000

     negative rho (up, down):  2.912E-01 0.000E+00
     Starting wfcs are   52 randomized atomic wfcs

     total cpu time spent up to now is        3.0 secs

     Self-consistent Calculation

     iteration #  1     ecut=    30.00 Ry     beta= 0.70
     Davidson diagonalization with overlap
     ethr =  1.00E-02,  avg # of iterations =  2.0

     negative rho (up, down):  2.621E-01 0.000E+00

     total cpu time spent up to now is        3.7 secs

     total energy              =    -479.43899388 Ry
     estimated scf accuracy    <      48.85784621 Ry

     iteration #  2     ecut=    30.00 Ry     beta= 0.70
     Davidson diagonalization with overlap
     ethr =  1.00E-02,  avg # of iterations = 11.0

     negative rho (up, down):  2.504E-01 0.000E+00

     total cpu time spent up to now is        4.9 secs

     total energy              =    -501.37203499 Ry
     estimated scf accuracy    <     215.56359191 Ry

     iteration #  3     ecut=    30.00 Ry     beta= 0.70
     Davidson diagonalization with overlap
     ethr =  1.00E-02,  avg # of iterations = 14.0

     negative rho (up, down):  2.522E-01 0.000E+00

     total cpu time spent up to now is        6.1 secs

     total energy              =    -516.52896451 Ry
     estimated scf accuracy    <      75.65492018 Ry

     iteration #  4     ecut=    30.00 Ry     beta= 0.70
     Davidson diagonalization with overlap
     ethr =  1.00E-02,  avg # of iterations =  3.0

     negative rho (up, down):  2.537E-01 0.000E+00

     total cpu time spent up to now is        6.8 secs

     total energy              =    -518.20924829 Ry
     estimated scf accuracy    <      19.09971891 Ry

     iteration #  5     ecut=    30.00 Ry     beta= 0.70
     Davidson diagonalization with overlap
     ethr =  1.00E-02,  avg # of iterations =  9.0

     negative rho (up, down):  2.607E-01 0.000E+00

     total cpu time spent up to now is        7.6 secs

     total energy              =    -518.15142714 Ry
     estimated scf accuracy    <      23.08785357 Ry

     iteration #  6     ecut=    30.00 Ry     beta= 0.70
     Davidson diagonalization with overlap
     ethr =  1.00E-02,  avg # of iterations =  5.0

     negative rho (up, down):  2.652E-01 0.000E+00

     total cpu time spent up to now is        8.4 secs

     total energy              =    -517.24665901 Ry
     estimated scf accuracy    <      16.52102415 Ry

     iteration #  7     ecut=    30.00 Ry     beta= 0.70
     Davidson diagonalization with overlap
     ethr =  1.00E-02,  avg # of iterations =  1.0

     negative rho (up, down):  2.650E-01 0.000E+00

     total cpu time spent up to now is        9.1 secs

     total energy              =    -517.44810838 Ry
     estimated scf accuracy    <      15.05374540 Ry

     iteration #  8     ecut=    30.00 Ry     beta= 0.70
     Davidson diagonalization with overlap
     ethr =  1.00E-02,  avg # of iterations =  1.0

     negative rho (up, down):  2.642E-01 0.000E+00

     total cpu time spent up to now is        9.8 secs

     total energy              =    -517.41715979 Ry
     estimated scf accuracy    <      13.01334432 Ry

     iteration #  9     ecut=    30.00 Ry     beta= 0.70
     Davidson diagonalization with overlap
     ethr =  1.00E-02,  avg # of iterations =  1.0

     negative rho (up, down):  2.633E-01 0.000E+00

     total cpu time spent up to now is       10.7 secs

     total energy              =    -516.95390579 Ry
     estimated scf accuracy    <      13.83283031 Ry

     iteration # 10     ecut=    30.00 Ry     beta= 0.70
     Davidson diagonalization with overlap
     ethr =  1.00E-02,  avg # of iterations =  1.0

     negative rho (up, down):  3.208E-01 0.000E+00

     total cpu time spent up to now is       11.6 secs

     total energy              =    -512.87600379 Ry
     estimated scf accuracy    <       7.03821182 Ry

     iteration # 11     ecut=    30.00 Ry     beta= 0.70
     Davidson diagonalization with overlap
     ethr =  1.00E-02,  avg # of iterations =  8.0

     negative rho (up, down):  2.648E-01 0.000E+00

     total cpu time spent up to now is       12.5 secs

     total energy              =    -513.01469900 Ry
     estimated scf accuracy    <      68.35005517 Ry

     iteration # 12     ecut=    30.00 Ry     beta= 0.70
     Davidson diagonalization with overlap
     ethr =  1.00E-02,  avg # of iterations =  4.0

     negative rho (up, down):  2.644E-01 0.000E+00

     total cpu time spent up to now is       13.3 secs

     total energy              =    -515.34952670 Ry
     estimated scf accuracy    <       8.13055201 Ry

     iteration # 13     ecut=    30.00 Ry     beta= 0.70
     Davidson diagonalization with overlap
     ethr =  1.00E-02,  avg # of iterations =  2.0

     negative rho (up, down):  2.648E-01 0.000E+00

     total cpu time spent up to now is       14.0 secs

     total energy              =    -515.39906033 Ry
     estimated scf accuracy    <       5.87271823 Ry

     iteration # 14     ecut=    30.00 Ry     beta= 0.70
     Davidson diagonalization with overlap
     ethr =  1.00E-02,  avg # of iterations =  1.0

     negative rho (up, down):  2.653E-01 0.000E+00

     total cpu time spent up to now is       14.7 secs

     total energy              =    -515.46308397 Ry
     estimated scf accuracy    <       5.62376583 Ry

     iteration # 15     ecut=    30.00 Ry     beta= 0.70
     Davidson diagonalization with overlap
     ethr =  1.00E-02,  avg # of iterations =  1.0

     negative rho (up, down):  2.656E-01 0.000E+00

     total cpu time spent up to now is       15.4 secs

     total energy              =    -515.49972060 Ry
     estimated scf accuracy    <       5.58530291 Ry

     iteration # 16     ecut=    30.00 Ry     beta= 0.70
     Davidson diagonalization with overlap
     ethr =  1.00E-02,  avg # of iterations =  1.0

     negative rho (up, down):  2.668E-01 0.000E+00

     total cpu time spent up to now is       16.1 secs

     total energy              =    -515.51960788 Ry
     estimated scf accuracy    <       5.54211980 Ry

     iteration # 17     ecut=    30.00 Ry     beta= 0.70
     Davidson diagonalization with overlap
     ethr =  1.00E-02,  avg # of iterations = 10.0

     negative rho (up, down):  2.691E-01 0.000E+00

     total cpu time spent up to now is       16.9 secs

     total energy              =    -516.11401075 Ry
     estimated scf accuracy    <       9.44640240 Ry

     iteration # 18     ecut=    30.00 Ry     beta= 0.70
     Davidson diagonalization with overlap
     ethr =  1.00E-02,  avg # of iterations =  1.0

     negative rho (up, down):  2.717E-01 0.000E+00

     total cpu time spent up to now is       17.6 secs

     total energy              =    -516.07364494 Ry
     estimated scf accuracy    <       9.15136674 Ry

     iteration # 19     ecut=    30.00 Ry     beta= 0.70
     Davidson diagonalization with overlap
     ethr =  1.00E-02,  avg # of iterations =  1.0

     negative rho (up, down):  8.098E-01 0.000E+00

     total cpu time spent up to now is       18.3 secs

     total energy              =    -512.17033645 Ry
     estimated scf accuracy    <       8.91438646 Ry

     iteration # 20     ecut=    30.00 Ry     beta= 0.70
     Davidson diagonalization with overlap
     ethr =  1.00E-02,  avg # of iterations =  5.0

     negative rho (up, down):  7.619E-01 0.000E+00

     total cpu time spent up to now is       19.2 secs

     total energy              =    -517.05074227 Ry
     estimated scf accuracy    <      78.19323573 Ry

     iteration # 21     ecut=    30.00 Ry     beta= 0.70
     Davidson diagonalization with overlap
     ethr =  1.00E-02,  avg # of iterations =  2.0

     negative rho (up, down):  5.960E-01 0.000E+00

     total cpu time spent up to now is       20.0 secs

     total energy              =    -517.02978821 Ry
     estimated scf accuracy    <      28.42716125 Ry

     iteration # 22     ecut=    30.00 Ry     beta= 0.70
     Davidson diagonalization with overlap
     ethr =  1.00E-02,  avg # of iterations =  1.0

     negative rho (up, down):  6.091E-01 0.000E+00

     total cpu time spent up to now is       20.7 secs

     total energy              =    -516.75204761 Ry
     estimated scf accuracy    <      22.30375789 Ry

     iteration # 23     ecut=    30.00 Ry     beta= 0.70
     Davidson diagonalization with overlap
     ethr =  1.00E-02,  avg # of iterations =  1.0

     negative rho (up, down):  5.437E-01 0.000E+00

     total cpu time spent up to now is       21.4 secs

     total energy              =    -515.02548000 Ry
     estimated scf accuracy    <      21.11728708 Ry

     iteration # 24     ecut=    30.00 Ry     beta= 0.70
     Davidson diagonalization with overlap
     ethr =  1.00E-02,  avg # of iterations =  2.0

     negative rho (up, down):  2.646E-01 0.000E+00

     total cpu time spent up to now is       22.1 secs

     total energy              =    -516.51471358 Ry
     estimated scf accuracy    <       6.44388848 Ry

     iteration # 25     ecut=    30.00 Ry     beta= 0.70
     Davidson diagonalization with overlap
     ethr =  1.00E-02,  avg # of iterations =  2.0

     negative rho (up, down):  2.855E-01 0.000E+00

     total cpu time spent up to now is       22.9 secs

     total energy              =    -509.95595341 Ry
     estimated scf accuracy    <      29.48381449 Ry

     iteration # 26     ecut=    30.00 Ry     beta= 0.70
     Davidson diagonalization with overlap
     ethr =  1.00E-02,  avg # of iterations =  9.0

     negative rho (up, down):  2.652E-01 0.000E+00

     total cpu time spent up to now is       23.9 secs

     total energy              =    -515.90899463 Ry
     estimated scf accuracy    <      42.00782799 Ry

     iteration # 27     ecut=    30.00 Ry     beta= 0.70
     Davidson diagonalization with overlap
     ethr =  1.00E-02,  avg # of iterations =  5.0

     negative rho (up, down):  2.657E-01 0.000E+00

     total cpu time spent up to now is       24.6 secs

     total energy              =    -516.35927619 Ry
     estimated scf accuracy    <      15.60966421 Ry

     iteration # 28     ecut=    30.00 Ry     beta= 0.70
     Davidson diagonalization with overlap
     ethr =  1.00E-02,  avg # of iterations =  1.0

     negative rho (up, down):  2.662E-01 0.000E+00

     total cpu time spent up to now is       25.3 secs

     total energy              =    -514.79615622 Ry
     estimated scf accuracy    <      14.40140311 Ry

     iteration # 29     ecut=    30.00 Ry     beta= 0.70
     Davidson diagonalization with overlap
     ethr =  1.00E-02,  avg # of iterations =  3.0

     negative rho (up, down):  2.657E-01 0.000E+00

     total cpu time spent up to now is       26.1 secs

     total energy              =    -514.93662568 Ry
     estimated scf accuracy    <       7.26671983 Ry

     iteration # 30     ecut=    30.00 Ry     beta= 0.70
     Davidson diagonalization with overlap
     ethr =  1.00E-02,  avg # of iterations =  1.0

     negative rho (up, down):  2.654E-01 0.000E+00

     total cpu time spent up to now is       26.8 secs

     total energy              =    -514.59246701 Ry
     estimated scf accuracy    <       7.17472496 Ry

     iteration # 31     ecut=    30.00 Ry     beta= 0.70
     Davidson diagonalization with overlap
     ethr =  1.00E-02,  avg # of iterations =  2.0

     negative rho (up, down):  2.655E-01 0.000E+00

     total cpu time spent up to now is       27.5 secs

     total energy              =    -514.63071212 Ry
     estimated scf accuracy    <       6.22200403 Ry

     iteration # 32     ecut=    30.00 Ry     beta= 0.70
     Davidson diagonalization with overlap
     ethr =  1.00E-02,  avg # of iterations =  1.0

     negative rho (up, down):  2.654E-01 0.000E+00

     total cpu time spent up to now is       28.2 secs

     total energy              =    -514.81572998 Ry
     estimated scf accuracy    <       3.90695379 Ry

     iteration # 33     ecut=    30.00 Ry     beta= 0.70
     Davidson diagonalization with overlap
     ethr =  7.81E-03,  avg # of iterations =  6.0

     negative rho (up, down):  2.668E-01 0.000E+00

     total cpu time spent up to now is       29.0 secs

     total energy              =    -515.27508933 Ry
     estimated scf accuracy    <       1.62947761 Ry

     iteration # 34     ecut=    30.00 Ry     beta= 0.70
     Davidson diagonalization with overlap
     ethr =  3.26E-03,  avg # of iterations = 12.0

     negative rho (up, down):  2.654E-01 0.000E+00

     total cpu time spent up to now is       30.0 secs

     total energy              =    -517.16428554 Ry
     estimated scf accuracy    <      27.64978334 Ry

     iteration # 35     ecut=    30.00 Ry     beta= 0.70
     Davidson diagonalization with overlap
     ethr =  3.26E-03,  avg # of iterations =  1.0

     negative rho (up, down):  2.658E-01 0.000E+00

     total cpu time spent up to now is       30.7 secs

     total energy              =    -516.98665011 Ry
     estimated scf accuracy    <      22.75996461 Ry

     iteration # 36     ecut=    30.00 Ry     beta= 0.70
     Davidson diagonalization with overlap
     ethr =  3.26E-03,  avg # of iterations =  1.0

     negative rho (up, down):  2.662E-01 0.000E+00

     total cpu time spent up to now is       31.4 secs

     total energy              =    -516.80968450 Ry
     estimated scf accuracy    <      22.31090170 Ry

     iteration # 37     ecut=    30.00 Ry     beta= 0.70
     Davidson diagonalization with overlap
     ethr =  3.26E-03,  avg # of iterations =  1.0

     negative rho (up, down):  2.665E-01 0.000E+00

     total cpu time spent up to now is       32.1 secs

     total energy              =    -516.27795024 Ry
     estimated scf accuracy    <      20.94643950 Ry

     iteration # 38     ecut=    30.00 Ry     beta= 0.70
     Davidson diagonalization with overlap
     ethr =  3.26E-03,  avg # of iterations =  1.0

     negative rho (up, down):  2.664E-01 0.000E+00

     total cpu time spent up to now is       32.8 secs

     total energy              =    -516.22886392 Ry
     estimated scf accuracy    <      14.28666204 Ry

     iteration # 39     ecut=    30.00 Ry     beta= 0.70
     Davidson diagonalization with overlap
     ethr =  3.26E-03,  avg # of iterations =  1.0

     negative rho (up, down):  2.666E-01 0.000E+00

     total cpu time spent up to now is       33.5 secs

     total energy              =    -516.50590095 Ry
     estimated scf accuracy    <      15.06018656 Ry

     iteration # 40     ecut=    30.00 Ry     beta= 0.70
     Davidson diagonalization with overlap
     ethr =  3.26E-03,  avg # of iterations =  1.0

     negative rho (up, down):  2.669E-01 0.000E+00

     total cpu time spent up to now is       34.2 secs

     total energy              =    -516.28218285 Ry
     estimated scf accuracy    <      18.77450955 Ry

     iteration # 41     ecut=    30.00 Ry     beta= 0.70
     Davidson diagonalization with overlap
     ethr =  3.26E-03,  avg # of iterations =  1.0

     negative rho (up, down):  2.712E-01 0.000E+00

     total cpu time spent up to now is       34.9 secs

     total energy              =    -513.87172760 Ry
     estimated scf accuracy    <      15.13766459 Ry

     iteration # 42     ecut=    30.00 Ry     beta= 0.70
     Davidson diagonalization with overlap
     ethr =  3.26E-03,  avg # of iterations = 15.0

     negative rho (up, down):  2.689E-01 0.000E+00

     total cpu time spent up to now is       35.9 secs

     total energy              =    -516.11429295 Ry
     estimated scf accuracy    <      32.54001206 Ry

     iteration # 43     ecut=    30.00 Ry     beta= 0.70
     Davidson diagonalization with overlap
     ethr =  3.26E-03,  avg # of iterations =  7.0

     negative rho (up, down):  2.702E-01 0.000E+00

     total cpu time spent up to now is       36.8 secs

     total energy              =    -516.29060916 Ry
     estimated scf accuracy    <      30.82301345 Ry

     iteration # 44     ecut=    30.00 Ry     beta= 0.70
     Davidson diagonalization with overlap
     ethr =  3.26E-03,  avg # of iterations =  2.0

     negative rho (up, down):  2.699E-01 0.000E+00

     total cpu time spent up to now is       37.5 secs

     total energy              =    -515.52495258 Ry
     estimated scf accuracy    <      20.51635194 Ry

     iteration # 45     ecut=    30.00 Ry     beta= 0.70
     Davidson diagonalization with overlap
     ethr =  3.26E-03,  avg # of iterations =  2.0

     negative rho (up, down):  2.695E-01 0.000E+00

     total cpu time spent up to now is       38.3 secs

     total energy              =    -515.82463241 Ry
     estimated scf accuracy    <      15.09157032 Ry

     iteration # 46     ecut=    30.00 Ry     beta= 0.70
     Davidson diagonalization with overlap
     ethr =  3.26E-03,  avg # of iterations =  1.0

     negative rho (up, down):  2.678E-01 0.000E+00

     total cpu time spent up to now is       39.0 secs

     total energy              =    -515.37715760 Ry
     estimated scf accuracy    <      12.74254288 Ry

     iteration # 47     ecut=    30.00 Ry     beta= 0.70
     Davidson diagonalization with overlap
     ethr =  3.26E-03,  avg # of iterations =  2.0

     negative rho (up, down):  2.671E-01 0.000E+00

     total cpu time spent up to now is       39.8 secs

     total energy              =    -515.28125477 Ry
     estimated scf accuracy    <       8.75421305 Ry

     iteration # 48     ecut=    30.00 Ry     beta= 0.70
     Davidson diagonalization with overlap
     ethr =  3.26E-03,  avg # of iterations =  1.0

     negative rho (up, down):  2.668E-01 0.000E+00

     total cpu time spent up to now is       40.6 secs

     total energy              =    -515.22869039 Ry
     estimated scf accuracy    <       6.33182582 Ry

     iteration # 49     ecut=    30.00 Ry     beta= 0.70
     Davidson diagonalization with overlap
     ethr =  3.26E-03,  avg # of iterations =  1.0

     negative rho (up, down):  2.678E-01 0.000E+00

     total cpu time spent up to now is       41.2 secs

     total energy              =    -515.07876408 Ry
     estimated scf accuracy    <       6.44318421 Ry

     iteration # 50     ecut=    30.00 Ry     beta= 0.70
     Davidson diagonalization with overlap
     ethr =  3.26E-03,  avg # of iterations = 15.0

     negative rho (up, down):  2.674E-01 0.000E+00

     total cpu time spent up to now is       42.3 secs

     total energy              =    -516.19010187 Ry
     estimated scf accuracy    <      17.62725564 Ry

     iteration # 51     ecut=    30.00 Ry     beta= 0.70
     Davidson diagonalization with overlap
     ethr =  3.26E-03,  avg # of iterations =  1.0

     negative rho (up, down):  2.701E-01 0.000E+00

     total cpu time spent up to now is       43.0 secs

     total energy              =    -515.33364788 Ry
     estimated scf accuracy    <      16.84545078 Ry

     iteration # 52     ecut=    30.00 Ry     beta= 0.70
     Davidson diagonalization with overlap
     ethr =  3.26E-03,  avg # of iterations =  7.0

     negative rho (up, down):  2.684E-01 0.000E+00

     total cpu time spent up to now is       43.8 secs

     total energy              =    -515.50764001 Ry
     estimated scf accuracy    <      25.17345595 Ry

     iteration # 53     ecut=    30.00 Ry     beta= 0.70
     Davidson diagonalization with overlap
     ethr =  3.26E-03,  avg # of iterations =  1.0

     negative rho (up, down):  2.671E-01 0.000E+00

     total cpu time spent up to now is       44.5 secs

     total energy              =    -515.74727981 Ry
     estimated scf accuracy    <       4.25356779 Ry

     iteration # 54     ecut=    30.00 Ry     beta= 0.70
     Davidson diagonalization with overlap
     ethr =  3.26E-03,  avg # of iterations =  7.0

     negative rho (up, down):  2.673E-01 0.000E+00

     total cpu time spent up to now is       45.3 secs

     total energy              =    -516.06928682 Ry
     estimated scf accuracy    <       9.97273635 Ry

     iteration # 55     ecut=    30.00 Ry     beta= 0.70
     Davidson diagonalization with overlap
     ethr =  3.26E-03,  avg # of iterations =  1.0

     negative rho (up, down):  2.673E-01 0.000E+00

     total cpu time spent up to now is       46.0 secs

     total energy              =    -516.08462432 Ry
     estimated scf accuracy    <       9.83863698 Ry

     iteration # 56     ecut=    30.00 Ry     beta= 0.70
     Davidson diagonalization with overlap
     ethr =  3.26E-03,  avg # of iterations =  1.0

     negative rho (up, down):  2.681E-01 0.000E+00

     total cpu time spent up to now is       46.7 secs

     total energy              =    -515.88227847 Ry
     estimated scf accuracy    <       9.92819273 Ry

     iteration # 57     ecut=    30.00 Ry     beta= 0.70
     Davidson diagonalization with overlap
     ethr =  3.26E-03,  avg # of iterations =  1.0

     negative rho (up, down):  2.685E-01 0.000E+00

     total cpu time spent up to now is       47.4 secs

     total energy              =    -515.74321562 Ry
     estimated scf accuracy    <       9.19506883 Ry

     iteration # 58     ecut=    30.00 Ry     beta= 0.70
     Davidson diagonalization with overlap
     ethr =  3.26E-03,  avg # of iterations =  2.0

     negative rho (up, down):  2.977E-01 0.000E+00

     total cpu time spent up to now is       48.2 secs

     total energy              =    -513.19592506 Ry
     estimated scf accuracy    <       8.48898820 Ry

     iteration # 59     ecut=    30.00 Ry     beta= 0.70
     Davidson diagonalization with overlap
     ethr =  3.26E-03,  avg # of iterations =  7.0

     negative rho (up, down):  2.688E-01 0.000E+00

     total cpu time spent up to now is       49.1 secs

     total energy              =    -513.84545910 Ry
     estimated scf accuracy    <      66.10127140 Ry

     iteration # 60     ecut=    30.00 Ry     beta= 0.70
     Davidson diagonalization with overlap
     ethr =  3.26E-03,  avg # of iterations =  4.0

     negative rho (up, down):  2.681E-01 0.000E+00

     total cpu time spent up to now is       49.9 secs

     total energy              =    -515.25419627 Ry
     estimated scf accuracy    <      18.16692514 Ry

     iteration # 61     ecut=    30.00 Ry     beta= 0.70
     Davidson diagonalization with overlap
     ethr =  3.26E-03,  avg # of iterations =  2.0

     negative rho (up, down):  2.680E-01 0.000E+00

     total cpu time spent up to now is       50.6 secs

     total energy              =    -515.47558771 Ry
     estimated scf accuracy    <       3.83651960 Ry

     iteration # 62     ecut=    30.00 Ry     beta= 0.70
     Davidson diagonalization with overlap
     ethr =  3.26E-03,  avg # of iterations =  1.0

     negative rho (up, down):  2.667E-01 0.000E+00

     total cpu time spent up to now is       51.3 secs

     total energy              =    -515.10975766 Ry
     estimated scf accuracy    <       2.98128555 Ry

     iteration # 63     ecut=    30.00 Ry     beta= 0.70
     Davidson diagonalization with overlap
     ethr =  3.26E-03,  avg # of iterations = 12.0

     negative rho (up, down):  2.682E-01 0.000E+00

     total cpu time spent up to now is       52.2 secs

     total energy              =    -515.31806805 Ry
     estimated scf accuracy    <      12.32130266 Ry

     iteration # 64     ecut=    30.00 Ry     beta= 0.70
     Davidson diagonalization with overlap
     ethr =  3.26E-03,  avg # of iterations =  2.0

     negative rho (up, down):  2.680E-01 0.000E+00

     total cpu time spent up to now is       52.9 secs

     total energy              =    -515.57196293 Ry
     estimated scf accuracy    <       6.77625619 Ry

     iteration # 65     ecut=    30.00 Ry     beta= 0.70
     Davidson diagonalization with overlap
     ethr =  3.26E-03,  avg # of iterations =  1.0

     negative rho (up, down):  2.681E-01 0.000E+00

     total cpu time spent up to now is       53.6 secs

     total energy              =    -515.56158260 Ry
     estimated scf accuracy    <       4.63592057 Ry

     iteration # 66     ecut=    30.00 Ry     beta= 0.70
     Davidson diagonalization with overlap
     ethr =  3.26E-03,  avg # of iterations =  1.0

     negative rho (up, down):  2.676E-01 0.000E+00

     total cpu time spent up to now is       54.3 secs

     total energy              =    -515.36879730 Ry
     estimated scf accuracy    <       4.87495774 Ry

     iteration # 67     ecut=    30.00 Ry     beta= 0.70
     Davidson diagonalization with overlap
     ethr =  3.26E-03,  avg # of iterations =  7.0

     negative rho (up, down):  2.675E-01 0.000E+00

     total cpu time spent up to now is       55.0 secs

     total energy              =    -515.43326156 Ry
     estimated scf accuracy    <       0.57533262 Ry

     iteration # 68     ecut=    30.00 Ry     beta= 0.70
     Davidson diagonalization with overlap
     ethr =  1.15E-03,  avg # of iterations = 11.0

     negative rho (up, down):  2.671E-01 0.000E+00

     total cpu time spent up to now is       56.0 secs

     total energy              =    -516.54563221 Ry
     estimated scf accuracy    <      21.77796019 Ry

     iteration # 69     ecut=    30.00 Ry     beta= 0.70
     Davidson diagonalization with overlap
     ethr =  1.15E-03,  avg # of iterations =  1.0

     negative rho (up, down):  2.673E-01 0.000E+00

     total cpu time spent up to now is       56.7 secs

     total energy              =    -516.11286250 Ry
     estimated scf accuracy    <      19.96310522 Ry

     iteration # 70     ecut=    30.00 Ry     beta= 0.70
     Davidson diagonalization with overlap
     ethr =  1.15E-03,  avg # of iterations =  1.0

     negative rho (up, down):  2.673E-01 0.000E+00

     total cpu time spent up to now is       57.4 secs

     total energy              =    -516.02928119 Ry
     estimated scf accuracy    <      17.91445857 Ry

     iteration # 71     ecut=    30.00 Ry     beta= 0.70
     Davidson diagonalization with overlap
     ethr =  1.15E-03,  avg # of iterations =  1.0

     negative rho (up, down):  2.674E-01 0.000E+00

     total cpu time spent up to now is       58.1 secs

     total energy              =    -515.60133534 Ry
     estimated scf accuracy    <      17.07192588 Ry

     iteration # 72     ecut=    30.00 Ry     beta= 0.70
     Davidson diagonalization with overlap
     ethr =  1.15E-03,  avg # of iterations =  1.0

     negative rho (up, down):  2.680E-01 0.000E+00

     total cpu time spent up to now is       58.8 secs

     total energy              =    -515.55077390 Ry
     estimated scf accuracy    <       2.94907840 Ry

     iteration # 73     ecut=    30.00 Ry     beta= 0.70
     Davidson diagonalization with overlap
     ethr =  1.15E-03,  avg # of iterations = 17.0

     negative rho (up, down):  2.679E-01 0.000E+00

     total cpu time spent up to now is       59.7 secs

     total energy              =    -515.66397331 Ry
     estimated scf accuracy    <      17.50960721 Ry

     iteration # 74     ecut=    30.00 Ry     beta= 0.70
     Davidson diagonalization with overlap
     ethr =  1.15E-03,  avg # of iterations =  8.0

     negative rho (up, down):  2.679E-01 0.000E+00

     total cpu time spent up to now is       60.5 secs

     total energy              =    -515.76298570 Ry
     estimated scf accuracy    <       9.36031947 Ry

     iteration # 75     ecut=    30.00 Ry     beta= 0.70
     Davidson diagonalization with overlap
     ethr =  1.15E-03,  avg # of iterations =  2.0

     negative rho (up, down):  2.676E-01 0.000E+00

     total cpu time spent up to now is       61.2 secs

     total energy              =    -515.16612855 Ry
     estimated scf accuracy    <       8.01781051 Ry

     iteration # 76     ecut=    30.00 Ry     beta= 0.70
     Davidson diagonalization with overlap
     ethr =  1.15E-03,  avg # of iterations = 13.0

     negative rho (up, down):  2.702E-01 0.000E+00

     total cpu time spent up to now is       62.2 secs

     total energy              =    -516.99662699 Ry
     estimated scf accuracy    <      19.02631580 Ry

     iteration # 77     ecut=    30.00 Ry     beta= 0.70
     Davidson diagonalization with overlap
     ethr =  1.15E-03,  avg # of iterations = 10.0

     negative rho (up, down):  2.692E-01 0.000E+00

     total cpu time spent up to now is       63.1 secs

     total energy              =    -516.51460599 Ry
     estimated scf accuracy    <      21.75867062 Ry

     iteration # 78     ecut=    30.00 Ry     beta= 0.70
     Davidson diagonalization with overlap
     ethr =  1.15E-03,  avg # of iterations =  1.0

     negative rho (up, down):  2.688E-01 0.000E+00

     total cpu time spent up to now is       63.8 secs

     total energy              =    -516.22783279 Ry
     estimated scf accuracy    <      19.67067876 Ry

     iteration # 79     ecut=    30.00 Ry     beta= 0.70
     Davidson diagonalization with overlap
     ethr =  1.15E-03,  avg # of iterations =  1.0

     negative rho (up, down):  2.691E-01 0.000E+00

     total cpu time spent up to now is       64.5 secs

     total energy              =    -515.62712114 Ry
     estimated scf accuracy    <      16.83555135 Ry

     iteration # 80     ecut=    30.00 Ry     beta= 0.70
     Davidson diagonalization with overlap
     ethr =  1.15E-03,  avg # of iterations =  2.0

     negative rho (up, down):  2.677E-01 0.000E+00

     total cpu time spent up to now is       65.2 secs

     total energy              =    -515.49397801 Ry
     estimated scf accuracy    <      22.07569583 Ry

     iteration # 81     ecut=    30.00 Ry     beta= 0.70
     Davidson diagonalization with overlap
     ethr =  1.15E-03,  avg # of iterations =  2.0

     negative rho (up, down):  2.677E-01 0.000E+00

     total cpu time spent up to now is       65.9 secs

     total energy              =    -515.59193417 Ry
     estimated scf accuracy    <       6.64767268 Ry

     iteration # 82     ecut=    30.00 Ry     beta= 0.70
     Davidson diagonalization with overlap
     ethr =  1.15E-03,  avg # of iterations =  1.0

     negative rho (up, down):  2.682E-01 0.000E+00

     total cpu time spent up to now is       66.6 secs

     total energy              =    -515.26075743 Ry
     estimated scf accuracy    <      10.24699390 Ry

     iteration # 83     ecut=    30.00 Ry     beta= 0.70
     Davidson diagonalization with overlap
     ethr =  1.15E-03,  avg # of iterations = 12.0

     negative rho (up, down):  2.678E-01 0.000E+00

     total cpu time spent up to now is       67.6 secs

     total energy              =    -515.38506873 Ry
     estimated scf accuracy    <      29.16095133 Ry

     iteration # 84     ecut=    30.00 Ry     beta= 0.70
     Davidson diagonalization with overlap
     ethr =  1.15E-03,  avg # of iterations =  3.0

     negative rho (up, down):  2.652E-01 0.000E+00

     total cpu time spent up to now is       68.4 secs

     total energy              =    -514.99726947 Ry
     estimated scf accuracy    <       4.61788084 Ry

     iteration # 85     ecut=    30.00 Ry     beta= 0.70
     Davidson diagonalization with overlap
     ethr =  1.15E-03,  avg # of iterations = 19.0

     negative rho (up, down):  2.671E-01 0.000E+00

     total cpu time spent up to now is       69.6 secs

     total energy              =    -516.00453475 Ry
     estimated scf accuracy    <      25.06815062 Ry

     iteration # 86     ecut=    30.00 Ry     beta= 0.70
     Davidson diagonalization with overlap
     ethr =  1.15E-03,  avg # of iterations =  3.0

     negative rho (up, down):  2.677E-01 0.000E+00

     total cpu time spent up to now is       70.4 secs

     total energy              =    -515.85514395 Ry
     estimated scf accuracy    <      18.61433109 Ry

     iteration # 87     ecut=    30.00 Ry     beta= 0.70
     Davidson diagonalization with overlap
     ethr =  1.15E-03,  avg # of iterations =  2.0

     negative rho (up, down):  2.677E-01 0.000E+00

     total cpu time spent up to now is       71.1 secs

     total energy              =    -515.70818035 Ry
     estimated scf accuracy    <      15.92764710 Ry

     iteration # 88     ecut=    30.00 Ry     beta= 0.70
     Davidson diagonalization with overlap
     ethr =  1.15E-03,  avg # of iterations =  1.0

     negative rho (up, down):  2.678E-01 0.000E+00

     total cpu time spent up to now is       71.8 secs

     total energy              =    -515.62208905 Ry
     estimated scf accuracy    <      11.78972263 Ry

     iteration # 89     ecut=    30.00 Ry     beta= 0.70
     Davidson diagonalization with overlap
     ethr =  1.15E-03,  avg # of iterations =  1.0

     negative rho (up, down):  2.678E-01 0.000E+00

     total cpu time spent up to now is       72.6 secs

     total energy              =    -515.66040578 Ry
     estimated scf accuracy    <       6.06003350 Ry

     iteration # 90     ecut=    30.00 Ry     beta= 0.70
     Davidson diagonalization with overlap
     ethr =  1.15E-03,  avg # of iterations =  1.0

     negative rho (up, down):  2.679E-01 0.000E+00

     total cpu time spent up to now is       73.3 secs

     total energy              =    -515.70486394 Ry
     estimated scf accuracy    <       8.11364779 Ry

     iteration # 91     ecut=    30.00 Ry     beta= 0.70
     Davidson diagonalization with overlap
     ethr =  1.15E-03,  avg # of iterations =  2.0

     negative rho (up, down):  2.678E-01 0.000E+00

     total cpu time spent up to now is       74.0 secs

     total energy              =    -516.03665803 Ry
     estimated scf accuracy    <      13.43248102 Ry

     iteration # 92     ecut=    30.00 Ry     beta= 0.70
     Davidson diagonalization with overlap
     ethr =  1.15E-03,  avg # of iterations =  6.0

     negative rho (up, down):  2.684E-01 0.000E+00

     total cpu time spent up to now is       74.8 secs

     total energy              =    -515.80596114 Ry
     estimated scf accuracy    <      16.34420714 Ry

     iteration # 93     ecut=    30.00 Ry     beta= 0.70
     Davidson diagonalization with overlap
     ethr =  1.15E-03,  avg # of iterations = 13.0

     negative rho (up, down):  2.664E-01 0.000E+00

     total cpu time spent up to now is       75.7 secs

     total energy              =    -515.41022983 Ry
     estimated scf accuracy    <       6.17091577 Ry

     iteration # 94     ecut=    30.00 Ry     beta= 0.70
     Davidson diagonalization with overlap
     ethr =  1.15E-03,  avg # of iterations = 18.0

     negative rho (up, down):  2.669E-01 0.000E+00

     total cpu time spent up to now is       76.9 secs

     total energy              =    -515.56224605 Ry
     estimated scf accuracy    <      13.49408403 Ry

     iteration # 95     ecut=    30.00 Ry     beta= 0.70
     Davidson diagonalization with overlap
     ethr =  1.15E-03,  avg # of iterations =  6.0

     negative rho (up, down):  2.671E-01 0.000E+00

     total cpu time spent up to now is       77.6 secs

     total energy              =    -515.66912876 Ry
     estimated scf accuracy    <       9.33209881 Ry

     iteration # 96     ecut=    30.00 Ry     beta= 0.70
     Davidson diagonalization with overlap
     ethr =  1.15E-03,  avg # of iterations =  1.0

     negative rho (up, down):  2.673E-01 0.000E+00

     total cpu time spent up to now is       78.3 secs

     total energy              =    -515.65661075 Ry
     estimated scf accuracy    <       6.82731700 Ry

     iteration # 97     ecut=    30.00 Ry     beta= 0.70
     Davidson diagonalization with overlap
     ethr =  1.15E-03,  avg # of iterations =  1.0

     negative rho (up, down):  2.675E-01 0.000E+00

     total cpu time spent up to now is       79.0 secs

     total energy              =    -515.59860542 Ry
     estimated scf accuracy    <       6.66851528 Ry

     iteration # 98     ecut=    30.00 Ry     beta= 0.70
     Davidson diagonalization with overlap
     ethr =  1.15E-03,  avg # of iterations =  1.0

     negative rho (up, down):  2.677E-01 0.000E+00

     total cpu time spent up to now is       79.8 secs

     total energy              =    -515.49176073 Ry
     estimated scf accuracy    <       4.56488239 Ry

     iteration # 99     ecut=    30.00 Ry     beta= 0.70
     Davidson diagonalization with overlap
     ethr =  1.15E-03,  avg # of iterations =  1.0

     negative rho (up, down):  2.680E-01 0.000E+00

     total cpu time spent up to now is       80.5 secs

     total energy              =    -515.48079994 Ry
     estimated scf accuracy    <       4.38867900 Ry

     iteration #100     ecut=    30.00 Ry     beta= 0.70
     Davidson diagonalization with overlap
     ethr =  1.15E-03,  avg # of iterations =  2.0

     negative rho (up, down):  2.684E-01 0.000E+00

     total cpu time spent up to now is       81.2 secs

     total energy              =    -515.42775447 Ry
     estimated scf accuracy    <       4.45117251 Ry

     End of self-consistent calculation

     convergence NOT achieved after 100 iterations: stopping

     Writing config to output data dir outdir/pwscf.save/
     Message from routine punch:
     wavefunctions written to file

     init_run     :      2.19s CPU      2.33s WALL (       1 calls)
     electrons    :     62.27s CPU     78.23s WALL (       1 calls)

     Called by init_run:
     wfcinit      :      0.18s CPU      0.19s WALL (       1 calls)
     potinit      :      0.51s CPU      0.52s WALL (       1 calls)
     hinit0       :      1.30s CPU      1.33s WALL (       1 calls)

     Called by electrons:
     c_bands      :     21.81s CPU     22.80s WALL (     100 calls)
     sum_band     :     21.54s CPU     29.14s WALL (     100 calls)
     v_of_rho     :      1.82s CPU      1.93s WALL (     101 calls)
     newd         :     16.65s CPU     23.94s WALL (     101 calls)
     mix_rho      :      0.54s CPU      0.56s WALL (     100 calls)

     Called by c_bands:
     init_us_2    :      0.23s CPU      0.24s WALL (     201 calls)
     init_us_2:cp :      0.22s CPU      0.24s WALL (     201 calls)
     cegterg      :     20.98s CPU     21.94s WALL (     100 calls)

     Called by *egterg:
     cdiaghg      :      0.74s CPU      0.75s WALL (     506 calls)
     h_psi        :     12.24s CPU     13.15s WALL (     507 calls)
     s_psi        :      2.00s CPU      2.01s WALL (     507 calls)
     g_psi        :      0.04s CPU      0.04s WALL (     406 calls)

     Called by h_psi:
     h_psi:calbec :      2.46s CPU      2.54s WALL (     507 calls)
     vloc_psi     :      7.88s CPU      8.69s WALL (     507 calls)
     add_vuspsi   :      1.85s CPU      1.87s WALL (     507 calls)

     General routines
     calbec       :      3.34s CPU      3.44s WALL (     607 calls)
     fft          :      1.69s CPU      1.77s WALL (    1112 calls)
     ffts         :      0.09s CPU      0.10s WALL (     100 calls)
     fftw         :      8.58s CPU      9.46s WALL (   18896 calls)
     davcio       :      0.00s CPU      0.00s WALL (      19 calls)

     Parallel routines

     PWSCF        :   1m 5.13s CPU   1m21.25s WALL


   This run was terminated on:  17:25:14  15May2023            

=------------------------------------------------------------------------------=
   JOB DONE.
=------------------------------------------------------------------------------=
