
     Program PWSCF v.7.2 starts on 28May2023 at 15:46: 2 

     This program is part of the open-source Quantum ESPRESSO suite
     for quantum simulation of materials; please cite
         "P. Giannozzi et al., J. Phys.:Condens. Matter 21 395502 (2009);
         "P. Giannozzi et al., J. Phys.:Condens. Matter 29 465901 (2017);
         "P. Giannozzi et al., J. Chem. Phys. 152 154105 (2020);
          URL http://www.quantum-espresso.org", 
     in publications or presentations arising from this work. More details at
     http://www.quantum-espresso.org/quote

     Parallel version (MPI), running on    12 processors

     MPI processes distributed on     1 nodes
     71365 MiB available memory on the printing compute node when the environment starts

     Reading input from HfNbTaZr_random_32_relax.in
Warning: card &CELL ignored
Warning: card / ignored

     Current dimensions of program PWSCF are:
     Max number of different atomic species (ntypx) = 10
     Max number of k-points (npk) =  40000
     Max angular momentum in pseudopotentials (lmaxx) =  4

     File outdir/pwscf.update deleted, as requested

     File outdir/pwscf.bfgs deleted, as requested

     R & G space division:  proc/nbgrp/npool/nimage =      12
     Subspace diagonalization in iterative solution of the eigenvalue problem:
     one sub-group per band group will be used
     custom distributed-memory algorithm (size of sub-group:  2*  2 procs)


     Parallelization info
     --------------------
     sticks:   dense  smooth     PW     G-vecs:    dense   smooth      PW
     Min        1414    1414    353               138647   138647   17347
     Max        1415    1415    354               138649   138649   17348
     Sum       16977   16977   4237              1663771  1663771  208165

     Using Slab Decomposition



     bravais-lattice index     =            0
     lattice parameter (alat)  =      21.0810  a.u.
     unit-cell volume          =    9368.6152 (a.u.)^3
     number of atoms/cell      =           32
     number of atomic types    =            4
     number of electrons       =       400.00
     number of Kohn-Sham states=          240
     kinetic-energy cutoff     =     120.0000  Ry
     charge density cutoff     =     480.0000  Ry
     scf convergence threshold =      1.0E-06
     mixing beta               =       0.7000
     number of iterations used =            8  plain     mixing
     energy convergence thresh.=      1.0E-04
     force convergence thresh. =      1.0E-03
     Exchange-correlation= SLA  PW   PBE  PBE
                           (   1   4   3   4   0   0   0)
     nstep                     =           50


     celldm(1)=  21.081029  celldm(2)=   0.000000  celldm(3)=   0.000000
     celldm(4)=   0.000000  celldm(5)=   0.000000  celldm(6)=   0.000000

     crystal axes: (cart. coord. in units of alat)
               a(1) = (   1.000000   0.000000   0.000000 )  
               a(2) = (   0.000000   1.000000   0.000000 )  
               a(3) = (   0.000000   0.000000   1.000000 )  

     reciprocal axes: (cart. coord. in units 2 pi/alat)
               b(1) = (  1.000000  0.000000  0.000000 )  
               b(2) = (  0.000000  1.000000  0.000000 )  
               b(3) = (  0.000000  0.000000  1.000000 )  


     PseudoPot. # 1 for Hf read from file:
     q-e/pseudo/hf_pbe_v1.uspp.F.UPF
     MD5 check sum: 8ee9378dfe14276e333edf04c5e4aa26
     Pseudo is Ultrasoft + core correction, Zval = 12.0
     Generated by new atomic code, or converted to UPF format
     Using radial grid of  921 points,  8 beta functions with: 
                l(1) =   0
                l(2) =   0
                l(3) =   0
                l(4) =   1
                l(5) =   1
                l(6) =   2
                l(7) =   2
                l(8) =   3
     Q(r) pseudized with  6 coefficients,  rinner =    1.200   1.200   1.200
                                                       1.200   1.200   1.200
                                                       1.200

     PseudoPot. # 2 for Nb read from file:
     q-e/pseudo/nb_pbe_v1.uspp.F.UPF
     MD5 check sum: 573aab8a2fa660278ed4a62cd769473f
     Pseudo is Ultrasoft + core correction, Zval = 13.0
     Generated by new atomic code, or converted to UPF format
     Using radial grid of  887 points,  6 beta functions with: 
                l(1) =   0
                l(2) =   0
                l(3) =   1
                l(4) =   1
                l(5) =   2
                l(6) =   2
     Q(r) pseudized with  6 coefficients,  rinner =    1.000   1.000   1.000
                                                       1.000   1.000

     PseudoPot. # 3 for Ta read from file:
     q-e/pseudo/ta_pbe_v1.uspp.F.UPF
     MD5 check sum: f8bbe9446314a3b8ea5d9f3e3836c939
     Pseudo is Ultrasoft + core correction, Zval = 13.0
     Generated by new atomic code, or converted to UPF format
     Using radial grid of  921 points,  7 beta functions with: 
                l(1) =   0
                l(2) =   0
                l(3) =   1
                l(4) =   1
                l(5) =   2
                l(6) =   2
                l(7) =   3
     Q(r) pseudized with  6 coefficients,  rinner =    1.300   1.300   1.300
                                                       1.300   1.300   1.300
                                                       1.300

     PseudoPot. # 4 for Zr read from file:
     q-e/pseudo/zr_pbe_v1.uspp.F.UPF
     MD5 check sum: 5db81b1e868ab7776c4564c113de050b
     Pseudo is Ultrasoft + core correction, Zval = 12.0
     Generated by new atomic code, or converted to UPF format
     Using radial grid of  887 points,  6 beta functions with: 
                l(1) =   0
                l(2) =   0
                l(3) =   1
                l(4) =   1
                l(5) =   2
                l(6) =   2
     Q(r) pseudized with  6 coefficients,  rinner =    1.200   1.200   1.200
                                                       1.200   1.200

     atomic species   valence    mass     pseudopotential
        Hf            12.00   178.49000     Hf( 1.00)
        Nb            13.00    92.90637     Nb( 1.00)
        Ta            13.00   180.94788     Ta( 1.00)
        Zr            12.00    91.22400     Zr( 1.00)

     No symmetry found



   Cartesian axes

     site n.     atom                  positions (alat units)
         1           Hf  tau(   1) = (   0.6021841   0.7401496   0.5987659  )
         2           Hf  tau(   2) = (   0.3457312   0.7602467   0.7269909  )
         3           Hf  tau(   3) = (   0.7102504   0.6359687   0.4625493  )
         4           Hf  tau(   4) = (   0.3819752   0.2774294   0.6446932  )
         5           Hf  tau(   5) = (   0.6121656   0.6643797   0.5215232  )
         6           Hf  tau(   6) = (   0.3079383   0.4588335   0.4737406  )
         7           Hf  tau(   7) = (   0.3181249   0.4847011   0.7811467  )
         8           Hf  tau(   8) = (   0.1068564   0.4388044   0.3911479  )
         9           Nb  tau(   9) = (   0.5328144   0.4295765   0.4112228  )
        10           Nb  tau(  10) = (   0.5431869   0.5229166   0.3581047  )
        11           Nb  tau(  11) = (   0.2545975   0.4127686   0.6903333  )
        12           Nb  tau(  12) = (   0.5916990   0.4122541   0.7493320  )
        13           Nb  tau(  13) = (   0.7519389   0.4801576   0.7431143  )
        14           Nb  tau(  14) = (   0.6447371   0.7616473   0.4628178  )
        15           Nb  tau(  15) = (   0.6535658   0.4106833   0.4105944  )
        16           Nb  tau(  16) = (   0.3725202   0.1830512   0.2296083  )
        17           Ta  tau(  17) = (   0.4647573   0.4122518   0.1465935  )
        18           Ta  tau(  18) = (   0.3823538   0.5855813   0.7402336  )
        19           Ta  tau(  19) = (   0.6860250   0.8169488   0.6646291  )
        20           Ta  tau(  20) = (   0.5030217   0.4034359   0.8340777  )
        21           Ta  tau(  21) = (   0.3759150   0.7302880   0.5424825  )
        22           Ta  tau(  22) = (   0.3227716   0.5131749   0.3367459  )
        23           Ta  tau(  23) = (   0.6673051   0.5138872   0.4722841  )
        24           Ta  tau(  24) = (   0.7244559   0.5951280   0.4039179  )
        25           Zr  tau(  25) = (   0.6369992   0.7557793   0.6253791  )
        26           Zr  tau(  26) = (   0.8931436   0.4524145   0.4383010  )
        27           Zr  tau(  27) = (   0.2651719   0.5903265   0.8534065  )
        28           Zr  tau(  28) = (   0.5256515   0.3333210   0.3871773  )
        29           Zr  tau(  29) = (   0.6611305   0.6366362   0.5011795  )
        30           Zr  tau(  30) = (   0.5374898   0.4006501   0.7430359  )
        31           Zr  tau(  31) = (   0.3818596   0.7598388   0.6131218  )
        32           Zr  tau(  32) = (   0.2765233   0.6933055   0.6291954  )

     number of k points=     1  Gaussian smearing, width (Ry)=  0.0220
                       cart. coord. in units 2pi/alat
        k(    1) = (   0.0000000   0.0000000   0.0000000), wk =   2.0000000

     Dense  grid:  1663771 G-vectors     FFT dimensions: ( 150, 150, 150)

     Estimated max dynamical RAM per process >       1.18 GB

     Estimated total dynamical RAM >      14.20 GB

     Check: negative core charge=   -0.000003

     Initial potential from superposition of free atoms

     starting charge     383.9520, renormalised to     400.0000

     negative rho (up, down):  1.384E+00 0.000E+00
     Starting wfcs are  416 randomized atomic wfcs

     total cpu time spent up to now is       91.3 secs

     Self-consistent Calculation

     iteration #  1     ecut=   120.00 Ry     beta= 0.70
     Davidson diagonalization with overlap
     ethr =  1.00E-02,  avg # of iterations =  6.0

     negative rho (up, down):  1.229E+00 0.000E+00

     total cpu time spent up to now is      399.5 secs

     total energy              =   -3417.93234594 Ry
     estimated scf accuracy    <     284.46815464 Ry

     iteration #  2     ecut=   120.00 Ry     beta= 0.70
     Davidson diagonalization with overlap
     ethr =  1.00E-02,  avg # of iterations = 12.0

     negative rho (up, down):  1.180E+00 0.000E+00

     total cpu time spent up to now is      953.8 secs

     total energy              =   -2993.25009128 Ry
     estimated scf accuracy    <    7865.64004080 Ry

     iteration #  3     ecut=   120.00 Ry     beta= 0.70
     Davidson diagonalization with overlap
     ethr =  1.00E-02,  avg # of iterations = 11.0

     negative rho (up, down):  1.193E+00 0.000E+00

     total cpu time spent up to now is     1463.7 secs

     total energy              =   -3583.13877265 Ry
     estimated scf accuracy    <     504.01875672 Ry

     iteration #  4     ecut=   120.00 Ry     beta= 0.70
     Davidson diagonalization with overlap
     ethr =  1.00E-02,  avg # of iterations =  6.0

     negative rho (up, down):  1.207E+00 0.000E+00

     total cpu time spent up to now is     1667.0 secs

     total energy              =   -3614.59410690 Ry
     estimated scf accuracy    <     148.84599732 Ry

     iteration #  5     ecut=   120.00 Ry     beta= 0.70
     Davidson diagonalization with overlap
     ethr =  1.00E-02,  avg # of iterations =  5.0

     negative rho (up, down):  1.217E+00 0.000E+00

     total cpu time spent up to now is     1815.2 secs

     total energy              =   -3623.96174008 Ry
     estimated scf accuracy    <      31.58467967 Ry

     iteration #  6     ecut=   120.00 Ry     beta= 0.70
     Davidson diagonalization with overlap
     ethr =  7.90E-03,  avg # of iterations =  2.0

     negative rho (up, down):  1.231E+00 0.000E+00

     total cpu time spent up to now is     1943.6 secs

     total energy              =   -3625.27403780 Ry
     estimated scf accuracy    <      24.32483866 Ry

     iteration #  7     ecut=   120.00 Ry     beta= 0.70
     Davidson diagonalization with overlap
     ethr =  6.08E-03,  avg # of iterations =  2.0

     negative rho (up, down):  1.239E+00 0.000E+00

     total cpu time spent up to now is     2067.3 secs

     total energy              =   -3626.46458180 Ry
     estimated scf accuracy    <       8.31293063 Ry

     iteration #  8     ecut=   120.00 Ry     beta= 0.70
     Davidson diagonalization with overlap
     ethr =  2.08E-03,  avg # of iterations =  6.0

     negative rho (up, down):  1.243E+00 0.000E+00

     total cpu time spent up to now is     2196.3 secs

     total energy              =   -3626.25326055 Ry
     estimated scf accuracy    <       9.85807328 Ry

     iteration #  9     ecut=   120.00 Ry     beta= 0.70
     Davidson diagonalization with overlap
     ethr =  2.08E-03,  avg # of iterations =  2.0

     negative rho (up, down):  1.254E+00 0.000E+00

     total cpu time spent up to now is     2315.2 secs

     total energy              =   -3626.74959093 Ry
     estimated scf accuracy    <       6.61999647 Ry

     iteration # 10     ecut=   120.00 Ry     beta= 0.70
     Davidson diagonalization with overlap
     ethr =  1.65E-03,  avg # of iterations =  2.0

     negative rho (up, down):  1.266E+00 0.000E+00

     total cpu time spent up to now is     2433.7 secs

     total energy              =   -3626.81606568 Ry
     estimated scf accuracy    <       2.89172331 Ry

     iteration # 11     ecut=   120.00 Ry     beta= 0.70
     Davidson diagonalization with overlap
     ethr =  7.23E-04,  avg # of iterations =  2.0

     negative rho (up, down):  1.268E+00 0.000E+00

     total cpu time spent up to now is     2557.8 secs

     total energy              =   -3626.93385464 Ry
     estimated scf accuracy    <       1.37814430 Ry

     iteration # 12     ecut=   120.00 Ry     beta= 0.70
     Davidson diagonalization with overlap
     ethr =  3.45E-04,  avg # of iterations =  2.0

     negative rho (up, down):  1.269E+00 0.000E+00

     total cpu time spent up to now is     2684.8 secs

     total energy              =   -3626.90262821 Ry
     estimated scf accuracy    <       2.58645077 Ry

     iteration # 13     ecut=   120.00 Ry     beta= 0.70
     Davidson diagonalization with overlap
     ethr =  3.45E-04,  avg # of iterations =  2.0

     negative rho (up, down):  1.270E+00 0.000E+00

     total cpu time spent up to now is     2801.6 secs

     total energy              =   -3627.02558422 Ry
     estimated scf accuracy    <       0.88627633 Ry

     iteration # 14     ecut=   120.00 Ry     beta= 0.70
     Davidson diagonalization with overlap
     ethr =  2.22E-04,  avg # of iterations =  2.0

     negative rho (up, down):  1.270E+00 0.000E+00

     total cpu time spent up to now is     2923.7 secs

     total energy              =   -3627.02991671 Ry
     estimated scf accuracy    <       0.70951887 Ry

     iteration # 15     ecut=   120.00 Ry     beta= 0.70
     Davidson diagonalization with overlap
     ethr =  1.77E-04,  avg # of iterations =  1.0

     negative rho (up, down):  1.270E+00 0.000E+00

     total cpu time spent up to now is     3025.9 secs

     total energy              =   -3627.06408598 Ry
     estimated scf accuracy    <       0.30631036 Ry

     iteration # 16     ecut=   120.00 Ry     beta= 0.70
     Davidson diagonalization with overlap
     ethr =  7.66E-05,  avg # of iterations =  9.0

     negative rho (up, down):  1.270E+00 0.000E+00

     total cpu time spent up to now is     3144.6 secs

     total energy              =   -3627.07648154 Ry
     estimated scf accuracy    <       0.17610139 Ry

     iteration # 17     ecut=   120.00 Ry     beta= 0.70
     Davidson diagonalization with overlap
     ethr =  4.40E-05,  avg # of iterations =  3.0

     negative rho (up, down):  1.271E+00 0.000E+00

     total cpu time spent up to now is     3263.1 secs

     total energy              =   -3627.07660221 Ry
     estimated scf accuracy    <       0.20077489 Ry

     iteration # 18     ecut=   120.00 Ry     beta= 0.70
     Davidson diagonalization with overlap
     ethr =  4.40E-05,  avg # of iterations =  2.0

     negative rho (up, down):  1.271E+00 0.000E+00

     total cpu time spent up to now is     3384.3 secs

     total energy              =   -3627.07886442 Ry
     estimated scf accuracy    <       0.17291281 Ry

     iteration # 19     ecut=   120.00 Ry     beta= 0.70
     Davidson diagonalization with overlap
     ethr =  4.32E-05,  avg # of iterations =  3.0

     negative rho (up, down):  1.271E+00 0.000E+00

     total cpu time spent up to now is     3524.0 secs

     total energy              =   -3627.07833124 Ry
     estimated scf accuracy    <       0.19515697 Ry

     iteration # 20     ecut=   120.00 Ry     beta= 0.70
     Davidson diagonalization with overlap
     ethr =  4.32E-05,  avg # of iterations =  1.0

     negative rho (up, down):  1.271E+00 0.000E+00

     total cpu time spent up to now is     3664.2 secs

     total energy              =   -3627.08693249 Ry
     estimated scf accuracy    <       0.00981140 Ry

     iteration # 21     ecut=   120.00 Ry     beta= 0.70
     Davidson diagonalization with overlap
     ethr =  2.45E-06,  avg # of iterations = 15.0

     negative rho (up, down):  1.271E+00 0.000E+00

     total cpu time spent up to now is     3824.3 secs

     total energy              =   -3627.08584964 Ry
     estimated scf accuracy    <       0.03215495 Ry

     iteration # 22     ecut=   120.00 Ry     beta= 0.70
     Davidson diagonalization with overlap
     ethr =  2.45E-06,  avg # of iterations =  3.0

     negative rho (up, down):  1.271E+00 0.000E+00

     total cpu time spent up to now is     3957.5 secs

     total energy              =   -3627.08635740 Ry
     estimated scf accuracy    <       0.02704578 Ry

     iteration # 23     ecut=   120.00 Ry     beta= 0.70
     Davidson diagonalization with overlap
     ethr =  2.45E-06,  avg # of iterations =  2.0

     negative rho (up, down):  1.271E+00 0.000E+00

     total cpu time spent up to now is     4075.1 secs

     total energy              =   -3627.08765871 Ry
     estimated scf accuracy    <       0.00289318 Ry

     iteration # 24     ecut=   120.00 Ry     beta= 0.70
     Davidson diagonalization with overlap
     ethr =  7.23E-07,  avg # of iterations =  2.0

     negative rho (up, down):  1.271E+00 0.000E+00

     total cpu time spent up to now is     4204.3 secs

     total energy              =   -3627.08739322 Ry
     estimated scf accuracy    <       0.01110070 Ry

     iteration # 25     ecut=   120.00 Ry     beta= 0.70
     Davidson diagonalization with overlap
     ethr =  7.23E-07,  avg # of iterations =  2.0

     negative rho (up, down):  1.271E+00 0.000E+00

     total cpu time spent up to now is     4327.5 secs

     total energy              =   -3627.08800544 Ry
     estimated scf accuracy    <       0.00035632 Ry

     iteration # 26     ecut=   120.00 Ry     beta= 0.70
     Davidson diagonalization with overlap
     ethr =  8.91E-08,  avg # of iterations =  2.0

     negative rho (up, down):  1.271E+00 0.000E+00

     total cpu time spent up to now is     4456.3 secs

     total energy              =   -3627.08801006 Ry
     estimated scf accuracy    <       0.00083466 Ry

     iteration # 27     ecut=   120.00 Ry     beta= 0.70
     Davidson diagonalization with overlap
     ethr =  8.91E-08,  avg # of iterations =  2.0

     negative rho (up, down):  1.271E+00 0.000E+00

     total cpu time spent up to now is     4577.0 secs

     total energy              =   -3627.08800730 Ry
     estimated scf accuracy    <       0.00138578 Ry

     iteration # 28     ecut=   120.00 Ry     beta= 0.70
     Davidson diagonalization with overlap
     ethr =  8.91E-08,  avg # of iterations =  2.0

     negative rho (up, down):  1.271E+00 0.000E+00

     total cpu time spent up to now is     4701.0 secs

     total energy              =   -3627.08800189 Ry
     estimated scf accuracy    <       0.00148465 Ry

     iteration # 29     ecut=   120.00 Ry     beta= 0.70
     Davidson diagonalization with overlap
     ethr =  8.91E-08,  avg # of iterations =  2.0

     negative rho (up, down):  1.271E+00 0.000E+00

     total cpu time spent up to now is     4819.0 secs

     total energy              =   -3627.08804549 Ry
     estimated scf accuracy    <       0.00046011 Ry

     iteration # 30     ecut=   120.00 Ry     beta= 0.70
     Davidson diagonalization with overlap
     ethr =  8.91E-08,  avg # of iterations =  1.0

     negative rho (up, down):  1.271E+00 0.000E+00

     total cpu time spent up to now is     4925.3 secs

     total energy              =   -3627.08806104 Ry
     estimated scf accuracy    <       0.00015297 Ry

     iteration # 31     ecut=   120.00 Ry     beta= 0.70
     Davidson diagonalization with overlap
     ethr =  3.82E-08,  avg # of iterations =  1.0

     negative rho (up, down):  1.271E+00 0.000E+00

     total cpu time spent up to now is     5027.9 secs

     total energy              =   -3627.08806594 Ry
     estimated scf accuracy    <       0.00011809 Ry

     iteration # 32     ecut=   120.00 Ry     beta= 0.70
     Davidson diagonalization with overlap
     ethr =  2.95E-08,  avg # of iterations =  1.0

     negative rho (up, down):  1.271E+00 0.000E+00

     total cpu time spent up to now is     5130.5 secs

     total energy              =   -3627.08806737 Ry
     estimated scf accuracy    <       0.00008261 Ry

     iteration # 33     ecut=   120.00 Ry     beta= 0.70
     Davidson diagonalization with overlap
     ethr =  2.07E-08,  avg # of iterations =  2.0

     negative rho (up, down):  1.271E+00 0.000E+00

     total cpu time spent up to now is     5248.0 secs

     total energy              =   -3627.08806819 Ry
     estimated scf accuracy    <       0.00005213 Ry

     iteration # 34     ecut=   120.00 Ry     beta= 0.70
     Davidson diagonalization with overlap
     ethr =  1.30E-08,  avg # of iterations =  2.0

     negative rho (up, down):  1.271E+00 0.000E+00

     total cpu time spent up to now is     5371.2 secs

     total energy              =   -3627.08806685 Ry
     estimated scf accuracy    <       0.00012365 Ry

     iteration # 35     ecut=   120.00 Ry     beta= 0.70
     Davidson diagonalization with overlap
     ethr =  1.30E-08,  avg # of iterations =  1.0

     negative rho (up, down):  1.271E+00 0.000E+00

     total cpu time spent up to now is     5472.7 secs

     total energy              =   -3627.08807270 Ry
     estimated scf accuracy    <       0.00000247 Ry

     iteration # 36     ecut=   120.00 Ry     beta= 0.70
     Davidson diagonalization with overlap
     ethr =  6.18E-10,  avg # of iterations =  3.0

     negative rho (up, down):  1.271E+00 0.000E+00

     total cpu time spent up to now is     5604.7 secs

     total energy              =   -3627.08807297 Ry
     estimated scf accuracy    <       0.00000293 Ry

     iteration # 37     ecut=   120.00 Ry     beta= 0.70
     Davidson diagonalization with overlap
     ethr =  6.18E-10,  avg # of iterations =  2.0

     negative rho (up, down):  1.271E+00 0.000E+00

     total cpu time spent up to now is     5724.9 secs

     total energy              =   -3627.08807315 Ry
     estimated scf accuracy    <       0.00000145 Ry

     iteration # 38     ecut=   120.00 Ry     beta= 0.70
     Davidson diagonalization with overlap
     ethr =  3.62E-10,  avg # of iterations =  2.0

     negative rho (up, down):  1.271E+00 0.000E+00

     total cpu time spent up to now is     5845.9 secs

     total energy              =   -3627.08807315 Ry
     estimated scf accuracy    <       0.00000204 Ry

     iteration # 39     ecut=   120.00 Ry     beta= 0.70
     Davidson diagonalization with overlap
     ethr =  3.62E-10,  avg # of iterations =  2.0

     negative rho (up, down):  1.271E+00 0.000E+00

     total cpu time spent up to now is     5963.4 secs

     total energy              =   -3627.08807318 Ry
     estimated scf accuracy    <       0.00000140 Ry

     iteration # 40     ecut=   120.00 Ry     beta= 0.70
     Davidson diagonalization with overlap
     ethr =  3.51E-10,  avg # of iterations =  2.0

     negative rho (up, down):  1.271E+00 0.000E+00

     total cpu time spent up to now is     6083.2 secs

     total energy              =   -3627.08807316 Ry
     estimated scf accuracy    <       0.00000254 Ry

     iteration # 41     ecut=   120.00 Ry     beta= 0.70
     Davidson diagonalization with overlap
     ethr =  3.51E-10,  avg # of iterations =  1.0

     negative rho (up, down):  1.271E+00 0.000E+00

     total cpu time spent up to now is     6187.1 secs

     End of self-consistent calculation

          k = 0.0000 0.0000 0.0000 (208165 PWs)   bands (ev):

  -160.1911-143.9288-123.5985-102.6570 -99.5356 -94.9860 -94.4253 -83.7857
   -81.7864 -79.0088 -73.4219 -73.0111 -72.3277 -72.2841 -69.2868 -68.1428
   -67.8029 -67.5050 -65.1609 -64.4815 -63.5729 -63.2139 -62.3469 -61.3195
   -60.6667 -59.9716 -59.6018 -57.3197 -56.8468 -56.7983 -55.2949 -53.2021
   -52.8473 -52.6121 -52.5921 -51.3807 -50.8527 -50.4004 -50.1222 -49.0000
   -47.9518 -46.7391 -45.6056 -45.0419 -44.6320 -43.5830 -42.6478 -42.0443
   -41.3791 -40.5869 -40.3333 -39.4762 -39.3543 -39.3363 -37.9582 -37.0406
   -35.7938 -35.6581 -35.4039 -35.2283 -35.1153 -34.2699 -33.6003 -33.4201
   -32.1952 -32.1825 -31.4754 -30.7462 -30.7051 -30.0408 -29.7368 -29.6885
   -29.5416 -29.5083 -29.2465 -29.1761 -28.8612 -28.2459 -27.6950 -27.5036
   -26.8640 -26.8165 -26.4332 -26.4211 -26.3665 -26.3110 -26.2505 -26.1487
   -25.9883 -25.9284 -25.9252 -25.7944 -25.6897 -25.6108 -25.4595 -24.7027
   -24.6149 -23.7854 -23.6314 -23.1083 -22.8499 -22.4399 -22.4201 -22.0611
   -22.0190 -21.8096 -21.6281 -21.5431 -21.4577 -20.9650 -20.1891 -19.6510
   -19.5955 -19.0600 -18.6019 -18.3309 -18.1041 -17.5017 -17.4648 -16.7888
   -15.4950 -15.0374 -14.8323 -14.3947 -13.6451 -13.3209 -12.2594 -12.1051
   -11.1258 -10.3147  -9.7842  -9.3939  -8.9898  -8.4268  -7.9147  -7.2757
    -7.0190  -6.0597  -5.8254  -5.6483  -5.1445  -4.7961  -4.7346  -4.2071
    -3.8921  -3.6702  -3.1462  -2.9742  -2.6438  -2.2210  -2.1854  -1.8598
    -1.5799  -1.3533  -1.0389  -0.9351  -0.6498  -0.4415   0.1979   0.3466
     0.7260   0.8188   0.9027   1.2378   1.3615   1.4658   1.8210   1.8868
     1.9451   2.0737   2.2838   2.3761   2.5975   2.7166   2.8586   2.9559
     3.0959   3.2738   3.3910   3.4335   3.6947   3.7417   3.8036   3.9481
     4.0204   4.0733   4.2721   4.3790   4.4513   4.4716   4.6351   4.6916
     4.7853   4.8456   4.9346   4.9550   5.0158   5.0456   5.1555   5.1866
     5.2191   5.2435   5.3842   5.4369   5.5030   5.5345   5.5665   5.6051
     5.7455   5.8040   5.9142   5.9516   6.0975   6.1880   6.2388   6.3435
     6.3702   6.4289   6.4569   6.5508   6.6063   6.6381   6.6731   6.7941
     6.8067   6.9084   6.9445   7.0823   7.1701   7.1977   7.3548   7.4483
     7.5061   7.6484   7.7239   7.7961   7.8799   7.9740   8.0641   8.1082

     the Fermi energy is     5.2123 ev

!    total energy              =   -3627.08807267 Ry
     estimated scf accuracy    <       0.00000071 Ry
     smearing contrib. (-TS)   =      -0.11351855 Ry
     internal energy E=F+TS    =   -3626.97455411 Ry

     The total energy is F=E-TS. E is the sum of the following terms:
     one-electron contribution =  -13260.12791324 Ry
     hartree contribution      =    6592.03032024 Ry
     xc contribution           =   -1337.26478399 Ry
     ewald contribution        =    4378.38782289 Ry

     convergence has been achieved in  41 iterations

     negative rho (up, down):  1.271E+00 0.000E+00

     Forces acting on atoms (cartesian axes, Ry/au):

     atom    1 type  1   force =  -206.57167970  -83.52855255 -142.44241308
     atom    2 type  1   force =    -0.90859316    2.88095052   11.78562439
     atom    3 type  1   force =    90.04012739   36.84278585  -25.45463549
     atom    4 type  1   force =     0.13325462   -0.29955097   -0.11404774
     atom    5 type  1   force =  -117.63242056   43.92731644   42.98511064
     atom    6 type  1   force =    -0.21379804   -0.94655588    2.41528615
     atom    7 type  1   force =    -0.24790088   -6.23736537    4.18614122
     atom    8 type  1   force =    -0.10743513   -0.01942573   -0.04089369
     atom    9 type  2   force =    -7.67853562    7.69901603   11.33365966
     atom   10 type  2   force =    -0.55113512   12.99524369   -8.34505707
     atom   11 type  2   force =    -2.87534137   -2.78018748   -3.48089149
     atom   12 type  2   force =   169.66688438   35.46294019   12.25556265
     atom   13 type  2   force =     0.41406393    0.17505854   -0.08480917
     atom   14 type  2   force =     1.41020667   16.82176226  -10.51925634
     atom   15 type  2   force =     8.02207224   -9.75211276   -4.37432178
     atom   16 type  2   force =     0.02521818    0.14453672   -0.01423132
     atom   17 type  3   force =    -0.06042658   -0.10944771   -0.04345373
     atom   18 type  3   force =     5.41924741    5.18586358   -2.97431387
     atom   19 type  3   force =    28.48918155   34.35475381   23.10307981
     atom   20 type  3   force =   -16.69600177   -0.06825242   32.91146595
     atom   21 type  3   force =    -2.32263042  -26.03788191  -68.31793979
     atom   22 type  3   force =     0.09808695    1.00009977   -2.55018368
     atom   23 type  3   force =    -4.92437854  -15.74603678   11.32452025
     atom   24 type  3   force =    24.90556322  -31.28633635  -66.94723554
     atom   25 type  4   force =   176.05364771   62.82050205  138.19989165
     atom   26 type  4   force =     0.21241560   -0.16332524    0.04544507
     atom   27 type  4   force =    -2.48955048    2.86773371    3.05607169
     atom   28 type  4   force =    -3.02033667  -20.69111122   -5.04157665
     atom   29 type  4   force =    11.96872401  -54.36696609   36.20909369
     atom   30 type  4   force =  -152.93257273  -35.74293699  -44.94030125
     atom   31 type  4   force =    13.27294284   30.67563694   55.47601143
     atom   32 type  4   force =   -10.89889993   -6.07815466    0.39859743
     The non-local contrib.  to forces
     atom    1 type  1   force =     3.44312175   -4.20061086   -5.57165838
     atom    2 type  1   force =     0.36388631   -1.59078533   -5.63408744
     atom    3 type  1   force =   -12.99326504  -14.30551423  -10.09618914
     atom    4 type  1   force =    -0.14575190    0.00110839    0.10080318
     atom    5 type  1   force =    18.51293304   -0.29464701   -4.12678314
     atom    6 type  1   force =     0.17290581    0.52733721   -1.40930326
     atom    7 type  1   force =    -0.57157335    2.52005966   -1.73324714
     atom    8 type  1   force =    -0.10262457   -0.09257490   -0.04608098
     atom    9 type  2   force =    -0.87459045   -0.89168227   -0.19952476
     atom   10 type  2   force =    -0.21382101    1.01922728   -0.70720162
     atom   11 type  2   force =     0.02625671   -0.48569036   -0.29300435
     atom   12 type  2   force =     1.44883630    0.33731505   -0.49049235
     atom   13 type  2   force =     0.06036530    0.06660591   -0.06716298
     atom   14 type  2   force =     0.23504426    2.99689179   -1.93151808
     atom   15 type  2   force =     1.05015166   -1.41921325   -0.56697146
     atom   16 type  2   force =     0.04097611    0.15271989   -0.01645759
     atom   17 type  3   force =     0.15919567    0.13207409   -0.29289294
     atom   18 type  3   force =    -2.68760568   -1.94692004    1.37945932
     atom   19 type  3   force =    -7.20542552   -8.32217205   -5.74254383
     atom   20 type  3   force =     3.67433819    0.02773421   -8.21934660
     atom   21 type  3   force =    -0.88451752    3.77906056   12.77634527
     atom   22 type  3   force =    -0.11577714   -0.51623261    1.56521673
     atom   23 type  3   force =     0.29384068    2.72705711   -4.14946385
     atom   24 type  3   force =    -8.67895039   14.51700799   27.24426344
     atom   25 type  4   force =     6.57905347    1.44296658    5.60436709
     atom   26 type  4   force =     0.16682117    0.03911749   -0.04402543
     atom   27 type  4   force =    -0.30739167    0.44508374    0.39205171
     atom   28 type  4   force =    -0.46353110   -1.32554256   -0.35170257
     atom   29 type  4   force =    -1.68112745    1.78618476    1.83708985
     atom   30 type  4   force =    -3.09874694   -1.17452890   -3.72851676
     atom   31 type  4   force =     1.79430865    3.13788979    4.48724177
     atom   32 type  4   force =    -1.71976261   -0.94671594    0.20230062
     The ionic contribution  to forces
     atom    1 type  1   force =  -239.70581951  -14.76364699  -84.63572517
     atom    2 type  1   force =   -33.44130666   82.85975871  100.47072930
     atom    3 type  1   force =   220.68582439   93.79760808  -54.66925436
     atom    4 type  1   force =   -21.11852980  -74.73752711    3.52605382
     atom    5 type  1   force =  -183.00145389   61.13819572   55.00785524
     atom    6 type  1   force =   -51.16152232  -28.62180048   -1.88173618
     atom    7 type  1   force =   -42.29715699  -45.30958070   62.26806223
     atom    8 type  1   force =   -25.22547736  -17.24176829  -24.66461844
     atom    9 type  2   force =   -58.63226109  -42.93527640    4.20154716
     atom   10 type  2   force =   -35.16543482   58.38769934 -119.86452963
     atom   11 type  2   force =   -82.26705365  -58.58115144   -0.69109539
     atom   12 type  2   force =   265.87002360    1.56398100   42.50945399
     atom   13 type  2   force =    75.35572166  -12.94055699   50.50769161
     atom   14 type  2   force =    25.09794162  176.86916722 -115.46816290
     atom   15 type  2   force =    96.72403591 -120.58185291  -48.44076505
     atom   16 type  2   force =   -19.95731847  -40.40943425  -22.23084224
     atom   17 type  3   force =    -5.84827035  -15.26224065  -41.81945482
     atom   18 type  3   force =    11.07297830   25.51920094   36.76617696
     atom   19 type  3   force =   113.10664598  148.75368628  110.85977747
     atom   20 type  3   force =   -34.90888288  -41.56357152  147.23730971
     atom   21 type  3   force =   -43.31623550   19.44156079 -157.91943952
     atom   22 type  3   force =   -52.33874895   18.15506739  -69.42481977
     atom   23 type  3   force =    46.19929780  -95.83811077   35.99191883
     atom   24 type  3   force =   146.04816417  -38.63190129 -222.93686627
     atom   25 type  4   force =   206.74555938  124.69313761  217.56737625
     atom   26 type  4   force =    48.76950420  -30.79072941  -13.78101708
     atom   27 type  4   force =   -64.87699828   31.77942946   81.33279073
     atom   28 type  4   force =   -21.10898488 -147.19916449  -42.61251334
     atom   29 type  4   force =    49.34517493  -55.08511283   57.75054336
     atom   30 type  4   force =  -170.04436155  -92.72678416  -48.23700579
     atom   31 type  4   force =     2.71579638  122.61409156   65.72557541
     atom   32 type  4   force =  -123.32085137    7.64762656   -2.44501613
     The local contribution  to forces
     atom    1 type  1   force =    26.96183541  -65.13552181  -53.32911960
     atom    2 type  1   force =    32.14475130  -78.15132971  -82.33563430
     atom    3 type  1   force =  -115.24171356  -40.02764594   40.69694410
     atom    4 type  1   force =    21.40825216   74.45466013   -3.74763154
     atom    5 type  1   force =    43.41425438  -16.32200255   -6.90889418
     atom    6 type  1   force =    50.74725800   27.08855474    5.84424736
     atom    7 type  1   force =    42.65110379   36.17123574  -56.09921927
     atom    8 type  1   force =    25.21040892   17.31878284   24.68200567
     atom    9 type  2   force =    51.75092352   51.61929428    7.45529245
     atom   10 type  2   force =    34.81822747  -46.28976705  112.14960015
     atom   11 type  2   force =    79.36997816   56.26677591   -2.51293311
     atom   12 type  2   force =   -96.45261621   33.81415003  -29.65327935
     atom   13 type  2   force =   -75.00837958   13.05009219  -50.53433648
     atom   14 type  2   force =   -23.92189139 -162.90047581  106.77991067
     atom   15 type  2   force =   -89.67466265  112.19055418   44.61754177
     atom   16 type  2   force =    19.94685345   40.41678752   22.23323365
     atom   17 type  3   force =     5.60884110   14.99798601   42.09713843
     atom   18 type  3   force =    -2.76119442  -18.23316733  -41.22012250
     atom   19 type  3   force =   -76.46992088 -104.94765400  -81.24327453
     atom   20 type  3   force =    13.96371806   41.46017041 -104.99783569
     atom   21 type  3   force =    41.86508279  -49.90138984   75.02134402
     atom   22 type  3   force =    52.54853768  -16.60641452   65.22371641
     atom   23 type  3   force =   -51.53931278   76.89755099  -20.13651530
     atom   24 type  3   force =  -111.34988185   -9.28562441  125.05884420
     atom   25 type  4   force =   -34.80449781  -62.36721817  -83.06001212
     atom   26 type  4   force =   -48.71594996   30.59388118   13.86819856
     atom   27 type  4   force =    62.67996219  -29.33404075  -78.65130681
     atom   28 type  4   force =    18.50715430  127.55554795   37.84931157
     atom   29 type  4   force =   -35.44533767   -2.02698837  -22.84433829
     atom   30 type  4   force =    18.76180355   57.81756621    6.60830534
     atom   31 type  4   force =     8.91616117  -94.69022565  -14.00905035
     atom   32 type  4   force =   114.04066154  -12.83821665    2.65210761
     The core correction contribution to forces
     atom    1 type  1   force =     2.72920951    0.57122684    1.09407173
     atom    2 type  1   force =     0.02415152   -0.23661361   -0.71578261
     atom    3 type  1   force =    -2.41071473   -2.62145392   -1.38566647
     atom    4 type  1   force =    -0.01050194   -0.01801339    0.00656754
     atom    5 type  1   force =     3.44208348   -0.59409370   -0.98680308
     atom    6 type  1   force =     0.02735660    0.05936812   -0.13783398
     atom    7 type  1   force =    -0.03003300    0.38120811   -0.24957704
     atom    8 type  1   force =     0.01040635   -0.00399634   -0.01210681
     atom    9 type  2   force =     0.07752734   -0.09377737   -0.12282808
     atom   10 type  2   force =     0.01020883   -0.12161656    0.07802068
     atom   11 type  2   force =    -0.00460357    0.02012869    0.01599683
     atom   12 type  2   force =    -1.19921621   -0.25237314   -0.11029132
     atom   13 type  2   force =     0.00632502   -0.00094864    0.00877572
     atom   14 type  2   force =    -0.00079561   -0.14376470    0.10087698
     atom   15 type  2   force =    -0.07722860    0.05820186    0.01648899
     atom   16 type  2   force =    -0.00557354   -0.01637787    0.00013917
     atom   17 type  3   force =     0.01956780    0.02182924   -0.02821043
     atom   18 type  3   force =    -0.20472112   -0.15280081    0.09977192
     atom   19 type  3   force =    -0.94216532   -1.12915861   -0.77102701
     atom   20 type  3   force =     0.57508334    0.00743458   -1.10906440
     atom   21 type  3   force =     0.01298739    0.64315554    1.80417555
     atom   22 type  3   force =     0.00343763   -0.03230452    0.08635598
     atom   23 type  3   force =     0.12203069    0.46782184   -0.38076474
     atom   24 type  3   force =    -1.11367316    2.11460654    3.68724929
     atom   25 type  4   force =    -2.46646976   -0.94839861   -1.91193178
     atom   26 type  4   force =    -0.00787903   -0.00556598    0.00254687
     atom   27 type  4   force =     0.01487806   -0.02239860   -0.01775199
     atom   28 type  4   force =     0.04487787    0.27719231    0.07363182
     atom   29 type  4   force =    -0.24980196    0.95918281   -0.53382072
     atom   30 type  4   force =     1.44899051    0.34096140    0.41683067
     atom   31 type  4   force =    -0.15336241   -0.38604933   -0.72779756
     atom   32 type  4   force =     0.10128957    0.05946413   -0.01091513
     The Hubbard contrib.    to forces
     atom    1 type  1   force =     0.00000000    0.00000000    0.00000000
     atom    2 type  1   force =     0.00000000    0.00000000    0.00000000
     atom    3 type  1   force =     0.00000000    0.00000000    0.00000000
     atom    4 type  1   force =     0.00000000    0.00000000    0.00000000
     atom    5 type  1   force =     0.00000000    0.00000000    0.00000000
     atom    6 type  1   force =     0.00000000    0.00000000    0.00000000
     atom    7 type  1   force =     0.00000000    0.00000000    0.00000000
     atom    8 type  1   force =     0.00000000    0.00000000    0.00000000
     atom    9 type  2   force =     0.00000000    0.00000000    0.00000000
     atom   10 type  2   force =     0.00000000    0.00000000    0.00000000
     atom   11 type  2   force =     0.00000000    0.00000000    0.00000000
     atom   12 type  2   force =     0.00000000    0.00000000    0.00000000
     atom   13 type  2   force =     0.00000000    0.00000000    0.00000000
     atom   14 type  2   force =     0.00000000    0.00000000    0.00000000
     atom   15 type  2   force =     0.00000000    0.00000000    0.00000000
     atom   16 type  2   force =     0.00000000    0.00000000    0.00000000
     atom   17 type  3   force =     0.00000000    0.00000000    0.00000000
     atom   18 type  3   force =     0.00000000    0.00000000    0.00000000
     atom   19 type  3   force =     0.00000000    0.00000000    0.00000000
     atom   20 type  3   force =     0.00000000    0.00000000    0.00000000
     atom   21 type  3   force =     0.00000000    0.00000000    0.00000000
     atom   22 type  3   force =     0.00000000    0.00000000    0.00000000
     atom   23 type  3   force =     0.00000000    0.00000000    0.00000000
     atom   24 type  3   force =     0.00000000    0.00000000    0.00000000
     atom   25 type  4   force =     0.00000000    0.00000000    0.00000000
     atom   26 type  4   force =     0.00000000    0.00000000    0.00000000
     atom   27 type  4   force =     0.00000000    0.00000000    0.00000000
     atom   28 type  4   force =     0.00000000    0.00000000    0.00000000
     atom   29 type  4   force =     0.00000000    0.00000000    0.00000000
     atom   30 type  4   force =     0.00000000    0.00000000    0.00000000
     atom   31 type  4   force =     0.00000000    0.00000000    0.00000000
     atom   32 type  4   force =     0.00000000    0.00000000    0.00000000
     The SCF correction term to forces
     atom    1 type  1   force =    -0.00000655    0.00000857    0.00003555
     atom    2 type  1   force =    -0.00005532   -0.00007123    0.00041665
     atom    3 type  1   force =     0.00001663   -0.00019983   -0.00045240
     atom    4 type  1   force =    -0.00019359    0.00022932    0.00017646
     atom    5 type  1   force =    -0.00021725   -0.00012772   -0.00024699
     atom    6 type  1   force =     0.00022418   -0.00000715   -0.00007059
     atom    7 type  1   force =    -0.00022103   -0.00027987    0.00013966
     atom    8 type  1   force =    -0.00012816    0.00013927   -0.00007592
     atom    9 type  2   force =    -0.00011462    0.00046609   -0.00080990
     atom   10 type  2   force =    -0.00029527   -0.00029100   -0.00092945
     atom   11 type  2   force =     0.00010130   -0.00024198    0.00016175
     atom   12 type  2   force =    -0.00012279   -0.00012445    0.00018889
     atom   13 type  2   force =     0.00005184   -0.00012563    0.00024018
     atom   14 type  2   force =    -0.00007189   -0.00004794   -0.00034580
     atom   15 type  2   force =    -0.00020377    0.00020566   -0.00059881
     atom   16 type  2   force =     0.00030093    0.00084974   -0.00028709
     atom   17 type  3   force =     0.00025951    0.00091190   -0.00001676
     atom   18 type  3   force =    -0.00018937   -0.00044088    0.00041765
     atom   19 type  3   force =     0.00006759    0.00006048    0.00016493
     atom   20 type  3   force =    -0.00023817   -0.00001180    0.00042014
     atom   21 type  3   force =     0.00007274   -0.00026065   -0.00034790
     atom   22 type  3   force =     0.00065804   -0.00000766   -0.00063582
     atom   23 type  3   force =    -0.00021461   -0.00034764   -0.00063748
     atom   24 type  3   force =    -0.00007525   -0.00041687   -0.00070898
     atom   25 type  4   force =     0.00002274    0.00002294    0.00010942
     atom   26 type  4   force =    -0.00006047   -0.00002022   -0.00024064
     atom   27 type  4   force =     0.00001953   -0.00033183    0.00030526
     atom   28 type  4   force =     0.00016745    0.00086387   -0.00028691
     atom   29 type  4   force =    -0.00016354   -0.00022416   -0.00036329
     atom   30 type  4   force =    -0.00023798   -0.00014323    0.00010249
     atom   31 type  4   force =     0.00005936   -0.00006113    0.00005938
     atom   32 type  4   force =    -0.00021675   -0.00030446    0.00013768

     Total force =   484.691513     Total SCF correction =     0.003163


     Computing stress (Cartesian axis) and pressure


     negative rho (up, down):  1.271E+00 0.000E+00
