
     Program PWSCF v.7.2 starts on 30May2023 at 17:20:49 

     This program is part of the open-source Quantum ESPRESSO suite
     for quantum simulation of materials; please cite
         "P. Giannozzi et al., J. Phys.:Condens. Matter 21 395502 (2009);
         "P. Giannozzi et al., J. Phys.:Condens. Matter 29 465901 (2017);
         "P. Giannozzi et al., J. Chem. Phys. 152 154105 (2020);
          URL http://www.quantum-espresso.org", 
     in publications or presentations arising from this work. More details at
     http://www.quantum-espresso.org/quote

     Parallel version (MPI), running on    12 processors

     MPI processes distributed on     1 nodes
     68179 MiB available memory on the printing compute node when the environment starts

     Reading input from HfNbTaZr_lattice_16_MD_nsteps_5.in
Warning: card &CELL ignored
Warning: card / ignored

     Current dimensions of program PWSCF are:
     Max number of different atomic species (ntypx) = 10
     Max number of k-points (npk) =  40000
     Max angular momentum in pseudopotentials (lmaxx) =  4

     File ./pwscf.md deleted, as requested

     gamma-point specific algorithms are used

     R & G space division:  proc/nbgrp/npool/nimage =      12
     Subspace diagonalization in iterative solution of the eigenvalue problem:
     a serial algorithm will be used


     Parallelization info
     --------------------
     sticks:   dense  smooth     PW     G-vecs:    dense   smooth      PW
     Min         612     612    151                74884    74884    9352
     Max         614     614    156                74899    74899    9362
     Sum        7353    7353   1837               898687   898687  112271

     Using Slab Decomposition



     bravais-lattice index     =            0
     lattice parameter (alat)  =      13.8706  a.u.
     unit-cell volume          =    5060.0776 (a.u.)^3
     number of atoms/cell      =           17
     number of atomic types    =            5
     number of electrons       =       201.00
     number of Kohn-Sham states=          121
     kinetic-energy cutoff     =     120.0000  Ry
     charge density cutoff     =     480.0000  Ry
     scf convergence threshold =      1.0E-04
     mixing beta               =       0.7000
     number of iterations used =            8  TF        mixing
     energy convergence thresh.=      0.0E+00
     force convergence thresh. =      0.0E+00
     Exchange-correlation=  SLA  PW   PBX  PBC
                           (   1   4   3   4   0   0   0)
     nstep                     =            5


     celldm(1)=  13.870590  celldm(2)=   0.000000  celldm(3)=   0.000000
     celldm(4)=   0.000000  celldm(5)=   0.000000  celldm(6)=   0.000000

     crystal axes: (cart. coord. in units of alat)
               a(1) = (   1.000000   0.000000   0.000000 )  
               a(2) = (   0.000000   1.000000   0.000000 )  
               a(3) = (   0.000000   0.000000   1.896149 )  

     reciprocal axes: (cart. coord. in units 2 pi/alat)
               b(1) = (  1.000000  0.000000  0.000000 )  
               b(2) = (  0.000000  1.000000  0.000000 )  
               b(3) = (  0.000000  0.000000  0.527385 )  


     PseudoPot. # 1 for Hf read from file:
     q-e/pseudo/hf_pbe_v1.uspp.F.UPF
     MD5 check sum: 8ee9378dfe14276e333edf04c5e4aa26
     Pseudo is Ultrasoft + core correction, Zval = 12.0
     Generated by new atomic code, or converted to UPF format
     Using radial grid of  921 points,  8 beta functions with: 
                l(1) =   0
                l(2) =   0
                l(3) =   0
                l(4) =   1
                l(5) =   1
                l(6) =   2
                l(7) =   2
                l(8) =   3
     Q(r) pseudized with  6 coefficients,  rinner =    1.200   1.200   1.200
                                                       1.200   1.200   1.200
                                                       1.200

     PseudoPot. # 2 for Nb read from file:
     q-e/pseudo/nb_pbe_v1.uspp.F.UPF
     MD5 check sum: 573aab8a2fa660278ed4a62cd769473f
     Pseudo is Ultrasoft + core correction, Zval = 13.0
     Generated by new atomic code, or converted to UPF format
     Using radial grid of  887 points,  6 beta functions with: 
                l(1) =   0
                l(2) =   0
                l(3) =   1
                l(4) =   1
                l(5) =   2
                l(6) =   2
     Q(r) pseudized with  6 coefficients,  rinner =    1.000   1.000   1.000
                                                       1.000   1.000

     PseudoPot. # 3 for Ta read from file:
     q-e/pseudo/ta_pbe_v1.uspp.F.UPF
     MD5 check sum: f8bbe9446314a3b8ea5d9f3e3836c939
     Pseudo is Ultrasoft + core correction, Zval = 13.0
     Generated by new atomic code, or converted to UPF format
     Using radial grid of  921 points,  7 beta functions with: 
                l(1) =   0
                l(2) =   0
                l(3) =   1
                l(4) =   1
                l(5) =   2
                l(6) =   2
                l(7) =   3
     Q(r) pseudized with  6 coefficients,  rinner =    1.300   1.300   1.300
                                                       1.300   1.300   1.300
                                                       1.300

     PseudoPot. # 4 for Zr read from file:
     q-e/pseudo/zr_pbe_v1.uspp.F.UPF
     MD5 check sum: 5db81b1e868ab7776c4564c113de050b
     Pseudo is Ultrasoft + core correction, Zval = 12.0
     Generated by new atomic code, or converted to UPF format
     Using radial grid of  887 points,  6 beta functions with: 
                l(1) =   0
                l(2) =   0
                l(3) =   1
                l(4) =   1
                l(5) =   2
                l(6) =   2
     Q(r) pseudized with  6 coefficients,  rinner =    1.200   1.200   1.200
                                                       1.200   1.200

     PseudoPot. # 5 for H  read from file:
     q-e/pseudo/h_pbe_v1.4.uspp.F.UPF
     MD5 check sum: 761ae9a214b05c3daf00ab9f6b793d6f
     Pseudo is Ultrasoft, Zval =  1.0
     Generated by new atomic code, or converted to UPF format
     Using radial grid of  615 points,  2 beta functions with: 
                l(1) =   0
                l(2) =   0
     Q(r) pseudized with  8 coefficients,  rinner =    0.700

     atomic species   valence    mass     pseudopotential
        Hf            12.00   178.49000     Hf( 1.00)
        Nb            13.00    92.90637     Nb( 1.00)
        Ta            13.00   180.94788     Ta( 1.00)
        Zr            12.00    91.22400     Zr( 1.00)
        H              1.00     2.01400     H ( 1.00)

     Starting magnetic structure 
     atomic species   magnetization
        Hf           0.000
        Nb           0.000
        Ta           0.000
        Zr           0.000
        H            0.000

     No symmetry found



   Cartesian axes

     site n.     atom                  positions (alat units)
         1           Hf  tau(   1) = (   0.1249797   0.1249746   0.8174773  )
         2           Nb  tau(   2) = (   0.1250259   0.3749771   1.0599394  )
         3           Ta  tau(   3) = (   0.3751799   0.1250253   1.0787069  )
         4           Zr  tau(   4) = (   0.3749599   0.3750193   0.8264272  )
         5           Hf  tau(   5) = (   0.1249742   0.6249777   0.8174756  )
         6           Nb  tau(   6) = (   0.1250266   0.8749767   1.0599171  )
         7           Ta  tau(   7) = (   0.3751804   0.6250229   1.0787032  )
         8           Zr  tau(   8) = (   0.3749645   0.8750292   0.8264090  )
         9           Hf  tau(   9) = (   0.6249795   0.1249703   0.8174402  )
        10           Nb  tau(  10) = (   0.6250164   0.3749776   1.0600053  )
        11           Ta  tau(  11) = (   0.8747978   0.1250218   1.0787100  )
        12           Zr  tau(  12) = (   0.8750615   0.3750194   0.8264039  )
        13           Hf  tau(  13) = (   0.6249842   0.6249832   0.8174387  )
        14           Nb  tau(  14) = (   0.6250158   0.8749771   1.0599880  )
        15           Ta  tau(  15) = (   0.8747961   0.6250217   1.0787071  )
        16           Zr  tau(  16) = (   0.8750574   0.8750259   0.8263861  )
        17           H   tau(  17) = (   0.6811989   0.5449591   1.7438692  )

     number of k points=     1  Gaussian smearing, width (Ry)=  0.0220
                       cart. coord. in units 2pi/alat
        k(    1) = (   0.0000000   0.0000000   0.0000000), wk =   1.0000000

     Dense  grid:   449344 G-vectors     FFT dimensions: ( 100, 100, 192)

     Estimated max dynamical RAM per process >     343.02 MB

     Estimated total dynamical RAM >       4.02 GB

     Check: negative core charge=   -0.000002
     Generating pointlists ...
     new r_m :   0.1437 (alat units)  1.9925 (a.u.) for type    1
     new r_m :   0.1411 (alat units)  1.9571 (a.u.) for type    2
     new r_m :   0.1460 (alat units)  2.0247 (a.u.) for type    3
     new r_m :   0.1411 (alat units)  1.9571 (a.u.) for type    4
     new r_m :   0.2877 (alat units)  3.9901 (a.u.) for type    5

     Initial potential from superposition of free atoms

     starting charge     192.9760, renormalised to     201.0000

     negative rho (up, down):  5.376E-01 5.376E-01
     Starting wfcs are  209 randomized atomic wfcs

     total cpu time spent up to now is       17.4 secs

     Self-consistent Calculation

     iteration #  1     ecut=   120.00 Ry     beta= 0.70
     Davidson diagonalization with overlap
     ethr =  1.00E-02,  avg # of iterations =  6.0

     negative rho (up, down):  6.914E-01 6.936E-01

     total cpu time spent up to now is       42.8 secs

     total energy              =   -2060.76605420 Ry
     estimated scf accuracy    <     197.48515468 Ry

     total magnetization       =    -0.00 Bohr mag/cell
     absolute magnetization    =     0.06 Bohr mag/cell

     iteration #  2     ecut=   120.00 Ry     beta= 0.70
     Davidson diagonalization with overlap
     ethr =  1.00E-02,  avg # of iterations =  4.0

     negative rho (up, down):  7.374E-01 7.386E-01

     total cpu time spent up to now is       69.8 secs

     total energy              =   -2069.78517497 Ry
     estimated scf accuracy    <      15.57846250 Ry

     total magnetization       =     0.00 Bohr mag/cell
     absolute magnetization    =     0.08 Bohr mag/cell

     iteration #  3     ecut=   120.00 Ry     beta= 0.70
     Davidson diagonalization with overlap
     ethr =  7.75E-03,  avg # of iterations =  2.0

     negative rho (up, down):  8.160E-01 8.167E-01

     total cpu time spent up to now is       91.8 secs

     total energy              =   -2069.83050879 Ry
     estimated scf accuracy    <      10.76708299 Ry

     total magnetization       =     0.01 Bohr mag/cell
     absolute magnetization    =     0.08 Bohr mag/cell

     iteration #  4     ecut=   120.00 Ry     beta= 0.70
     Davidson diagonalization with overlap
     ethr =  5.36E-03,  avg # of iterations =  2.0

     negative rho (up, down):  8.699E-01 8.700E-01

     total cpu time spent up to now is      113.2 secs

     total energy              =   -2069.84899343 Ry
     estimated scf accuracy    <       6.05539031 Ry

     total magnetization       =     0.00 Bohr mag/cell
     absolute magnetization    =     0.08 Bohr mag/cell

     iteration #  5     ecut=   120.00 Ry     beta= 0.70
     Davidson diagonalization with overlap
     ethr =  3.01E-03,  avg # of iterations =  2.0

     negative rho (up, down):  8.620E-01 8.619E-01

     total cpu time spent up to now is      135.5 secs

     total energy              =   -2069.65031530 Ry
     estimated scf accuracy    <       2.69154381 Ry

     total magnetization       =     0.00 Bohr mag/cell
     absolute magnetization    =     0.09 Bohr mag/cell

     iteration #  6     ecut=   120.00 Ry     beta= 0.70
     Davidson diagonalization with overlap
     ethr =  1.34E-03,  avg # of iterations =  6.5

     negative rho (up, down):  8.624E-01 8.595E-01

     total cpu time spent up to now is      158.7 secs

     total energy              =   -2069.40608031 Ry
     estimated scf accuracy    <       1.28923952 Ry

     total magnetization       =     0.26 Bohr mag/cell
     absolute magnetization    =     0.33 Bohr mag/cell

     iteration #  7     ecut=   120.00 Ry     beta= 0.70
     Davidson diagonalization with overlap
     ethr =  6.41E-04,  avg # of iterations =  8.0

     negative rho (up, down):  8.216E-01 8.196E-01

     total cpu time spent up to now is      182.1 secs

     total energy              =   -2069.83299911 Ry
     estimated scf accuracy    <       1.65921271 Ry

     total magnetization       =     0.13 Bohr mag/cell
     absolute magnetization    =     0.25 Bohr mag/cell

     iteration #  8     ecut=   120.00 Ry     beta= 0.70
     Davidson diagonalization with overlap
     ethr =  6.41E-04,  avg # of iterations =  4.0

     negative rho (up, down):  7.617E-01 7.601E-01

     total cpu time spent up to now is      204.3 secs

     total energy              =   -2069.60223014 Ry
     estimated scf accuracy    <       1.37510915 Ry

     total magnetization       =     0.07 Bohr mag/cell
     absolute magnetization    =     0.20 Bohr mag/cell

     iteration #  9     ecut=   120.00 Ry     beta= 0.70
     Davidson diagonalization with overlap
     ethr =  6.41E-04,  avg # of iterations =  6.0

     negative rho (up, down):  6.904E-01 6.898E-01

     total cpu time spent up to now is      226.8 secs

     total energy              =   -2069.46045937 Ry
     estimated scf accuracy    <       0.60869093 Ry

     total magnetization       =     0.09 Bohr mag/cell
     absolute magnetization    =     0.19 Bohr mag/cell

     iteration # 10     ecut=   120.00 Ry     beta= 0.70
     Davidson diagonalization with overlap
     ethr =  3.03E-04,  avg # of iterations =  3.0

     negative rho (up, down):  6.559E-01 6.554E-01

     total cpu time spent up to now is      250.1 secs

     total energy              =   -2069.54748317 Ry
     estimated scf accuracy    <       0.72445190 Ry

     total magnetization       =     0.04 Bohr mag/cell
     absolute magnetization    =     0.12 Bohr mag/cell

     iteration # 11     ecut=   120.00 Ry     beta= 0.70
     Davidson diagonalization with overlap
     ethr =  3.03E-04,  avg # of iterations =  2.0

     negative rho (up, down):  6.258E-01 6.257E-01

     total cpu time spent up to now is      271.5 secs

     total energy              =   -2069.56460942 Ry
     estimated scf accuracy    <       0.09874369 Ry

     total magnetization       =    -0.01 Bohr mag/cell
     absolute magnetization    =     0.09 Bohr mag/cell

     iteration # 12     ecut=   120.00 Ry     beta= 0.70
     Davidson diagonalization with overlap
     ethr =  4.91E-05,  avg # of iterations =  6.5

     negative rho (up, down):  6.031E-01 6.031E-01

     total cpu time spent up to now is      294.8 secs

     total energy              =   -2069.55943682 Ry
     estimated scf accuracy    <       0.18823417 Ry

     total magnetization       =    -0.02 Bohr mag/cell
     absolute magnetization    =     0.08 Bohr mag/cell

     iteration # 13     ecut=   120.00 Ry     beta= 0.70
     Davidson diagonalization with overlap
     ethr =  4.91E-05,  avg # of iterations =  2.0

     negative rho (up, down):  5.646E-01 5.654E-01

     total cpu time spent up to now is      316.3 secs

     total energy              =   -2069.55551918 Ry
     estimated scf accuracy    <       0.02593994 Ry

     total magnetization       =     0.02 Bohr mag/cell
     absolute magnetization    =     0.10 Bohr mag/cell

     iteration # 14     ecut=   120.00 Ry     beta= 0.70
     Davidson diagonalization with overlap
     ethr =  1.29E-05,  avg # of iterations =  5.5

     negative rho (up, down):  5.600E-01 5.608E-01

     total cpu time spent up to now is      338.8 secs

     total energy              =   -2069.55495979 Ry
     estimated scf accuracy    <       0.74039273 Ry

     total magnetization       =     0.05 Bohr mag/cell
     absolute magnetization    =     0.10 Bohr mag/cell

     iteration # 15     ecut=   120.00 Ry     beta= 0.70
     Davidson diagonalization with overlap
     ethr =  1.29E-05,  avg # of iterations =  3.0

     negative rho (up, down):  5.443E-01 5.468E-01

     total cpu time spent up to now is      360.6 secs

     total energy              =   -2069.55927248 Ry
     estimated scf accuracy    <       0.09372178 Ry

     total magnetization       =     0.22 Bohr mag/cell
     absolute magnetization    =     0.28 Bohr mag/cell

     iteration # 16     ecut=   120.00 Ry     beta= 0.70
     Davidson diagonalization with overlap
     ethr =  1.29E-05,  avg # of iterations =  2.5

     negative rho (up, down):  5.434E-01 5.450E-01

     total cpu time spent up to now is      382.0 secs

     total energy              =   -2069.55961807 Ry
     estimated scf accuracy    <       0.00966764 Ry

     total magnetization       =     0.87 Bohr mag/cell
     absolute magnetization    =     0.91 Bohr mag/cell

     iteration # 17     ecut=   120.00 Ry     beta= 0.70
     Davidson diagonalization with overlap
     ethr =  4.81E-06,  avg # of iterations =  4.0

     negative rho (up, down):  5.346E-01 5.345E-01

     total cpu time spent up to now is      403.5 secs

     total energy              =   -2069.55456254 Ry
     estimated scf accuracy    <       0.12846813 Ry

     total magnetization       =     0.30 Bohr mag/cell
     absolute magnetization    =     0.34 Bohr mag/cell

     iteration # 18     ecut=   120.00 Ry     beta= 0.70
     Davidson diagonalization with overlap
     ethr =  4.81E-06,  avg # of iterations =  2.5

     negative rho (up, down):  5.277E-01 5.276E-01

     total cpu time spent up to now is      425.6 secs

     total energy              =   -2069.56109706 Ry
     estimated scf accuracy    <       0.01866757 Ry

     total magnetization       =     0.10 Bohr mag/cell
     absolute magnetization    =     0.13 Bohr mag/cell

     iteration # 19     ecut=   120.00 Ry     beta= 0.70
     Davidson diagonalization with overlap
     ethr =  4.81E-06,  avg # of iterations =  2.0

     negative rho (up, down):  5.273E-01 5.273E-01

     total cpu time spent up to now is      448.0 secs

     total energy              =   -2069.56089766 Ry
     estimated scf accuracy    <       0.01718031 Ry

     total magnetization       =     0.03 Bohr mag/cell
     absolute magnetization    =     0.05 Bohr mag/cell

     iteration # 20     ecut=   120.00 Ry     beta= 0.70
     Davidson diagonalization with overlap
     ethr =  4.81E-06,  avg # of iterations =  1.0

     negative rho (up, down):  5.272E-01 5.272E-01

     total cpu time spent up to now is      467.8 secs

     total energy              =   -2069.56134542 Ry
     estimated scf accuracy    <       0.00239687 Ry

     total magnetization       =     0.03 Bohr mag/cell
     absolute magnetization    =     0.04 Bohr mag/cell

     iteration # 21     ecut=   120.00 Ry     beta= 0.70
     Davidson diagonalization with overlap
     c_bands:  1 eigenvalues not converged
     ethr =  1.19E-06,  avg # of iterations = 11.5

     negative rho (up, down):  5.271E-01 5.271E-01

     total cpu time spent up to now is      490.7 secs

     total energy              =   -2069.56117848 Ry
     estimated scf accuracy    <       0.00760278 Ry

     total magnetization       =    -0.03 Bohr mag/cell
     absolute magnetization    =     0.03 Bohr mag/cell

     iteration # 22     ecut=   120.00 Ry     beta= 0.70
     Davidson diagonalization with overlap
     ethr =  1.19E-06,  avg # of iterations =  5.5

     negative rho (up, down):  5.271E-01 5.271E-01

     total cpu time spent up to now is      512.9 secs

     total energy              =   -2069.56137568 Ry
     estimated scf accuracy    <       0.00069208 Ry

     total magnetization       =    -0.08 Bohr mag/cell
     absolute magnetization    =     0.08 Bohr mag/cell

     iteration # 23     ecut=   120.00 Ry     beta= 0.70
     Davidson diagonalization with overlap
     ethr =  3.44E-07,  avg # of iterations =  2.0

     negative rho (up, down):  5.271E-01 5.271E-01

     total cpu time spent up to now is      534.9 secs

     total energy              =   -2069.56146366 Ry
     estimated scf accuracy    <       0.00076160 Ry

     total magnetization       =     0.02 Bohr mag/cell
     absolute magnetization    =     0.02 Bohr mag/cell

     iteration # 24     ecut=   120.00 Ry     beta= 0.70
     Davidson diagonalization with overlap
     ethr =  3.44E-07,  avg # of iterations =  2.0

     negative rho (up, down):  5.271E-01 5.271E-01

     total cpu time spent up to now is      556.4 secs

     total energy              =   -2069.56163044 Ry
     estimated scf accuracy    <       0.00058241 Ry

     total magnetization       =    -0.05 Bohr mag/cell
     absolute magnetization    =     0.05 Bohr mag/cell

     iteration # 25     ecut=   120.00 Ry     beta= 0.70
     Davidson diagonalization with overlap
     ethr =  2.90E-07,  avg # of iterations =  2.0

     negative rho (up, down):  5.271E-01 5.271E-01

     total cpu time spent up to now is      577.8 secs

     total energy              =   -2069.56163929 Ry
     estimated scf accuracy    <       0.00033031 Ry

     total magnetization       =    -0.06 Bohr mag/cell
     absolute magnetization    =     0.06 Bohr mag/cell

     iteration # 26     ecut=   120.00 Ry     beta= 0.70
     Davidson diagonalization with overlap
     ethr =  1.64E-07,  avg # of iterations =  1.0

     negative rho (up, down):  5.270E-01 5.270E-01

     total cpu time spent up to now is      597.8 secs

     total energy              =   -2069.56163772 Ry
     estimated scf accuracy    <       0.00014208 Ry

     total magnetization       =    -0.05 Bohr mag/cell
     absolute magnetization    =     0.05 Bohr mag/cell

     iteration # 27     ecut=   120.00 Ry     beta= 0.70
     Davidson diagonalization with overlap
     ethr =  7.07E-08,  avg # of iterations =  2.5

     negative rho (up, down):  5.271E-01 5.271E-01

     Magnetic moment per site  (integrated on atomic sphere of radius R)
     atom   1 (R=0.144)  charge=  9.4307  magn=  0.0000
     atom   2 (R=0.141)  charge= 10.4123  magn= -0.0000
     atom   3 (R=0.146)  charge= 10.3490  magn= -0.0000
     atom   4 (R=0.141)  charge=  9.3939  magn=  0.0000
     atom   5 (R=0.144)  charge=  9.4305  magn=  0.0000
     atom   6 (R=0.141)  charge= 10.4129  magn= -0.0000
     atom   7 (R=0.146)  charge= 10.3490  magn=  0.0000
     atom   8 (R=0.141)  charge=  9.3938  magn= -0.0000
     atom   9 (R=0.144)  charge=  9.4306  magn=  0.0000
     atom  10 (R=0.141)  charge= 10.4132  magn=  0.0000
     atom  11 (R=0.146)  charge= 10.3490  magn=  0.0000
     atom  12 (R=0.141)  charge=  9.3937  magn=  0.0000
     atom  13 (R=0.144)  charge=  9.4304  magn=  0.0000
     atom  14 (R=0.141)  charge= 10.4141  magn= -0.0000
     atom  15 (R=0.146)  charge= 10.3485  magn= -0.0000
     atom  16 (R=0.141)  charge=  9.3937  magn= -0.0000
     atom  17 (R=0.288)  charge=  1.1619  magn= -0.0031

     total cpu time spent up to now is      619.4 secs

     End of self-consistent calculation

 ------ SPIN UP ------------


          k = 0.0000 0.0000 0.0000 ( 56136 PWs)   bands (ev):

   -63.4676 -63.4636 -63.4634 -63.4602 -56.7919 -56.7868 -56.7827 -56.7793
   -50.0577 -50.0460 -50.0425 -50.0389 -43.5135 -43.4973 -43.4952 -43.4827
   -30.6491 -30.6352 -30.4816 -30.4616 -30.3636 -30.3615 -30.3274 -30.3076
   -30.1074 -30.0769 -30.0601 -30.0589 -27.1975 -26.9628 -26.8614 -26.7864
   -26.7267 -26.7199 -26.6416 -26.6333 -26.5296 -26.5245 -26.4798 -26.2960
   -26.2402 -25.9301 -25.8433 -25.8426 -25.6140 -25.5241 -25.3741 -25.3659
   -25.3420 -25.3365 -25.2478 -25.2344 -22.0388 -21.9490 -21.8765 -21.8585
   -21.6730 -21.6327 -21.5817 -21.5752 -21.5334 -21.4676 -21.4347 -21.3699
    -1.9375  -1.2600  -0.7194  -0.5951  -0.4917  -0.3876   0.0960   0.6243
     0.9074   1.0128   1.0344   1.0346   1.1018   1.1201   1.4088   1.7784
     1.7935   1.9323   2.0057   2.0710   2.1326   2.5132   2.7136   2.8467
     2.9512   3.1020   3.1334   3.1591   3.1879   3.2299   3.3842   3.4073
     3.6164   3.6600   3.8103   3.8166   3.9199   4.0090   4.3709   4.3715
     4.7458   4.8445   4.8727   5.0549   5.0996   5.1758   5.1824   5.3703
     5.5215   5.8180   6.0317   6.1264   6.1645   6.1668   6.2549   6.2619
     6.3071

 ------ SPIN DOWN ----------


          k = 0.0000 0.0000 0.0000 ( 56136 PWs)   bands (ev):

   -63.4677 -63.4636 -63.4634 -63.4602 -56.7919 -56.7867 -56.7827 -56.7793
   -50.0577 -50.0461 -50.0426 -50.0389 -43.5135 -43.4973 -43.4952 -43.4827
   -30.6491 -30.6352 -30.4816 -30.4616 -30.3636 -30.3615 -30.3274 -30.3076
   -30.1075 -30.0769 -30.0602 -30.0590 -27.1975 -26.9628 -26.8614 -26.7864
   -26.7267 -26.7200 -26.6416 -26.6333 -26.5296 -26.5245 -26.4798 -26.2960
   -26.2401 -25.9301 -25.8433 -25.8426 -25.6140 -25.5241 -25.3741 -25.3659
   -25.3420 -25.3365 -25.2478 -25.2344 -22.0388 -21.9490 -21.8765 -21.8585
   -21.6730 -21.6327 -21.5818 -21.5752 -21.5334 -21.4676 -21.4347 -21.3699
    -1.9375  -1.2600  -0.7194  -0.5951  -0.4917  -0.3876   0.0960   0.6243
     0.9075   1.0128   1.0345   1.0346   1.1018   1.1201   1.4088   1.7784
     1.7936   1.9323   2.0056   2.0710   2.1326   2.5132   2.7136   2.8467
     2.9513   3.1021   3.1334   3.1591   3.1879   3.2299   3.3842   3.4073
     3.6164   3.6599   3.8103   3.8166   3.9182   4.0090   4.3709   4.3715
     4.7458   4.8445   4.8727   5.0548   5.0995   5.1758   5.1824   5.3703
     5.5216   5.8180   6.0316   6.1265   6.1645   6.1668   6.2549   6.2618
     6.3070

     the Fermi energy is     3.9707 ev

!    total energy              =   -2069.56166829 Ry
     estimated scf accuracy    <       0.00001852 Ry
     smearing contrib. (-TS)   =      -0.05522550 Ry
     internal energy E=F+TS    =   -2069.50644280 Ry

     total magnetization       =    -0.00 Bohr mag/cell
     absolute magnetization    =     0.00 Bohr mag/cell

     convergence has been achieved in  27 iterations

     negative rho (up, down):  5.271E-01 5.271E-01

     Forces acting on atoms (cartesian axes, Ry/au):

     atom    1 type  1   force =     0.00003262   -0.00001339   -0.33688179
     atom    2 type  2   force =     0.00002191    0.00006975    0.43530969
     atom    3 type  3   force =    -0.00068852   -0.00029038    0.29250267
     atom    4 type  4   force =     0.00033017    0.00006265   -0.39044880
     atom    5 type  1   force =     0.00008773    0.00011401   -0.33717208
     atom    6 type  2   force =    -0.00003321   -0.00002343    0.43531790
     atom    7 type  3   force =    -0.00077489    0.00024584    0.29325045
     atom    8 type  4   force =     0.00042554   -0.00021161   -0.39019233
     atom    9 type  1   force =     0.00009105   -0.00011126   -0.33798684
     atom   10 type  2   force =     0.00004214   -0.00010333    0.43565102
     atom   11 type  3   force =     0.00065277   -0.00032837    0.29257702
     atom   12 type  4   force =    -0.00045024    0.00002813   -0.39052305
     atom   13 type  1   force =     0.00002113    0.00025266   -0.33850919
     atom   14 type  2   force =     0.00009528    0.00021667    0.43527399
     atom   15 type  3   force =     0.00069350    0.00027999    0.29396308
     atom   16 type  4   force =    -0.00055269   -0.00016374   -0.39023952
     atom   17 type  5   force =     0.00000572   -0.00002418   -0.00189221
     The non-local contrib.  to forces
     atom    1 type  1   force =    -0.00019347   -0.00042895   -0.25672658
     atom    2 type  2   force =     0.00023617    0.00001630   -0.24069713
     atom    3 type  3   force =     0.00010971    0.00032201    0.24742872
     atom    4 type  4   force =    -0.00048315    0.00007899    0.04542659
     atom    5 type  1   force =    -0.00019299   -0.00047642   -0.25688271
     atom    6 type  2   force =     0.00026006    0.00021191   -0.24111336
     atom    7 type  3   force =     0.00098307    0.00007882    0.24934734
     atom    8 type  4   force =    -0.00027350   -0.00000297    0.04594056
     atom    9 type  1   force =    -0.00021989   -0.00030333   -0.25774185
     atom   10 type  2   force =    -0.00001918    0.00044448   -0.23879410
     atom   11 type  3   force =    -0.00063596    0.00048293    0.24822560
     atom   12 type  4   force =     0.00059212    0.00011309    0.04564943
     atom   13 type  1   force =    -0.00028335   -0.00043596   -0.25716519
     atom   14 type  2   force =    -0.00006970   -0.00018113   -0.23974756
     atom   15 type  3   force =    -0.00153690   -0.00008606    0.25055510
     atom   16 type  4   force =     0.00041728   -0.00003319    0.04588279
     atom   17 type  5   force =     0.00001277    0.00000473   -0.00046416
     The ionic contribution  to forces
     atom    1 type  1   force =     0.00410245    0.00147298  -58.11595899
     atom    2 type  2   force =     0.00295107   -0.01236368   53.45408500
     atom    3 type  3   force =    -0.06491681   -0.01673419   59.79650185
     atom    4 type  4   force =    -0.01055954   -0.00865059  -55.59213528
     atom    5 type  1   force =     0.00593680    0.00557057  -58.11787113
     atom    6 type  2   force =     0.00136001    0.01942284   53.46226385
     atom    7 type  3   force =    -0.07559093    0.00892010   59.75566448
     atom    8 type  4   force =    -0.01124488    0.00237848  -55.59520262
     atom    9 type  1   force =     0.00034452    0.00210362  -58.16244399
     atom   10 type  2   force =    -0.00979102   -0.02211579   53.40067655
     atom   11 type  3   force =     0.07042643   -0.01839496   59.78383870
     atom   12 type  4   force =     0.00708177   -0.01045034  -55.59670431
     atom   13 type  1   force =    -0.00148533    0.00486657  -58.16538494
     atom   14 type  2   force =    -0.00791137    0.02851991   53.42609470
     atom   15 type  3   force =     0.08181930    0.01136481   59.73338156
     atom   16 type  4   force =     0.00768822    0.00428857  -55.59953246
     atom   17 type  5   force =    -0.00021070   -0.00019889    2.13272702
     The local contribution  to forces
     atom    1 type  1   force =    -0.00399800   -0.00157576   58.05236364
     atom    2 type  2   force =    -0.00321929    0.01240573  -52.81004179
     atom    3 type  3   force =     0.06385703    0.01474655  -59.79480478
     atom    4 type  4   force =     0.01112862    0.00871565   55.16464654
     atom    5 type  1   force =    -0.00564590   -0.00435916   58.05405972
     atom    6 type  2   force =    -0.00171810   -0.01964844  -52.81748588
     atom    7 type  3   force =     0.07367330   -0.00740319  -59.75523926
     atom    8 type  4   force =     0.01181697   -0.00268766   55.16844574
     atom    9 type  1   force =     0.00011123   -0.00257639   58.09840054
     atom   10 type  2   force =     0.00987901    0.02167288  -52.75830030
     atom   11 type  3   force =    -0.06880975    0.01619471  -59.78301005
     atom   12 type  4   force =    -0.00785323    0.01031770   55.16895318
     atom   13 type  1   force =     0.00180819   -0.00346333   58.10031316
     atom   14 type  2   force =     0.00810589   -0.02821344  -52.78286285
     atom   15 type  3   force =    -0.07936528   -0.00964651  -59.73337856
     atom   16 type  4   force =    -0.00849982   -0.00440192   55.17275771
     atom   17 type  5   force =     0.00020594    0.00017390   -2.13477078
     The core correction contribution to forces
     atom    1 type  1   force =     0.00000687   -0.00003877   -0.01837859
     atom    2 type  2   force =    -0.00001119   -0.00000173    0.02242233
     atom    3 type  3   force =    -0.00014213    0.00001579    0.03453946
     atom    4 type  4   force =     0.00003397   -0.00000138   -0.01147515
     atom    5 type  1   force =     0.00000522   -0.00004771   -0.01837651
     atom    6 type  2   force =    -0.00000948   -0.00001257    0.02243770
     atom    7 type  3   force =    -0.00014738    0.00002126    0.03460335
     atom    8 type  4   force =     0.00002204    0.00000532   -0.01149252
     atom    9 type  1   force =    -0.00002594    0.00001644   -0.01828659
     atom   10 type  2   force =     0.00000773   -0.00001066    0.02237665
     atom   11 type  3   force =     0.00010023    0.00002103    0.03457638
     atom   12 type  4   force =    -0.00003349   -0.00000403   -0.01148888
     atom   13 type  1   force =    -0.00004059   -0.00004953   -0.01838058
     atom   14 type  2   force =     0.00000765   -0.00000500    0.02239363
     atom   15 type  3   force =     0.00011357    0.00002211    0.03462649
     atom   16 type  4   force =    -0.00002350    0.00000783   -0.01149233
     atom   17 type  5   force =     0.00000000    0.00000000    0.00000000
     The Hubbard contrib.    to forces
     atom    1 type  1   force =     0.00000000    0.00000000    0.00000000
     atom    2 type  2   force =     0.00000000    0.00000000    0.00000000
     atom    3 type  3   force =     0.00000000    0.00000000    0.00000000
     atom    4 type  4   force =     0.00000000    0.00000000    0.00000000
     atom    5 type  1   force =     0.00000000    0.00000000    0.00000000
     atom    6 type  2   force =     0.00000000    0.00000000    0.00000000
     atom    7 type  3   force =     0.00000000    0.00000000    0.00000000
     atom    8 type  4   force =     0.00000000    0.00000000    0.00000000
     atom    9 type  1   force =     0.00000000    0.00000000    0.00000000
     atom   10 type  2   force =     0.00000000    0.00000000    0.00000000
     atom   11 type  3   force =     0.00000000    0.00000000    0.00000000
     atom   12 type  4   force =     0.00000000    0.00000000    0.00000000
     atom   13 type  1   force =     0.00000000    0.00000000    0.00000000
     atom   14 type  2   force =     0.00000000    0.00000000    0.00000000
     atom   15 type  3   force =     0.00000000    0.00000000    0.00000000
     atom   16 type  4   force =     0.00000000    0.00000000    0.00000000
     atom   17 type  5   force =     0.00000000    0.00000000    0.00000000
     The SCF correction term to forces
     atom    1 type  1   force =     0.00000000    0.00000000    0.00000000
     atom    2 type  2   force =     0.00000000    0.00000000    0.00000000
     atom    3 type  3   force =     0.00000000    0.00000000    0.00000000
     atom    4 type  4   force =     0.00000000   -0.00000000    0.00000000
     atom    5 type  1   force =    -0.00000000   -0.00000000    0.00000000
     atom    6 type  2   force =     0.00000000    0.00000000    0.00000000
     atom    7 type  3   force =     0.00000000   -0.00000000    0.00000000
     atom    8 type  4   force =     0.00000000    0.00000000    0.00000000
     atom    9 type  1   force =    -0.00000000    0.00000000    0.00000000
     atom   10 type  2   force =    -0.00000000   -0.00000000    0.00000000
     atom   11 type  3   force =    -0.00000000    0.00000000    0.00000000
     atom   12 type  4   force =    -0.00000000    0.00000000    0.00000000
     atom   13 type  1   force =     0.00000000   -0.00000000    0.00000000
     atom   14 type  2   force =    -0.00000000    0.00000000    0.00000000
     atom   15 type  3   force =    -0.00000000   -0.00000000    0.00000000
     atom   16 type  4   force =    -0.00000000   -0.00000000    0.00000000
     atom   17 type  5   force =    -0.00000057   -0.00000435    0.00006440

     Total force =     0.001892     Total SCF correction =     0.000065

     Molecular Dynamics Calculation

     Starting temperature  =   300.00 K

     temperature is set once at start

     mass Hf               =   178.49
     mass Nb               =    92.91
     mass Ta               =   180.95
     mass Zr               =    91.22
     mass H                =     2.01
     Time step             =     2.10 a.u.,  0.1016 femto-seconds

     Entering Dynamics:    iteration =     1
                           time      =   0.0001 pico-seconds


ATOMIC_POSITIONS (angstrom)
Hf            0.9173507110        0.9173135972        6.0002837354    0   0   0
Nb            0.9176900085        2.7523320100        7.7799550803    0   0   0
Ta            2.7538208285        0.9176860149        7.9177084703    0   0   0
Zr            2.7522059512        2.7526418480        6.0659757673    0   0   0
Hf            0.9173105916        4.5873364617        6.0002711019    0   0   0
Nb            0.9176950052        6.4223291151        7.7797918918    0   0   0
Ta            2.7538243094        4.5876680102        7.9176812404    0   0   0
Zr            2.7522395759        6.4227147098        6.0658425039    0   0   0
Hf            4.5873495791        0.9172816749        6.0000109568    0   0   0
Nb            4.5876207816        2.7523359852        7.7804388155    0   0   0
Ta            6.4210161579        0.9176597836        7.9177312144    0   0   0
Zr            6.4229515852        2.7526427058        6.0658048318    0   0   0
Hf            4.5873841500        4.5873764414        6.0000000000    0   0   0
Nb            4.5876157176        6.4223321265        7.7803118750    0   0   0
Ta            6.4210034632        4.5876595310        7.9177105287    0   0   0
Zr            6.4229215841        6.4226899848        6.0656737289    0   0   0
H             5.0000000036        3.9999999846       12.7727615170


     kinetic energy (Ekin) =           0.55137389 Ry
     temperature           =       58036.70163102 K 
     Ekin + Etot (const)   =       -2069.01029440 Ry

     File ./pwscf.msd.dat deleted, as requested

     Writing config-only to output data dir ./pwscf.save/
     NEW-OLD atomic charge density approx. for the potential

     Check: negative core charge=   -0.000002

     negative rho (up, down):  5.271E-01 5.271E-01
     Generating pointlists ...

     total cpu time spent up to now is      635.4 secs

     Self-consistent Calculation

     iteration #  1     ecut=   120.00 Ry     beta= 0.70
     Davidson diagonalization with overlap
     ethr =  1.00E-06,  avg # of iterations =  4.0

     negative rho (up, down):  5.270E-01 5.270E-01

     total cpu time spent up to now is      661.5 secs

     total energy              =   -2069.56014506 Ry
     estimated scf accuracy    <       0.01068191 Ry

     total magnetization       =    -0.02 Bohr mag/cell
     absolute magnetization    =     0.02 Bohr mag/cell

     iteration #  2     ecut=   120.00 Ry     beta= 0.70
     Davidson diagonalization with overlap
     ethr =  5.31E-06,  avg # of iterations =  2.0

     negative rho (up, down):  5.271E-01 5.271E-01

     total cpu time spent up to now is      683.0 secs

     total energy              =   -2069.55788234 Ry
     estimated scf accuracy    <       0.15005752 Ry

     total magnetization       =    -0.06 Bohr mag/cell
     absolute magnetization    =     0.06 Bohr mag/cell

     iteration #  3     ecut=   120.00 Ry     beta= 0.70
     Davidson diagonalization with overlap
     ethr =  5.31E-06,  avg # of iterations =  2.0

     negative rho (up, down):  5.271E-01 5.271E-01

     total cpu time spent up to now is      704.3 secs

     total energy              =   -2069.56216971 Ry
     estimated scf accuracy    <       0.00190367 Ry

     total magnetization       =    -0.10 Bohr mag/cell
     absolute magnetization    =     0.10 Bohr mag/cell

     iteration #  4     ecut=   120.00 Ry     beta= 0.70
     Davidson diagonalization with overlap
     ethr =  9.47E-07,  avg # of iterations =  2.0

     negative rho (up, down):  5.271E-01 5.271E-01

     total cpu time spent up to now is      726.0 secs

     total energy              =   -2069.56155339 Ry
     estimated scf accuracy    <       0.00074410 Ry

     total magnetization       =    -0.34 Bohr mag/cell
     absolute magnetization    =     0.34 Bohr mag/cell

     iteration #  5     ecut=   120.00 Ry     beta= 0.70
     Davidson diagonalization with overlap
     ethr =  3.70E-07,  avg # of iterations =  2.0

     negative rho (up, down):  5.271E-01 5.271E-01

     total cpu time spent up to now is      747.9 secs

     total energy              =   -2069.56164170 Ry
     estimated scf accuracy    <       0.00045420 Ry

     total magnetization       =    -0.14 Bohr mag/cell
     absolute magnetization    =     0.14 Bohr mag/cell

     iteration #  6     ecut=   120.00 Ry     beta= 0.70
     Davidson diagonalization with overlap
     ethr =  2.26E-07,  avg # of iterations =  2.5

     negative rho (up, down):  5.271E-01 5.271E-01

     total cpu time spent up to now is      769.9 secs

     total energy              =   -2069.56180857 Ry
     estimated scf accuracy    <       0.00017232 Ry

     total magnetization       =    -0.01 Bohr mag/cell
     absolute magnetization    =     0.01 Bohr mag/cell

     iteration #  7     ecut=   120.00 Ry     beta= 0.70
     Davidson diagonalization with overlap
     ethr =  8.57E-08,  avg # of iterations =  1.0

     negative rho (up, down):  5.271E-01 5.271E-01

     Magnetic moment per site  (integrated on atomic sphere of radius R)
     atom   1 (R=0.144)  charge=  9.4296  magn=  0.0000
     atom   2 (R=0.141)  charge= 10.4125  magn= -0.0000
     atom   3 (R=0.146)  charge= 10.3496  magn= -0.0000
     atom   4 (R=0.141)  charge=  9.3927  magn=  0.0000
     atom   5 (R=0.144)  charge=  9.4295  magn=  0.0000
     atom   6 (R=0.141)  charge= 10.4126  magn=  0.0000
     atom   7 (R=0.146)  charge= 10.3496  magn=  0.0000
     atom   8 (R=0.141)  charge=  9.3926  magn=  0.0000
     atom   9 (R=0.144)  charge=  9.4295  magn=  0.0000
     atom  10 (R=0.141)  charge= 10.4135  magn=  0.0000
     atom  11 (R=0.146)  charge= 10.3496  magn=  0.0000
     atom  12 (R=0.141)  charge=  9.3925  magn= -0.0000
     atom  13 (R=0.144)  charge=  9.4293  magn= -0.0000
     atom  14 (R=0.141)  charge= 10.4138  magn= -0.0000
     atom  15 (R=0.146)  charge= 10.3492  magn=  0.0000
     atom  16 (R=0.141)  charge=  9.3924  magn=  0.0000
     atom  17 (R=0.288)  charge=  1.1733  magn= -0.0055

     total cpu time spent up to now is      790.6 secs

     End of self-consistent calculation

 ------ SPIN UP ------------


          k = 0.0000 0.0000 0.0000 ( 56136 PWs)   bands (ev):

   -63.4614 -63.4573 -63.4570 -63.4539 -56.7810 -56.7757 -56.7717 -56.7683
   -50.0491 -50.0375 -50.0340 -50.0305 -43.5017 -43.4855 -43.4834 -43.4708
   -30.6420 -30.6283 -30.4747 -30.4546 -30.3568 -30.3546 -30.3206 -30.3007
   -30.1006 -30.0701 -30.0534 -30.0522 -27.1875 -26.9535 -26.8519 -26.7768
   -26.7170 -26.7111 -26.6324 -26.6245 -26.5204 -26.5153 -26.4706 -26.2874
   -26.2293 -25.9197 -25.8323 -25.8317 -25.6040 -25.5137 -25.3643 -25.3558
   -25.3316 -25.3260 -25.2374 -25.2239 -22.0272 -21.9373 -21.8649 -21.8469
   -21.6612 -21.6209 -21.5700 -21.5635 -21.5218 -21.4560 -21.4231 -21.3583
    -1.9281  -1.2506  -0.7091  -0.5842  -0.4822  -0.3779   0.1059   0.6338
     0.9166   1.0227   1.0439   1.0444   1.1106   1.1297   1.4185   1.7884
     1.8032   1.9425   2.0154   2.0807   2.1424   2.5233   2.7235   2.8568
     2.9616   3.1111   3.1426   3.1688   3.1948   3.2400   3.3937   3.4171
     3.6258   3.6696   3.8202   3.8261   3.9271   4.0196   4.3790   4.3797
     4.7545   4.8539   4.8824   5.0644   5.1083   5.1848   5.1914   5.3798
     5.5301   5.8282   6.0397   6.1346   6.1733   6.1767   6.2644   6.2707
     6.3164

 ------ SPIN DOWN ----------


          k = 0.0000 0.0000 0.0000 ( 56136 PWs)   bands (ev):

   -63.4614 -63.4573 -63.4570 -63.4539 -56.7809 -56.7757 -56.7717 -56.7683
   -50.0491 -50.0375 -50.0340 -50.0305 -43.5017 -43.4855 -43.4834 -43.4708
   -30.6420 -30.6283 -30.4747 -30.4546 -30.3568 -30.3546 -30.3206 -30.3007
   -30.1006 -30.0701 -30.0533 -30.0522 -27.1875 -26.9535 -26.8519 -26.7768
   -26.7170 -26.7111 -26.6324 -26.6245 -26.5204 -26.5153 -26.4706 -26.2874
   -26.2293 -25.9197 -25.8323 -25.8317 -25.6040 -25.5137 -25.3643 -25.3558
   -25.3316 -25.3260 -25.2374 -25.2239 -22.0272 -21.9373 -21.8649 -21.8469
   -21.6612 -21.6209 -21.5700 -21.5635 -21.5218 -21.4560 -21.4231 -21.3583
    -1.9281  -1.2506  -0.7091  -0.5842  -0.4822  -0.3779   0.1060   0.6338
     0.9166   1.0227   1.0439   1.0444   1.1106   1.1297   1.4185   1.7884
     1.8033   1.9425   2.0154   2.0807   2.1424   2.5233   2.7235   2.8568
     2.9616   3.1111   3.1426   3.1688   3.1948   3.2400   3.3937   3.4171
     3.6258   3.6696   3.8201   3.8260   3.9241   4.0196   4.3790   4.3797
     4.7544   4.8539   4.8824   5.0644   5.1083   5.1848   5.1914   5.3798
     5.5301   5.8282   6.0397   6.1346   6.1733   6.1767   6.2644   6.2707
     6.3164

     the Fermi energy is     3.9797 ev

!    total energy              =   -2069.56176918 Ry
     estimated scf accuracy    <       0.00005263 Ry
     smearing contrib. (-TS)   =      -0.05527897 Ry
     internal energy E=F+TS    =   -2069.50649021 Ry

     total magnetization       =    -0.01 Bohr mag/cell
     absolute magnetization    =     0.01 Bohr mag/cell

     convergence has been achieved in   7 iterations

     negative rho (up, down):  5.271E-01 5.271E-01

     Forces acting on atoms (cartesian axes, Ry/au):

     atom    1 type  1   force =     0.00005220    0.00012393   -0.33693473
     atom    2 type  2   force =     0.00002469    0.00008126    0.43456657
     atom    3 type  3   force =    -0.00065009   -0.00015764    0.29352876
     atom    4 type  4   force =     0.00032283    0.00007518   -0.39042044
     atom    5 type  1   force =     0.00007346   -0.00002569   -0.33718181
     atom    6 type  2   force =    -0.00003944   -0.00003394    0.43454940
     atom    7 type  3   force =    -0.00075200    0.00010278    0.29436363
     atom    8 type  4   force =     0.00042573   -0.00022320   -0.39023729
     atom    9 type  1   force =     0.00007136    0.00005190   -0.33800695
     atom   10 type  2   force =     0.00004914   -0.00011130    0.43498607
     atom   11 type  3   force =     0.00061666   -0.00019457    0.29361510
     atom   12 type  4   force =    -0.00044324    0.00005234   -0.39049589
     atom   13 type  1   force =     0.00003712    0.00009812   -0.33852762
     atom   14 type  2   force =     0.00010598    0.00023073    0.43448913
     atom   15 type  3   force =     0.00065918    0.00013706    0.29510129
     atom   16 type  4   force =    -0.00056113   -0.00018051   -0.39027161
     atom   17 type  5   force =     0.00000754   -0.00002647   -0.00312360
     The non-local contrib.  to forces
     atom    1 type  1   force =    -0.00017982   -0.00040495   -0.25625990
     atom    2 type  2   force =     0.00023955    0.00000551   -0.24088055
     atom    3 type  3   force =     0.00013467    0.00040120    0.24964983
     atom    4 type  4   force =    -0.00050224    0.00008823    0.04587208
     atom    5 type  1   force =    -0.00020834   -0.00051602   -0.25641545
     atom    6 type  2   force =     0.00026682    0.00022521   -0.24123050
     atom    7 type  3   force =     0.00107815   -0.00002475    0.25175622
     atom    8 type  4   force =    -0.00029371   -0.00000764    0.04634701
     atom    9 type  1   force =    -0.00023747   -0.00024162   -0.25735663
     atom   10 type  2   force =    -0.00001919    0.00047473   -0.23883968
     atom   11 type  3   force =    -0.00067442    0.00057958    0.25050797
     atom   12 type  4   force =     0.00061261    0.00013700    0.04610555
     atom   13 type  1   force =    -0.00027074   -0.00049828   -0.25675366
     atom   14 type  2   force =    -0.00007170   -0.00020498   -0.23979752
     atom   15 type  3   force =    -0.00166031   -0.00020203    0.25300483
     atom   16 type  4   force =     0.00043889   -0.00005647    0.04628054
     atom   17 type  5   force =     0.00001258    0.00000396   -0.00048462
     The ionic contribution  to forces
     atom    1 type  1   force =     0.00411003    0.00146260  -58.11871868
     atom    2 type  2   force =     0.00314983   -0.01268202   53.45112497
     atom    3 type  3   force =    -0.06529694   -0.01697210   59.79385137
     atom    4 type  4   force =    -0.01059987   -0.00868201  -55.59522013
     atom    5 type  1   force =     0.00594830    0.00558120  -58.12089050
     atom    6 type  2   force =     0.00150436    0.01973202   53.45961796
     atom    7 type  3   force =    -0.07631130    0.00918032   59.75211749
     atom    8 type  4   force =    -0.01127685    0.00240933  -55.59811746
     atom    9 type  1   force =     0.00033675    0.00208740  -58.16548689
     atom   10 type  2   force =    -0.01001557   -0.02275290   53.39643115
     atom   11 type  3   force =     0.07081555   -0.01869714   59.78093465
     atom   12 type  4   force =     0.00712275   -0.01048755  -55.59993823
     atom   13 type  1   force =    -0.00149737    0.00488355  -58.16884001
     atom   14 type  2   force =    -0.00806788    0.02911320   53.42263965
     atom   15 type  3   force =     0.08258064    0.01170579   59.72920576
     atom   16 type  4   force =     0.00772056    0.00432495  -55.60256487
     atom   17 type  5   force =    -0.00022297   -0.00020664    2.18385378
     The local contribution  to forces
     atom    1 type  1   force =    -0.00393784   -0.00111814   58.05867324
     atom    2 type  2   force =    -0.00346884    0.01298877  -52.79021139
     atom    3 type  3   force =     0.06439468    0.01589621  -59.77670036
     atom    4 type  4   force =     0.01118569    0.00883103   55.17295484
     atom    5 type  1   force =    -0.00567432   -0.00481589   58.06079586
     atom    6 type  2   force =    -0.00191218   -0.02022417  -52.79848730
     atom    7 type  3   force =     0.07452245   -0.00857651  -59.73592814
     atom    8 type  4   force =     0.01182116   -0.00279216   55.17607560
     atom    9 type  1   force =     0.00005173   -0.00208615   58.10506583
     atom   10 type  2   force =     0.01019551    0.02255593  -52.73657455
     atom   11 type  3   force =    -0.06936845    0.01741370  -59.76446674
     atom   12 type  4   force =    -0.00794064    0.01051365   55.17741423
     atom   13 type  1   force =     0.00184799   -0.00396770   58.10748033
     atom   14 type  2   force =     0.00834864   -0.02904261  -52.76258068
     atom   15 type  3   force =    -0.08027568   -0.01090660  -59.71327051
     atom   16 type  4   force =    -0.00854403   -0.00456332   55.18058841
     atom   17 type  5   force =     0.00021824    0.00017500   -2.18621756
     The core correction contribution to forces
     atom    1 type  1   force =     0.00000666   -0.00004166   -0.01834490
     atom    2 type  2   force =    -0.00001081   -0.00000106    0.02245126
     atom    3 type  3   force =    -0.00014037    0.00001246    0.03457443
     atom    4 type  4   force =     0.00003540   -0.00000081   -0.01144477
     atom    5 type  1   force =     0.00000512   -0.00004433   -0.01834292
     atom    6 type  2   force =    -0.00000964   -0.00001325    0.02245223
     atom    7 type  3   force =    -0.00014633    0.00002516    0.03464192
     atom    8 type  4   force =     0.00002303    0.00000489   -0.01146039
     atom    9 type  1   force =    -0.00002693    0.00001860   -0.01824792
     atom   10 type  2   force =     0.00000743   -0.00001122    0.02240175
     atom   11 type  3   force =     0.00009874    0.00001829    0.03460770
     atom   12 type  4   force =    -0.00003531   -0.00000420   -0.01146018
     atom   13 type  1   force =    -0.00003976   -0.00004957   -0.01835386
     atom   14 type  2   force =     0.00000744   -0.00000442    0.02240881
     atom   15 type  3   force =     0.00011190    0.00002519    0.03465845
     atom   16 type  4   force =    -0.00002529    0.00000869   -0.01145962
     atom   17 type  5   force =     0.00000000    0.00000000    0.00000000
     The Hubbard contrib.    to forces
     atom    1 type  1   force =     0.00000000    0.00000000    0.00000000
     atom    2 type  2   force =     0.00000000    0.00000000    0.00000000
     atom    3 type  3   force =     0.00000000    0.00000000    0.00000000
     atom    4 type  4   force =     0.00000000    0.00000000    0.00000000
     atom    5 type  1   force =     0.00000000    0.00000000    0.00000000
     atom    6 type  2   force =     0.00000000    0.00000000    0.00000000
     atom    7 type  3   force =     0.00000000    0.00000000    0.00000000
     atom    8 type  4   force =     0.00000000    0.00000000    0.00000000
     atom    9 type  1   force =     0.00000000    0.00000000    0.00000000
     atom   10 type  2   force =     0.00000000    0.00000000    0.00000000
     atom   11 type  3   force =     0.00000000    0.00000000    0.00000000
     atom   12 type  4   force =     0.00000000    0.00000000    0.00000000
     atom   13 type  1   force =     0.00000000    0.00000000    0.00000000
     atom   14 type  2   force =     0.00000000    0.00000000    0.00000000
     atom   15 type  3   force =     0.00000000    0.00000000    0.00000000
     atom   16 type  4   force =     0.00000000    0.00000000    0.00000000
     atom   17 type  5   force =     0.00000000    0.00000000    0.00000000
     The SCF correction term to forces
     atom    1 type  1   force =     0.00000000    0.00000000   -0.00000000
     atom    2 type  2   force =     0.00000000   -0.00000000   -0.00000000
     atom    3 type  3   force =     0.00000000    0.00000000   -0.00000000
     atom    4 type  4   force =     0.00000000   -0.00000000   -0.00000000
     atom    5 type  1   force =     0.00000000   -0.00000000   -0.00000000
     atom    6 type  2   force =     0.00000000    0.00000000   -0.00000000
     atom    7 type  3   force =     0.00000000   -0.00000000   -0.00000000
     atom    8 type  4   force =     0.00000000    0.00000000   -0.00000000
     atom    9 type  1   force =    -0.00000000    0.00000000   -0.00000000
     atom   10 type  2   force =    -0.00000000   -0.00000000   -0.00000000
     atom   11 type  3   force =    -0.00000000    0.00000000   -0.00000000
     atom   12 type  4   force =    -0.00000000   -0.00000000   -0.00000000
     atom   13 type  1   force =    -0.00000000   -0.00000000   -0.00000000
     atom   14 type  2   force =    -0.00000000    0.00000000   -0.00000000
     atom   15 type  3   force =    -0.00000000   -0.00000000   -0.00000000
     atom   16 type  4   force =    -0.00000000    0.00000000   -0.00000000
     atom   17 type  5   force =    -0.00000054    0.00000102    0.00026538

     Total force =     0.003124     Total SCF correction =     0.000265

     Entering Dynamics:    iteration =     2
                           time      =   0.0002 pico-seconds


ATOMIC_POSITIONS (angstrom)
Hf            0.9173507110        0.9173135972        6.0002837354    0   0   0
Nb            0.9176900085        2.7523320100        7.7799550803    0   0   0
Ta            2.7538208285        0.9176860149        7.9177084703    0   0   0
Zr            2.7522059512        2.7526418480        6.0659757673    0   0   0
Hf            0.9173105916        4.5873364617        6.0002711019    0   0   0
Nb            0.9176950052        6.4223291151        7.7797918918    0   0   0
Ta            2.7538243094        4.5876680102        7.9176812404    0   0   0
Zr            2.7522395759        6.4227147098        6.0658425039    0   0   0
Hf            4.5873495791        0.9172816749        6.0000109568    0   0   0
Nb            4.5876207816        2.7523359852        7.7804388155    0   0   0
Ta            6.4210161579        0.9176597836        7.9177312144    0   0   0
Zr            6.4229515852        2.7526427058        6.0658048318    0   0   0
Hf            4.5873841500        4.5873764414        6.0000000000    0   0   0
Nb            4.5876157176        6.4223321265        7.7803118750    0   0   0
Ta            6.4210034632        4.5876595310        7.9177105287    0   0   0
Zr            6.4229215841        6.4226899848        6.0656737289    0   0   0
H             5.0000000169        3.9999999356       12.7455190629


     kinetic energy (Ekin) =           0.55150299 Ry
     temperature           =       58050.28962796 K 
     Ekin + Etot (const)   =       -2069.01026620 Ry

     Writing config-only to output data dir ./pwscf.save/
     NEW-OLD atomic charge density approx. for the potential

     Check: negative core charge=   -0.000002

     negative rho (up, down):  5.271E-01 5.271E-01
     Generating pointlists ...
     new r_m :   0.2847 (alat units)  3.9496 (a.u.) for type    5

     total cpu time spent up to now is      807.7 secs

     Self-consistent Calculation

     iteration #  1     ecut=   120.00 Ry     beta= 0.70
     Davidson diagonalization with overlap
     ethr =  1.00E-06,  avg # of iterations =  4.0

     negative rho (up, down):  5.273E-01 5.273E-01

     total cpu time spent up to now is      835.0 secs

     total energy              =   -2069.54954206 Ry
     estimated scf accuracy    <       0.06949027 Ry

     total magnetization       =    -0.03 Bohr mag/cell
     absolute magnetization    =     0.03 Bohr mag/cell

     iteration #  2     ecut=   120.00 Ry     beta= 0.70
     Davidson diagonalization with overlap
     ethr =  3.46E-05,  avg # of iterations =  2.0

     negative rho (up, down):  5.271E-01 5.271E-01

     total cpu time spent up to now is      856.5 secs

     total energy              =   -2069.55250045 Ry
     estimated scf accuracy    <       0.40035097 Ry

     total magnetization       =    -0.01 Bohr mag/cell
     absolute magnetization    =     0.01 Bohr mag/cell

     iteration #  3     ecut=   120.00 Ry     beta= 0.70
     Davidson diagonalization with overlap
     ethr =  3.46E-05,  avg # of iterations =  2.0

     negative rho (up, down):  5.271E-01 5.271E-01

     total cpu time spent up to now is      878.6 secs

     total energy              =   -2069.56232478 Ry
     estimated scf accuracy    <       0.00139091 Ry

     total magnetization       =    -0.11 Bohr mag/cell
     absolute magnetization    =     0.11 Bohr mag/cell

     iteration #  4     ecut=   120.00 Ry     beta= 0.70
     Davidson diagonalization with overlap
     ethr =  6.92E-07,  avg # of iterations =  3.5

     negative rho (up, down):  5.271E-01 5.271E-01

     total cpu time spent up to now is      901.5 secs

     total energy              =   -2069.55988766 Ry
     estimated scf accuracy    <       0.00816219 Ry

     total magnetization       =    -0.47 Bohr mag/cell
     absolute magnetization    =     0.47 Bohr mag/cell

     iteration #  5     ecut=   120.00 Ry     beta= 0.70
     Davidson diagonalization with overlap
     ethr =  6.92E-07,  avg # of iterations =  3.0

     negative rho (up, down):  5.271E-01 5.271E-01

     total cpu time spent up to now is      921.7 secs

     total energy              =   -2069.56194569 Ry
     estimated scf accuracy    <       0.00967720 Ry

     total magnetization       =    -0.01 Bohr mag/cell
     absolute magnetization    =     0.01 Bohr mag/cell

     iteration #  6     ecut=   120.00 Ry     beta= 0.70
     Davidson diagonalization with overlap
     ethr =  6.92E-07,  avg # of iterations =  1.5

     negative rho (up, down):  5.271E-01 5.271E-01

     total cpu time spent up to now is      940.8 secs

     total energy              =   -2069.56194333 Ry
     estimated scf accuracy    <       0.00264389 Ry

     total magnetization       =     0.02 Bohr mag/cell
     absolute magnetization    =     0.02 Bohr mag/cell

     iteration #  7     ecut=   120.00 Ry     beta= 0.70
     Davidson diagonalization with overlap
     ethr =  6.92E-07,  avg # of iterations =  1.0

     negative rho (up, down):  5.271E-01 5.271E-01

     total cpu time spent up to now is      959.3 secs

     total energy              =   -2069.56193230 Ry
     estimated scf accuracy    <       0.00108321 Ry

     total magnetization       =     0.00 Bohr mag/cell
     absolute magnetization    =     0.00 Bohr mag/cell

     iteration #  8     ecut=   120.00 Ry     beta= 0.70
     Davidson diagonalization with overlap
     ethr =  5.39E-07,  avg # of iterations =  1.0

     negative rho (up, down):  5.271E-01 5.271E-01

     total cpu time spent up to now is      977.7 secs

     total energy              =   -2069.56192425 Ry
     estimated scf accuracy    <       0.00038253 Ry

     total magnetization       =     0.01 Bohr mag/cell
     absolute magnetization    =     0.01 Bohr mag/cell

     iteration #  9     ecut=   120.00 Ry     beta= 0.70
     Davidson diagonalization with overlap
     ethr =  1.90E-07,  avg # of iterations =  1.0

     negative rho (up, down):  5.271E-01 5.271E-01

     total cpu time spent up to now is      996.0 secs

     total energy              =   -2069.56192502 Ry
     estimated scf accuracy    <       0.00014841 Ry

     total magnetization       =     0.01 Bohr mag/cell
     absolute magnetization    =     0.01 Bohr mag/cell

     iteration # 10     ecut=   120.00 Ry     beta= 0.70
     Davidson diagonalization with overlap
     ethr =  7.38E-08,  avg # of iterations =  1.5

     negative rho (up, down):  5.271E-01 5.271E-01

     Magnetic moment per site  (integrated on atomic sphere of radius R)
     atom   1 (R=0.144)  charge=  9.4305  magn=  0.0000
     atom   2 (R=0.141)  charge= 10.4127  magn= -0.0000
     atom   3 (R=0.146)  charge= 10.3499  magn= -0.0000
     atom   4 (R=0.141)  charge=  9.3936  magn=  0.0000
     atom   5 (R=0.144)  charge=  9.4304  magn=  0.0000
     atom   6 (R=0.141)  charge= 10.4127  magn= -0.0000
     atom   7 (R=0.146)  charge= 10.3497  magn= -0.0000
     atom   8 (R=0.141)  charge=  9.3935  magn=  0.0000
     atom   9 (R=0.144)  charge=  9.4304  magn=  0.0000
     atom  10 (R=0.141)  charge= 10.4140  magn= -0.0000
     atom  11 (R=0.146)  charge= 10.3498  magn= -0.0000
     atom  12 (R=0.141)  charge=  9.3935  magn= -0.0000
     atom  13 (R=0.144)  charge=  9.4302  magn=  0.0000
     atom  14 (R=0.141)  charge= 10.4142  magn=  0.0000
     atom  15 (R=0.146)  charge= 10.3493  magn= -0.0000
     atom  16 (R=0.141)  charge=  9.3934  magn=  0.0000
     atom  17 (R=0.285)  charge=  1.1566  magn=  0.0021

     total cpu time spent up to now is     1015.1 secs

     End of self-consistent calculation

 ------ SPIN UP ------------


          k = 0.0000 0.0000 0.0000 ( 56136 PWs)   bands (ev):

   -63.4673 -63.4634 -63.4630 -63.4600 -56.7888 -56.7836 -56.7795 -56.7761
   -50.0560 -50.0442 -50.0412 -50.0374 -43.5098 -43.4936 -43.4915 -43.4789
   -30.6483 -30.6345 -30.4809 -30.4609 -30.3630 -30.3609 -30.3268 -30.3070
   -30.1071 -30.0765 -30.0598 -30.0587 -27.1950 -26.9608 -26.8592 -26.7842
   -26.7243 -26.7182 -26.6397 -26.6316 -26.5276 -26.5226 -26.4778 -26.2944
   -26.2369 -25.9273 -25.8400 -25.8394 -25.6115 -25.5213 -25.3718 -25.3633
   -25.3393 -25.3337 -25.2451 -25.2316 -22.0351 -21.9453 -21.8728 -21.8549
   -21.6693 -21.6290 -21.5780 -21.5715 -21.5297 -21.4640 -21.4311 -21.3663
    -1.9356  -1.2582  -0.7166  -0.5917  -0.4895  -0.3853   0.0986   0.6265
     0.9093   1.0153   1.0366   1.0370   1.1034   1.1222   1.4110   1.7812
     1.7960   1.9352   2.0082   2.0734   2.1351   2.5159   2.7161   2.8494
     2.9541   3.1039   3.1354   3.1614   3.1884   3.2325   3.3865   3.4096
     3.6184   3.6622   3.8127   3.8188   3.9231   4.0120   4.3720   4.3726
     4.7495   4.8465   4.8749   5.0570   5.1010   5.1777   5.1842   5.3727
     5.5231   5.8208   6.0326   6.1275   6.1660   6.1694   6.2570   6.2633
     6.3091

 ------ SPIN DOWN ----------


          k = 0.0000 0.0000 0.0000 ( 56136 PWs)   bands (ev):

   -63.4673 -63.4634 -63.4630 -63.4600 -56.7888 -56.7836 -56.7795 -56.7761
   -50.0560 -50.0442 -50.0412 -50.0374 -43.5098 -43.4936 -43.4915 -43.4789
   -30.6483 -30.6345 -30.4809 -30.4609 -30.3630 -30.3609 -30.3268 -30.3070
   -30.1071 -30.0765 -30.0598 -30.0587 -27.1950 -26.9608 -26.8592 -26.7842
   -26.7243 -26.7182 -26.6397 -26.6316 -26.5276 -26.5226 -26.4778 -26.2944
   -26.2369 -25.9273 -25.8400 -25.8394 -25.6115 -25.5213 -25.3718 -25.3633
   -25.3393 -25.3337 -25.2451 -25.2316 -22.0351 -21.9453 -21.8728 -21.8549
   -21.6693 -21.6290 -21.5780 -21.5715 -21.5297 -21.4640 -21.4311 -21.3663
    -1.9356  -1.2582  -0.7166  -0.5917  -0.4895  -0.3853   0.0986   0.6265
     0.9093   1.0153   1.0366   1.0370   1.1034   1.1222   1.4110   1.7812
     1.7960   1.9352   2.0082   2.0734   2.1351   2.5159   2.7161   2.8494
     2.9541   3.1039   3.1354   3.1614   3.1884   3.2325   3.3865   3.4096
     3.6184   3.6622   3.8127   3.8188   3.9242   4.0120   4.3720   4.3726
     4.7495   4.8464   4.8749   5.0570   5.1010   5.1777   5.1842   5.3727
     5.5231   5.8208   6.0326   6.1275   6.1660   6.1694   6.2570   6.2633
     6.3091

     the Fermi energy is     3.9735 ev

!    total energy              =   -2069.56191592 Ry
     estimated scf accuracy    <       0.00003815 Ry
     smearing contrib. (-TS)   =      -0.05523454 Ry
     internal energy E=F+TS    =   -2069.50668138 Ry

     total magnetization       =     0.00 Bohr mag/cell
     absolute magnetization    =     0.00 Bohr mag/cell

     convergence has been achieved in  10 iterations

     negative rho (up, down):  5.271E-01 5.271E-01

     Forces acting on atoms (cartesian axes, Ry/au):

     atom    1 type  1   force =     0.00008717    0.00014391   -0.33659178
     atom    2 type  2   force =     0.00004038    0.00007208    0.43499400
     atom    3 type  3   force =    -0.00056982   -0.00008869    0.29270604
     atom    4 type  4   force =     0.00038067    0.00003130   -0.39046208
     atom    5 type  1   force =     0.00009704   -0.00005704   -0.33690876
     atom    6 type  2   force =    -0.00002907   -0.00001048    0.43495271
     atom    7 type  3   force =    -0.00071007    0.00003742    0.29352792
     atom    8 type  4   force =     0.00047138   -0.00017813   -0.39033869
     atom    9 type  1   force =     0.00003581    0.00007154   -0.33752963
     atom   10 type  2   force =     0.00003964   -0.00014075    0.43540611
     atom   11 type  3   force =     0.00053278   -0.00013357    0.29279704
     atom   12 type  4   force =    -0.00050168    0.00001640   -0.39055310
     atom   13 type  1   force =     0.00001541    0.00006519   -0.33814184
     atom   14 type  2   force =     0.00009924    0.00026853    0.43490333
     atom   15 type  3   force =     0.00061382    0.00007557    0.29423139
     atom   16 type  4   force =    -0.00060869   -0.00014208   -0.39039234
     atom   17 type  5   force =     0.00000600   -0.00003120   -0.00260030
     The non-local contrib.  to forces
     atom    1 type  1   force =    -0.00015803   -0.00037020   -0.25630662
     atom    2 type  2   force =     0.00024707   -0.00001993   -0.24073169
     atom    3 type  3   force =     0.00021106    0.00048411    0.24861773
     atom    4 type  4   force =    -0.00048801    0.00004344    0.04571480
     atom    5 type  1   force =    -0.00020006   -0.00056962   -0.25650646
     atom    6 type  2   force =     0.00027333    0.00024724   -0.24107612
     atom    7 type  3   force =     0.00116714   -0.00011776    0.25075406
     atom    8 type  4   force =    -0.00028219    0.00002782    0.04617763
     atom    9 type  1   force =    -0.00025437   -0.00019007   -0.25736265
     atom   10 type  2   force =    -0.00002362    0.00046677   -0.23860062
     atom   11 type  3   force =    -0.00076049    0.00067192    0.24950811
     atom   12 type  4   force =     0.00059207    0.00010307    0.04593703
     atom   13 type  1   force =    -0.00027744   -0.00055458   -0.25678509
     atom   14 type  2   force =    -0.00007269   -0.00019408   -0.23960548
     atom   15 type  3   force =    -0.00175565   -0.00029881    0.25195620
     atom   16 type  4   force =     0.00042578   -0.00003114    0.04608324
     atom   17 type  5   force =     0.00001276    0.00000390   -0.00049218
     The ionic contribution  to forces
     atom    1 type  1   force =     0.00411881    0.00145057  -58.12147778
     atom    2 type  2   force =     0.00335361   -0.01300729   53.44817341
     atom    3 type  3   force =    -0.06568503   -0.01721537   59.79121443
     atom    4 type  4   force =    -0.01064491   -0.00871708  -55.59830545
     atom    5 type  1   force =     0.00596163    0.00559352  -58.12391001
     atom    6 type  2   force =     0.00165198    0.02004779   53.45698518
     atom    7 type  3   force =    -0.07705091    0.00944690   59.74856653
     atom    8 type  4   force =    -0.01131252    0.00244377  -55.60103199
     atom    9 type  1   force =     0.00032774    0.00206860  -58.16853002
     atom   10 type  2   force =    -0.01024640   -0.02340821   53.39216355
     atom   11 type  3   force =     0.07121299   -0.01900672   59.77804028
     atom   12 type  4   force =     0.00716852   -0.01052910  -55.60317346
     atom   13 type  1   force =    -0.00151134    0.00490323  -58.17229718
     atom   14 type  2   force =    -0.00822820    0.02972246   53.41918275
     atom   15 type  3   force =     0.08336329    0.01205605   59.72500972
     atom   16 type  4   force =     0.00775665    0.00436556  -55.60559750
     atom   17 type  5   force =    -0.00023591   -0.00021468    2.23498755
     The local contribution  to forces
     atom    1 type  1   force =    -0.00382130   -0.00101827   58.05989884
     atom    2 type  2   force =    -0.00341896    0.01281158  -52.79970558
     atom    3 type  3   force =     0.06513713    0.01637587  -59.78664901
     atom    4 type  4   force =     0.01154459    0.00855052   55.17388702
     atom    5 type  1   force =    -0.00562267   -0.00490998   58.06209821
     atom    6 type  2   force =    -0.00181789   -0.02000867  -52.80814421
     atom    7 type  3   force =     0.07535688   -0.00905337  -59.74548389
     atom    8 type  4   force =     0.01209971   -0.00250018   55.17643596
     atom    9 type  1   force =    -0.00006786   -0.00194367   58.10710552
     atom   10 type  2   force =     0.01017073    0.02246883  -52.74559687
     atom   11 type  3   force =    -0.07010965    0.01792219  -59.77433547
     atom   12 type  4   force =    -0.00829378    0.01030270   55.17839951
     atom   13 type  1   force =     0.00179638   -0.00411387   58.10967192
     atom   14 type  2   force =     0.00826495   -0.02891733  -52.77197253
     atom   15 type  3   force =    -0.08113919   -0.01143674  -59.72251244
     atom   16 type  4   force =    -0.00882369   -0.00434320   55.18097956
     atom   17 type  5   force =     0.00022860    0.00018055   -2.23731190
     The core correction contribution to forces
     atom    1 type  1   force =     0.00000656   -0.00003863   -0.01836734
     atom    2 type  2   force =    -0.00001128    0.00000008    0.02244615
     atom    3 type  3   force =    -0.00013685    0.00001721    0.03458354
     atom    4 type  4   force =     0.00003688   -0.00000054   -0.01146799
     atom    5 type  1   force =     0.00000627   -0.00004822   -0.01836174
     atom    6 type  2   force =    -0.00000981   -0.00001366    0.02244729
     atom    7 type  3   force =    -0.00014457    0.00002037    0.03465084
     atom    8 type  4   force =     0.00002399    0.00000524   -0.01148703
     atom    9 type  1   force =    -0.00002682    0.00002249   -0.01826334
     atom   10 type  2   force =     0.00000776   -0.00001067    0.02239269
     atom   11 type  3   force =     0.00009450    0.00002390    0.03461755
     atom   12 type  4   force =    -0.00003624   -0.00000428   -0.01148366
     atom   13 type  1   force =    -0.00003993   -0.00005275   -0.01837689
     atom   14 type  2   force =     0.00000729   -0.00000516    0.02240433
     atom   15 type  3   force =     0.00011038    0.00002077    0.03466269
     atom   16 type  4   force =    -0.00002617    0.00000905   -0.01148557
     atom   17 type  5   force =     0.00000000    0.00000000    0.00000000
     The Hubbard contrib.    to forces
     atom    1 type  1   force =     0.00000000    0.00000000    0.00000000
     atom    2 type  2   force =     0.00000000    0.00000000    0.00000000
     atom    3 type  3   force =     0.00000000    0.00000000    0.00000000
     atom    4 type  4   force =     0.00000000    0.00000000    0.00000000
     atom    5 type  1   force =     0.00000000    0.00000000    0.00000000
     atom    6 type  2   force =     0.00000000    0.00000000    0.00000000
     atom    7 type  3   force =     0.00000000    0.00000000    0.00000000
     atom    8 type  4   force =     0.00000000    0.00000000    0.00000000
     atom    9 type  1   force =     0.00000000    0.00000000    0.00000000
     atom   10 type  2   force =     0.00000000    0.00000000    0.00000000
     atom   11 type  3   force =     0.00000000    0.00000000    0.00000000
     atom   12 type  4   force =     0.00000000    0.00000000    0.00000000
     atom   13 type  1   force =     0.00000000    0.00000000    0.00000000
     atom   14 type  2   force =     0.00000000    0.00000000    0.00000000
     atom   15 type  3   force =     0.00000000    0.00000000    0.00000000
     atom   16 type  4   force =     0.00000000    0.00000000    0.00000000
     atom   17 type  5   force =     0.00000000    0.00000000    0.00000000
     The SCF correction term to forces
     atom    1 type  1   force =    -0.00000000    0.00000000   -0.00000000
     atom    2 type  2   force =    -0.00000000    0.00000000    0.00000000
     atom    3 type  3   force =    -0.00000000    0.00000000    0.00000000
     atom    4 type  4   force =    -0.00000000    0.00000000   -0.00000000
     atom    5 type  1   force =    -0.00000000   -0.00000000   -0.00000000
     atom    6 type  2   force =    -0.00000000   -0.00000000    0.00000000
     atom    7 type  3   force =    -0.00000000   -0.00000000    0.00000000
     atom    8 type  4   force =    -0.00000000   -0.00000000   -0.00000000
     atom    9 type  1   force =     0.00000000    0.00000000   -0.00000000
     atom   10 type  2   force =     0.00000000    0.00000000    0.00000000
     atom   11 type  3   force =     0.00000000    0.00000000    0.00000000
     atom   12 type  4   force =     0.00000000    0.00000000   -0.00000000
     atom   13 type  1   force =     0.00000000   -0.00000000   -0.00000000
     atom   14 type  2   force =     0.00000000   -0.00000000    0.00000000
     atom   15 type  3   force =     0.00000000   -0.00000000    0.00000000
     atom   16 type  4   force =     0.00000000   -0.00000000   -0.00000000
     atom   17 type  5   force =     0.00000048   -0.00000032    0.00009836

     Total force =     0.002600     Total SCF correction =     0.000098

     Entering Dynamics:    iteration =     3
                           time      =   0.0003 pico-seconds


ATOMIC_POSITIONS (angstrom)
Hf            0.9173507110        0.9173135972        6.0002837354    0   0   0
Nb            0.9176900085        2.7523320100        7.7799550803    0   0   0
Ta            2.7538208285        0.9176860149        7.9177084703    0   0   0
Zr            2.7522059512        2.7526418480        6.0659757673    0   0   0
Hf            0.9173105916        4.5873364617        6.0002711019    0   0   0
Nb            0.9176950052        6.4223291151        7.7797918918    0   0   0
Ta            2.7538243094        4.5876680102        7.9176812404    0   0   0
Zr            2.7522395759        6.4227147098        6.0658425039    0   0   0
Hf            4.5873495791        0.9172816749        6.0000109568    0   0   0
Nb            4.5876207816        2.7523359852        7.7804388155    0   0   0
Ta            6.4210161579        0.9176597836        7.9177312144    0   0   0
Zr            6.4229515852        2.7526427058        6.0658048318    0   0   0
Hf            4.5873841500        4.5873764414        6.0000000000    0   0   0
Nb            4.5876157176        6.4223321265        7.7803118750    0   0   0
Ta            6.4210034632        4.5876595310        7.9177105287    0   0   0
Zr            6.4229215841        6.4226899848        6.0656737289    0   0   0
H             5.0000000377        3.9999998469       12.7182733031


     kinetic energy (Ekin) =           0.55165032 Ry
     temperature           =       58065.79780435 K 
     Ekin + Etot (const)   =       -2069.01026560 Ry

     Writing config-only to output data dir ./pwscf.save/
     NEW-OLD atomic charge density approx. for the potential

     Check: negative core charge=   -0.000002

     negative rho (up, down):  5.271E-01 5.271E-01
     Generating pointlists ...

     total cpu time spent up to now is     1030.4 secs

     Self-consistent Calculation

     iteration #  1     ecut=   120.00 Ry     beta= 0.70
     Davidson diagonalization with overlap
     ethr =  1.00E-06,  avg # of iterations =  4.0

     negative rho (up, down):  5.269E-01 5.269E-01

     total cpu time spent up to now is     1053.1 secs

     total energy              =   -2069.55326446 Ry
     estimated scf accuracy    <       0.04701427 Ry

     total magnetization       =     0.01 Bohr mag/cell
     absolute magnetization    =     0.01 Bohr mag/cell

     iteration #  2     ecut=   120.00 Ry     beta= 0.70
     Davidson diagonalization with overlap
     ethr =  2.34E-05,  avg # of iterations =  2.0

     negative rho (up, down):  5.271E-01 5.271E-01

     total cpu time spent up to now is     1073.3 secs

     total energy              =   -2069.54772266 Ry
     estimated scf accuracy    <       0.59961083 Ry

     total magnetization       =     0.02 Bohr mag/cell
     absolute magnetization    =     0.02 Bohr mag/cell

     iteration #  3     ecut=   120.00 Ry     beta= 0.70
     Davidson diagonalization with overlap
     ethr =  2.34E-05,  avg # of iterations =  2.0

     negative rho (up, down):  5.271E-01 5.271E-01

     total cpu time spent up to now is     1093.4 secs

     total energy              =   -2069.56218847 Ry
     estimated scf accuracy    <       0.00038963 Ry

     total magnetization       =     0.05 Bohr mag/cell
     absolute magnetization    =     0.05 Bohr mag/cell

     iteration #  4     ecut=   120.00 Ry     beta= 0.70
     Davidson diagonalization with overlap
     ethr =  1.94E-07,  avg # of iterations =  3.5

     negative rho (up, down):  5.271E-01 5.271E-01

     total cpu time spent up to now is     1113.6 secs

     total energy              =   -2069.56222054 Ry
     estimated scf accuracy    <       0.00100283 Ry

     total magnetization       =     0.15 Bohr mag/cell
     absolute magnetization    =     0.15 Bohr mag/cell

     iteration #  5     ecut=   120.00 Ry     beta= 0.70
     Davidson diagonalization with overlap
     ethr =  1.94E-07,  avg # of iterations =  2.0

     negative rho (up, down):  5.271E-01 5.271E-01

     total cpu time spent up to now is     1135.8 secs

     total energy              =   -2069.56200142 Ry
     estimated scf accuracy    <       0.00107117 Ry

     total magnetization       =     0.11 Bohr mag/cell
     absolute magnetization    =     0.12 Bohr mag/cell

     iteration #  6     ecut=   120.00 Ry     beta= 0.70
     Davidson diagonalization with overlap
     ethr =  1.94E-07,  avg # of iterations =  2.0

     negative rho (up, down):  5.271E-01 5.271E-01

     total cpu time spent up to now is     1157.3 secs

     total energy              =   -2069.56207808 Ry
     estimated scf accuracy    <       0.00032563 Ry

     total magnetization       =     0.02 Bohr mag/cell
     absolute magnetization    =     0.02 Bohr mag/cell

     iteration #  7     ecut=   120.00 Ry     beta= 0.70
     Davidson diagonalization with overlap
     ethr =  1.62E-07,  avg # of iterations =  1.0

     negative rho (up, down):  5.271E-01 5.271E-01

     Magnetic moment per site  (integrated on atomic sphere of radius R)
     atom   1 (R=0.144)  charge=  9.4297  magn=  0.0000
     atom   2 (R=0.141)  charge= 10.4127  magn=  0.0000
     atom   3 (R=0.146)  charge= 10.3491  magn=  0.0000
     atom   4 (R=0.141)  charge=  9.3930  magn=  0.0000
[...]

     iteration #  7     ecut=   120.00 Ry     beta= 0.70
     Davidson diagonalization with overlap
     ethr =  1.81E-06,  avg # of iterations =  1.0

     negative rho (up, down):  5.271E-01 5.271E-01

     total cpu time spent up to now is     1331.8 secs

     total energy              =   -2069.56223111 Ry
     estimated scf accuracy    <       0.00129239 Ry

     total magnetization       =    -0.01 Bohr mag/cell
     absolute magnetization    =     0.01 Bohr mag/cell

     iteration #  8     ecut=   120.00 Ry     beta= 0.70
     Davidson diagonalization with overlap
     ethr =  6.43E-07,  avg # of iterations =  1.0

     negative rho (up, down):  5.271E-01 5.271E-01

     total cpu time spent up to now is     1350.0 secs

     total energy              =   -2069.56223427 Ry
     estimated scf accuracy    <       0.00061381 Ry

     total magnetization       =    -0.01 Bohr mag/cell
     absolute magnetization    =     0.01 Bohr mag/cell

     iteration #  9     ecut=   120.00 Ry     beta= 0.70
     Davidson diagonalization with overlap
     ethr =  3.05E-07,  avg # of iterations =  1.0

     negative rho (up, down):  5.271E-01 5.271E-01

     total cpu time spent up to now is     1368.4 secs

     total energy              =   -2069.56220932 Ry
     estimated scf accuracy    <       0.00071572 Ry

     total magnetization       =    -0.01 Bohr mag/cell
     absolute magnetization    =     0.01 Bohr mag/cell

     iteration # 10     ecut=   120.00 Ry     beta= 0.70
     Davidson diagonalization with overlap
     ethr =  3.05E-07,  avg # of iterations =  1.0

     negative rho (up, down):  5.271E-01 5.271E-01

     Magnetic moment per site  (integrated on atomic sphere of radius R)
     atom   1 (R=0.144)  charge=  9.4306  magn= -0.0000
     atom   2 (R=0.141)  charge= 10.4127  magn=  0.0000
     atom   3 (R=0.146)  charge= 10.3499  magn= -0.0000
     atom   4 (R=0.141)  charge=  9.3937  magn= -0.0000
     atom   5 (R=0.144)  charge=  9.4305  magn= -0.0000
     atom   6 (R=0.141)  charge= 10.4130  magn=  0.0000
     atom   7 (R=0.146)  charge= 10.3497  magn= -0.0000
     atom   8 (R=0.141)  charge=  9.3936  magn=  0.0000
     atom   9 (R=0.144)  charge=  9.4305  magn= -0.0000
     atom  10 (R=0.141)  charge= 10.4140  magn= -0.0000
     atom  11 (R=0.146)  charge= 10.3498  magn= -0.0000
     atom  12 (R=0.141)  charge=  9.3935  magn= -0.0000
     atom  13 (R=0.144)  charge=  9.4303  magn= -0.0000
     atom  14 (R=0.141)  charge= 10.4144  magn= -0.0000
     atom  15 (R=0.146)  charge= 10.3493  magn= -0.0000
     atom  16 (R=0.141)  charge=  9.3935  magn= -0.0000
     atom  17 (R=0.282)  charge=  1.1552  magn= -0.0038

     total cpu time spent up to now is     1386.5 secs

     End of self-consistent calculation

 ------ SPIN UP ------------


          k = 0.0000 0.0000 0.0000 ( 56136 PWs)   bands (ev):

   -63.4678 -63.4638 -63.4634 -63.4603 -56.7889 -56.7837 -56.7797 -56.7763
   -50.0568 -50.0450 -50.0419 -50.0382 -43.5097 -43.4935 -43.4914 -43.4789
   -30.6487 -30.6349 -30.4813 -30.4613 -30.3633 -30.3613 -30.3272 -30.3074
   -30.1076 -30.0770 -30.0602 -30.0592 -27.1954 -26.9614 -26.8598 -26.7847
   -26.7248 -26.7189 -26.6402 -26.6323 -26.5281 -26.5231 -26.4783 -26.2950
   -26.2371 -25.9276 -25.8402 -25.8396 -25.6118 -25.5216 -25.3722 -25.3637
   -25.3395 -25.3339 -25.2453 -25.2318 -22.0351 -21.9452 -21.8729 -21.8549
   -21.6693 -21.6290 -21.5781 -21.5716 -21.5297 -21.4640 -21.4310 -21.3663
    -1.9359  -1.2586  -0.7168  -0.5919  -0.4898  -0.3856   0.0983   0.6261
     0.9090   1.0149   1.0363   1.0367   1.1031   1.1217   1.4105   1.7810
     1.7957   1.9350   2.0081   2.0731   2.1348   2.5155   2.7158   2.8490
     2.9538   3.1036   3.1351   3.1613   3.1873   3.2322   3.3863   3.4093
     3.6183   3.6618   3.8123   3.8186   3.9254   4.0120   4.3715   4.3722
     4.7516   4.8463   4.8744   5.0568   5.1006   5.1775   5.1840   5.3727
     5.5228   5.8206   6.0322   6.1271   6.1655   6.1691   6.2567   6.2628
     6.3087

 ------ SPIN DOWN ----------


          k = 0.0000 0.0000 0.0000 ( 56136 PWs)   bands (ev):

   -63.4678 -63.4638 -63.4634 -63.4603 -56.7889 -56.7837 -56.7797 -56.7763
   -50.0568 -50.0450 -50.0419 -50.0382 -43.5097 -43.4935 -43.4914 -43.4789
   -30.6487 -30.6349 -30.4813 -30.4613 -30.3633 -30.3613 -30.3272 -30.3074
   -30.1076 -30.0770 -30.0602 -30.0592 -27.1954 -26.9614 -26.8598 -26.7847
   -26.7248 -26.7189 -26.6402 -26.6323 -26.5281 -26.5231 -26.4783 -26.2950
   -26.2371 -25.9276 -25.8402 -25.8396 -25.6119 -25.5216 -25.3722 -25.3637
   -25.3395 -25.3339 -25.2453 -25.2318 -22.0351 -21.9452 -21.8729 -21.8549
   -21.6693 -21.6290 -21.5781 -21.5716 -21.5297 -21.4640 -21.4310 -21.3663
    -1.9359  -1.2586  -0.7168  -0.5919  -0.4898  -0.3856   0.0983   0.6261
     0.9090   1.0149   1.0363   1.0367   1.1031   1.1217   1.4105   1.7810
     1.7957   1.9350   2.0081   2.0731   2.1348   2.5155   2.7158   2.8490
     2.9538   3.1036   3.1351   3.1613   3.1873   3.2322   3.3863   3.4093
     3.6183   3.6617   3.8122   3.8186   3.9233   4.0120   4.3715   4.3722
     4.7515   4.8463   4.8744   5.0568   5.1006   5.1775   5.1840   5.3727
     5.5228   5.8206   6.0322   6.1271   6.1655   6.1691   6.2567   6.2628
     6.3087

     the Fermi energy is     3.9735 ev

!    total energy              =   -2069.56220408 Ry
     estimated scf accuracy    <       0.00004938 Ry
     smearing contrib. (-TS)   =      -0.05522432 Ry
     internal energy E=F+TS    =   -2069.50697976 Ry

     total magnetization       =    -0.00 Bohr mag/cell
     absolute magnetization    =     0.00 Bohr mag/cell

     convergence has been achieved in  10 iterations

     negative rho (up, down):  5.271E-01 5.271E-01

     Forces acting on atoms (cartesian axes, Ry/au):

     atom    1 type  1   force =     0.00009646    0.00005170   -0.33637259
     atom    2 type  2   force =     0.00005307    0.00010337    0.43484038
     atom    3 type  3   force =    -0.00059486   -0.00020142    0.29257254
     atom    4 type  4   force =     0.00035354    0.00004469   -0.39045239
     atom    5 type  1   force =     0.00011393    0.00003203   -0.33666476
     atom    6 type  2   force =    -0.00003011   -0.00003123    0.43486436
     atom    7 type  3   force =    -0.00078102    0.00014167    0.29346435
     atom    8 type  4   force =     0.00047453   -0.00019434   -0.39026999
     atom    9 type  1   force =     0.00003387   -0.00005796   -0.33732668
     atom   10 type  2   force =     0.00003647   -0.00014686    0.43536966
     atom   11 type  3   force =     0.00055391   -0.00026138    0.29267405
     atom   12 type  4   force =    -0.00047963    0.00002465   -0.39055510
     atom   13 type  1   force =     0.00000527    0.00019385   -0.33795619
     atom   14 type  2   force =     0.00010892    0.00029889    0.43484079
     atom   15 type  3   force =     0.00066878    0.00019027    0.29423644
     atom   16 type  4   force =    -0.00062005   -0.00015158   -0.39032856
     atom   17 type  5   force =     0.00000692   -0.00003636   -0.00293631
     The non-local contrib.  to forces
     atom    1 type  1   force =    -0.00014662   -0.00041625   -0.25609222
     atom    2 type  2   force =     0.00026249   -0.00004975   -0.24069154
     atom    3 type  3   force =     0.00019651    0.00040165    0.24858536
     atom    4 type  4   force =    -0.00055282    0.00004101    0.04564959
     atom    5 type  1   force =    -0.00018891   -0.00054522   -0.25629926
     atom    6 type  2   force =     0.00028639    0.00028580   -0.24104744
     atom    7 type  3   force =     0.00126335   -0.00006980    0.25090598
     atom    8 type  4   force =    -0.00031860    0.00001836    0.04620378
     atom    9 type  1   force =    -0.00024730   -0.00021180   -0.25725713
     atom   10 type  2   force =    -0.00002865    0.00048915   -0.23837595
     atom   11 type  3   force =    -0.00076674    0.00060649    0.24953403
     atom   12 type  4   force =     0.00065113    0.00010065    0.04586751
     atom   13 type  1   force =    -0.00028104   -0.00052722   -0.25662201
     atom   14 type  2   force =    -0.00008075   -0.00020782   -0.23947679
     atom   15 type  3   force =    -0.00187812   -0.00026756    0.25218688
     atom   16 type  4   force =     0.00046347   -0.00003784    0.04606497
     atom   17 type  5   force =     0.00001561    0.00000376   -0.00055192
     The ionic contribution  to forces
     atom    1 type  1   force =     0.00414001    0.00142154  -58.12699346
     atom    2 type  2   force =     0.00377661   -0.01367907   53.44229693
     atom    3 type  3   force =    -0.06648554   -0.01771836   59.78598258
     atom    4 type  4   force =    -0.01074917   -0.00879825  -55.60447734
     atom    5 type  1   force =     0.00599382    0.00562324  -58.12994909
     atom    6 type  2   force =     0.00195725    0.02069942   53.45176031
     atom    7 type  3   force =    -0.07858968    0.00999967   59.74145276
     atom    8 type  4   force =    -0.01139508    0.00252345  -55.60685963
     atom    9 type  1   force =     0.00030600    0.00202318  -58.17461665
     atom   10 type  2   force =    -0.01072753   -0.02477541   53.38355965
     atom   11 type  3   force =     0.07203335   -0.01964869   59.77228186
     atom   12 type  4   force =     0.00727450   -0.01062533  -55.60964803
     atom   13 type  1   force =    -0.00154511    0.00495081  -58.17921856
     atom   14 type  2   force =    -0.00856056    0.03099044   53.41226363
     atom   15 type  3   force =     0.08499485    0.01278537   59.71655514
     atom   16 type  4   force =     0.00784018    0.00445961  -55.61166309
     atom   17 type  5   force =    -0.00026390   -0.00023164    2.33727300
     The local contribution  to forces
     atom    1 type  1   force =    -0.00382902   -0.00132436   58.06616361
     atom    2 type  2   force =    -0.00377322    0.01364353  -52.79451633
     atom    3 type  3   force =     0.06574047    0.01626598  -59.78209237
     atom    4 type  4   force =     0.01155694    0.00867423   55.18074060
     atom    5 type  1   force =    -0.00561649   -0.00458171   58.06899591
     atom    6 type  2   force =    -0.00209741   -0.02082209  -52.80351222
     atom    7 type  3   force =     0.07649698   -0.00897037  -59.73917275
     atom    8 type  4   force =     0.01212362   -0.00261669   55.18326901
     atom    9 type  1   force =    -0.00007355   -0.00232245   58.11392322
     atom   10 type  2   force =     0.01058312    0.02385651  -52.73778631
     atom   11 type  3   force =    -0.07071057    0.01789472  -59.76930704
     atom   12 type  4   force =    -0.00830725    0.01041586   55.18551824
     atom   13 type  1   force =     0.00179003   -0.00374166   58.11733337
     atom   14 type  2   force =     0.00856979   -0.03019892  -52.76576918
     atom   15 type  3   force =    -0.08235370   -0.01147176  -59.71488895
     atom   16 type  4   force =    -0.00885572   -0.00445237   55.18806978
     atom   17 type  5   force =     0.00025532    0.00019417   -2.33991783
     The core correction contribution to forces
     atom    1 type  1   force =     0.00000730   -0.00003728   -0.01834815
     atom    2 type  2   force =    -0.00001239    0.00000154    0.02244749
     atom    3 type  3   force =    -0.00013699    0.00001378    0.03458388
     atom    4 type  4   force =     0.00004018   -0.00000028   -0.01146116
     atom    5 type  1   force =     0.00000836   -0.00004950   -0.01833185
     atom    6 type  2   force =    -0.00001040   -0.00001523    0.02244741
     atom    7 type  3   force =    -0.00014712    0.00002408    0.03465536
     atom    8 type  4   force =     0.00002558    0.00000566   -0.01148259
     atom    9 type  1   force =    -0.00002536    0.00002634   -0.01822879
     atom   10 type  2   force =     0.00000849   -0.00000994    0.02239143
     atom   11 type  3   force =     0.00009361    0.00002137    0.03461755
     atom   12 type  4   force =    -0.00003913   -0.00000420   -0.01147696
     atom   13 type  1   force =    -0.00004061   -0.00005483   -0.01835907
     atom   14 type  2   force =     0.00000796   -0.00000590    0.02240445
     atom   15 type  3   force =     0.00011305    0.00002452    0.03466173
     atom   16 type  4   force =    -0.00002789    0.00000944   -0.01147899
     atom   17 type  5   force =     0.00000000    0.00000000    0.00000000
     The Hubbard contrib.    to forces
     atom    1 type  1   force =     0.00000000    0.00000000    0.00000000
     atom    2 type  2   force =     0.00000000    0.00000000    0.00000000
     atom    3 type  3   force =     0.00000000    0.00000000    0.00000000
     atom    4 type  4   force =     0.00000000    0.00000000    0.00000000
     atom    5 type  1   force =     0.00000000    0.00000000    0.00000000
     atom    6 type  2   force =     0.00000000    0.00000000    0.00000000
     atom    7 type  3   force =     0.00000000    0.00000000    0.00000000
     atom    8 type  4   force =     0.00000000    0.00000000    0.00000000
     atom    9 type  1   force =     0.00000000    0.00000000    0.00000000
     atom   10 type  2   force =     0.00000000    0.00000000    0.00000000
     atom   11 type  3   force =     0.00000000    0.00000000    0.00000000
     atom   12 type  4   force =     0.00000000    0.00000000    0.00000000
     atom   13 type  1   force =     0.00000000    0.00000000    0.00000000
     atom   14 type  2   force =     0.00000000    0.00000000    0.00000000
     atom   15 type  3   force =     0.00000000    0.00000000    0.00000000
     atom   16 type  4   force =     0.00000000    0.00000000    0.00000000
     atom   17 type  5   force =     0.00000000    0.00000000    0.00000000
     The SCF correction term to forces
     atom    1 type  1   force =    -0.00000000    0.00000000   -0.00000000
     atom    2 type  2   force =    -0.00000000    0.00000000    0.00000000
     atom    3 type  3   force =     0.00000000    0.00000000    0.00000000
     atom    4 type  4   force =     0.00000000    0.00000000   -0.00000000
     atom    5 type  1   force =    -0.00000000   -0.00000000   -0.00000000
     atom    6 type  2   force =    -0.00000000   -0.00000000    0.00000000
     atom    7 type  3   force =     0.00000000   -0.00000000    0.00000000
     atom    8 type  4   force =     0.00000000   -0.00000000   -0.00000000
     atom    9 type  1   force =     0.00000000    0.00000000   -0.00000000
     atom   10 type  2   force =     0.00000000    0.00000000    0.00000000
     atom   11 type  3   force =    -0.00000000    0.00000000    0.00000000
     atom   12 type  4   force =    -0.00000000    0.00000000   -0.00000000
     atom   13 type  1   force =     0.00000000   -0.00000000   -0.00000000
     atom   14 type  2   force =     0.00000000   -0.00000000    0.00000000
     atom   15 type  3   force =    -0.00000000   -0.00000000    0.00000000
     atom   16 type  4   force =    -0.00000000   -0.00000000   -0.00000000
     atom   17 type  5   force =     0.00000026   -0.00000243    0.00016873

     Total force =     0.002937     Total SCF correction =     0.000169

     Entering Dynamics:    iteration =     5
                           time      =   0.0005 pico-seconds


ATOMIC_POSITIONS (angstrom)
Hf            0.9173507110        0.9173135972        6.0002837354    0   0   0
Nb            0.9176900085        2.7523320100        7.7799550803    0   0   0
Ta            2.7538208285        0.9176860149        7.9177084703    0   0   0
Zr            2.7522059512        2.7526418480        6.0659757673    0   0   0
Hf            0.9173105916        4.5873364617        6.0002711019    0   0   0
Nb            0.9176950052        6.4223291151        7.7797918918    0   0   0
Ta            2.7538243094        4.5876680102        7.9176812404    0   0   0
Zr            2.7522395759        6.4227147098        6.0658425039    0   0   0
Hf            4.5873495791        0.9172816749        6.0000109568    0   0   0
Nb            4.5876207816        2.7523359852        7.7804388155    0   0   0
Ta            6.4210161579        0.9176597836        7.9177312144    0   0   0
Zr            6.4229515852        2.7526427058        6.0658048318    0   0   0
Hf            4.5873841500        4.5873764414        6.0000000000    0   0   0
Nb            4.5876157176        6.4223321265        7.7803118750    0   0   0
Ta            6.4210034632        4.5876595310        7.9177105287    0   0   0
Zr            6.4229215841        6.4226899848        6.0656737289    0   0   0
H             5.0000001073        3.9999995368       12.6637706003


     kinetic energy (Ekin) =           0.55194374 Ry
     temperature           =       58096.68226076 K 
     Ekin + Etot (const)   =       -2069.01026034 Ry

     The maximum number of steps has been reached.

     End of molecular dynamics calculation

     diffusion coefficients :
     atom     1   D =       0.00000000 cm^2/s
     atom     2   D =       0.00000000 cm^2/s
     atom     3   D =       0.00000000 cm^2/s
     atom     4   D =       0.00000000 cm^2/s
     atom     5   D =       0.00000000 cm^2/s
     atom     6   D =       0.00000000 cm^2/s
     atom     7   D =       0.00000000 cm^2/s
     atom     8   D =       0.00000000 cm^2/s
     atom     9   D =       0.00000000 cm^2/s
     atom    10   D =       0.00000000 cm^2/s
     atom    11   D =       0.00000000 cm^2/s
     atom    12   D =       0.00000000 cm^2/s
     atom    13   D =       0.00000000 cm^2/s
     atom    14   D =       0.00000000 cm^2/s
     atom    15   D =       0.00000000 cm^2/s
     atom    16   D =       0.00000000 cm^2/s
     atom    17   D =       0.00060891 cm^2/s

     < D > =       0.00060891 cm^2/s

     Writing all to output data dir ./pwscf.save/

     init_run     :     15.48s CPU     16.20s WALL (       1 calls)
     electrons    :   1273.98s CPU   1306.03s WALL (       5 calls)
     update_pot   :     10.69s CPU     10.74s WALL (       4 calls)
     forces       :     54.10s CPU     55.30s WALL (       5 calls)

     Called by init_run:
     wfcinit      :     10.47s CPU     10.60s WALL (       1 calls)
     potinit      :      1.22s CPU      1.26s WALL (       1 calls)
     hinit0       :      1.99s CPU      2.03s WALL (       1 calls)

     Called by electrons:
     c_bands      :    903.35s CPU    910.03s WALL (      61 calls)
     sum_band     :    247.99s CPU    261.59s WALL (      61 calls)
     v_of_rho     :     16.40s CPU     17.19s WALL (      66 calls)
     newd         :    113.63s CPU    125.55s WALL (      66 calls)
     mix_rho      :      1.77s CPU      1.83s WALL (      61 calls)

     Called by c_bands:
     init_us_2    :      2.10s CPU      2.11s WALL (     256 calls)
     init_us_2:cp :      2.09s CPU      2.11s WALL (     256 calls)
     regterg      :    888.20s CPU    894.80s WALL (     122 calls)

     Called by *egterg:
     rdiaghg      :     11.21s CPU     11.23s WALL (     457 calls)
     h_psi        :    391.00s CPU    396.28s WALL (     467 calls)
     s_psi        :    118.34s CPU    118.47s WALL (     467 calls)
     g_psi        :      0.35s CPU      0.36s WALL (     343 calls)

     Called by h_psi:
     h_psi:calbec :    169.72s CPU    170.05s WALL (     467 calls)
     vloc_psi     :    100.93s CPU    105.66s WALL (     467 calls)
     add_vuspsi   :    119.58s CPU    119.78s WALL (     467 calls)

     General routines
     calbec       :    275.94s CPU    276.47s WALL (     629 calls)
     fft          :     17.63s CPU     18.35s WALL (    1069 calls)
     ffts         :      0.32s CPU      0.36s WALL (      61 calls)
     fftw         :    108.99s CPU    113.88s WALL (   39134 calls)

     Parallel routines

     PWSCF        :  22m42.71s CPU  23m18.31s WALL


   This run was terminated on:  17:44: 7  30May2023            

=------------------------------------------------------------------------------=
   JOB DONE.
=------------------------------------------------------------------------------=
