
     Program PWSCF v.7.2 starts on 29May2023 at 15:53:34 

     This program is part of the open-source Quantum ESPRESSO suite
     for quantum simulation of materials; please cite
         "P. Giannozzi et al., J. Phys.:Condens. Matter 21 395502 (2009);
         "P. Giannozzi et al., J. Phys.:Condens. Matter 29 465901 (2017);
         "P. Giannozzi et al., J. Chem. Phys. 152 154105 (2020);
          URL http://www.quantum-espresso.org", 
     in publications or presentations arising from this work. More details at
     http://www.quantum-espresso.org/quote

     Parallel version (MPI), running on    12 processors

     MPI processes distributed on     1 nodes
     72927 MiB available memory on the printing compute node when the environment starts

     Reading input from HfNbTaZr_32_MD_nsteps_3.in
Warning: card &CELL ignored
Warning: card / ignored

     Current dimensions of program PWSCF are:
     Max number of different atomic species (ntypx) = 10
     Max number of k-points (npk) =  40000
     Max angular momentum in pseudopotentials (lmaxx) =  4

     R & G space division:  proc/nbgrp/npool/nimage =      12
     Subspace diagonalization in iterative solution of the eigenvalue problem:
     one sub-group per band group will be used
     custom distributed-memory algorithm (size of sub-group:  2*  2 procs)


     Parallelization info
     --------------------
     sticks:   dense  smooth     PW     G-vecs:    dense   smooth      PW
     Min        1414    1414    353               247366   247366   30917
     Max        1416    1416    354               247371   247371   30924
     Sum       16977   16977   4237              2968407  2968407  371015

     Using Slab Decomposition



     bravais-lattice index     =            0
     lattice parameter (alat)  =      21.0810  a.u.
     unit-cell volume          =   16715.0832 (a.u.)^3
     number of atoms/cell      =           33
     number of atomic types    =            5
     number of electrons       =       401.00
     number of Kohn-Sham states=          241
     kinetic-energy cutoff     =     120.0000  Ry
     charge density cutoff     =     480.0000  Ry
     scf convergence threshold =      1.0E-06
     mixing beta               =       0.7000
     number of iterations used =            8  TF        mixing
     energy convergence thresh.=      0.0E+00
     force convergence thresh. =      0.0E+00
     Exchange-correlation=  SLA  PW   PBX  PBC
                           (   1   4   3   4   0   0   0)
     nstep                     =            3


     celldm(1)=  21.081029  celldm(2)=   0.000000  celldm(3)=   0.000000
     celldm(4)=   0.000000  celldm(5)=   0.000000  celldm(6)=   0.000000

     crystal axes: (cart. coord. in units of alat)
               a(1) = (   1.000000   0.000000   0.000000 )  
               a(2) = (   0.000000   1.000000   0.000000 )  
               a(3) = (   0.000000   0.000000   1.784157 )  

     reciprocal axes: (cart. coord. in units 2 pi/alat)
               b(1) = (  1.000000  0.000000  0.000000 )  
               b(2) = (  0.000000  1.000000  0.000000 )  
               b(3) = (  0.000000  0.000000  0.560489 )  


     PseudoPot. # 1 for Hf read from file:
     q-e/pseudo/hf_pbe_v1.uspp.F.UPF
     MD5 check sum: 8ee9378dfe14276e333edf04c5e4aa26
     Pseudo is Ultrasoft + core correction, Zval = 12.0
     Generated by new atomic code, or converted to UPF format
     Using radial grid of  921 points,  8 beta functions with: 
                l(1) =   0
                l(2) =   0
                l(3) =   0
                l(4) =   1
                l(5) =   1
                l(6) =   2
                l(7) =   2
                l(8) =   3
     Q(r) pseudized with  6 coefficients,  rinner =    1.200   1.200   1.200
                                                       1.200   1.200   1.200
                                                       1.200

     PseudoPot. # 2 for Nb read from file:
     q-e/pseudo/nb_pbe_v1.uspp.F.UPF
     MD5 check sum: 573aab8a2fa660278ed4a62cd769473f
     Pseudo is Ultrasoft + core correction, Zval = 13.0
     Generated by new atomic code, or converted to UPF format
     Using radial grid of  887 points,  6 beta functions with: 
                l(1) =   0
                l(2) =   0
                l(3) =   1
                l(4) =   1
                l(5) =   2
                l(6) =   2
     Q(r) pseudized with  6 coefficients,  rinner =    1.000   1.000   1.000
                                                       1.000   1.000

     PseudoPot. # 3 for Ta read from file:
     q-e/pseudo/ta_pbe_v1.uspp.F.UPF
     MD5 check sum: f8bbe9446314a3b8ea5d9f3e3836c939
     Pseudo is Ultrasoft + core correction, Zval = 13.0
     Generated by new atomic code, or converted to UPF format
     Using radial grid of  921 points,  7 beta functions with: 
                l(1) =   0
                l(2) =   0
                l(3) =   1
                l(4) =   1
                l(5) =   2
                l(6) =   2
                l(7) =   3
     Q(r) pseudized with  6 coefficients,  rinner =    1.300   1.300   1.300
                                                       1.300   1.300   1.300
                                                       1.300

     PseudoPot. # 4 for Zr read from file:
     q-e/pseudo/zr_pbe_v1.uspp.F.UPF
     MD5 check sum: 5db81b1e868ab7776c4564c113de050b
     Pseudo is Ultrasoft + core correction, Zval = 12.0
     Generated by new atomic code, or converted to UPF format
     Using radial grid of  887 points,  6 beta functions with: 
                l(1) =   0
                l(2) =   0
                l(3) =   1
                l(4) =   1
                l(5) =   2
                l(6) =   2
     Q(r) pseudized with  6 coefficients,  rinner =    1.200   1.200   1.200
                                                       1.200   1.200

     PseudoPot. # 5 for H  read from file:
     q-e/pseudo/h_pbe_v1.4.uspp.F.UPF
     MD5 check sum: 761ae9a214b05c3daf00ab9f6b793d6f
     Pseudo is Ultrasoft, Zval =  1.0
     Generated by new atomic code, or converted to UPF format
     Using radial grid of  615 points,  2 beta functions with: 
                l(1) =   0
                l(2) =   0
     Q(r) pseudized with  8 coefficients,  rinner =    0.700

     atomic species   valence    mass     pseudopotential
        Hf            12.00   178.49000     Hf( 1.00)
        Nb            13.00    92.90637     Nb( 1.00)
        Ta            13.00   180.94788     Ta( 1.00)
        Zr            12.00    91.22400     Zr( 1.00)
        H              1.00     2.01400     H ( 1.00)

     Starting magnetic structure 
     atomic species   magnetization
        Hf           0.000
        Nb           0.000
        Ta           0.000
        Zr           0.000
        H            0.000

     No symmetry found



   Cartesian axes

     site n.     atom                  positions (alat units)
         1           Hf  tau(   1) = (   0.5731145   0.7404958   0.9844628  )
         2           Hf  tau(   2) = (   0.3447907   0.7616507   1.1253639  )
         3           Hf  tau(   3) = (   0.7464765   0.6580926   0.8474053  )
         4           Hf  tau(   4) = (   0.3820207   0.2772416   1.0358862  )
         5           Hf  tau(   5) = (   0.5755731   0.6708274   0.9182556  )
         6           Hf  tau(   6) = (   0.3078274   0.4583263   0.8663115  )
         7           Hf  tau(   7) = (   0.3180393   0.4814659   1.1746589  )
         8           Hf  tau(   8) = (   0.1067994   0.4387866   0.7823969  )
         9           Nb  tau(   9) = (   0.5286784   0.4330562   0.8084355  )
        10           Nb  tau(  10) = (   0.5429107   0.5296681   0.7449288  )
        11           Nb  tau(  11) = (   0.2530243   0.4112763   1.0797146  )
        12           Nb  tau(  12) = (   0.6201202   0.4180227   1.1422896  )
        13           Nb  tau(  13) = (   0.7524742   0.4803995   1.1343400  )
        14           Nb  tau(  14) = (   0.6460732   0.7692949   0.8487915  )
        15           Nb  tau(  15) = (   0.6577156   0.4053897   0.7993776  )
        16           Nb  tau(  16) = (   0.3725342   0.1831313   0.6208729  )
        17           Ta  tau(  17) = (   0.4647195   0.4121922   0.5378465  )
        18           Ta  tau(  18) = (   0.3852011   0.5882510   1.1299510  )
        19           Ta  tau(  19) = (   0.7069178   0.8497184   1.0728874  )
        20           Ta  tau(  20) = (   0.4977491   0.4038641   1.2405956  )
        21           Ta  tau(  21) = (   0.3752317   0.7212455   0.9095954  )
        22           Ta  tau(  22) = (   0.3228181   0.5137139   0.7266422  )
        23           Ta  tau(  23) = (   0.6652680   0.5071056   0.8691829  )
        24           Ta  tau(  24) = (   0.7331470   0.5801395   0.7652881  )
        25           Zr  tau(  25) = (   0.6411621   0.7352989   1.0200695  )
        26           Zr  tau(  26) = (   0.8932685   0.4523337   0.8295980  )
        27           Zr  tau(  27) = (   0.2638383   0.5918708   1.2463108  )
        28           Zr  tau(  28) = (   0.5241621   0.3230914   0.7758768  )
        29           Zr  tau(  29) = (   0.6596770   0.6148775   0.9117137  )
        30           Zr  tau(  30) = (   0.5141313   0.3941063   1.1175332  )
        31           Zr  tau(  31) = (   0.3881330   0.7712565   1.0211573  )
        32           Zr  tau(  32) = (   0.2712638   0.6903453   1.0204173  )
        33           H   tau(  33) = (   0.4482054   0.3585643   0.0089641  )

     number of k points=     1  Gaussian smearing, width (Ry)=  0.0220
                       cart. coord. in units 2pi/alat
        k(    1) = (   0.0000000   0.0000000   0.0000000), wk =   1.0000000

     Dense  grid:  2968407 G-vectors     FFT dimensions: ( 150, 150, 270)

     Estimated max dynamical RAM per process >       2.41 GB

     Estimated total dynamical RAM >      28.93 GB

     Check: negative core charge=   -0.000002
     Generating pointlists ...
     new r_m :   0.0318 (alat units)  0.6694 (a.u.) for type    1
     new r_m :   0.0460 (alat units)  0.9691 (a.u.) for type    2
     new r_m :   0.0470 (alat units)  0.9914 (a.u.) for type    3
     new r_m :   0.0318 (alat units)  0.6694 (a.u.) for type    4
     new r_m :   0.2194 (alat units)  4.6249 (a.u.) for type    5

     Initial potential from superposition of free atoms

     starting charge     384.9520, renormalised to     401.0000

     negative rho (up, down):  9.249E-01 9.249E-01
     Starting wfcs are  417 randomized atomic wfcs

     total cpu time spent up to now is      257.1 secs

     Self-consistent Calculation

     iteration #  1     ecut=   120.00 Ry     beta= 0.70
     Davidson diagonalization with overlap
     ethr =  1.00E-02,  avg # of iterations =  3.0

     negative rho (up, down):  8.674E-01 8.674E-01

     total cpu time spent up to now is      939.4 secs

     total energy              =   -3985.50923764 Ry
     estimated scf accuracy    <     302.36923783 Ry

     total magnetization       =     0.00 Bohr mag/cell
     absolute magnetization    =     0.04 Bohr mag/cell

     iteration #  2     ecut=   120.00 Ry     beta= 0.70
     Davidson diagonalization with overlap
     ethr =  1.00E-02,  avg # of iterations =  5.0

     negative rho (up, down):  8.492E-01 8.492E-01

     total cpu time spent up to now is     1490.6 secs

     total energy              =   -4003.05591826 Ry
     estimated scf accuracy    <      55.89658936 Ry

     total magnetization       =     0.00 Bohr mag/cell
     absolute magnetization    =     0.07 Bohr mag/cell

     iteration #  3     ecut=   120.00 Ry     beta= 0.70
     Davidson diagonalization with overlap
     ethr =  1.00E-02,  avg # of iterations =  4.0

     negative rho (up, down):  8.591E-01 8.594E-01

     total cpu time spent up to now is     1919.9 secs

     total energy              =   -4005.78427608 Ry
     estimated scf accuracy    <      20.29704554 Ry

     total magnetization       =     0.04 Bohr mag/cell
     absolute magnetization    =     0.20 Bohr mag/cell

     iteration #  4     ecut=   120.00 Ry     beta= 0.70
     Davidson diagonalization with overlap
     ethr =  5.06E-03,  avg # of iterations =  7.0

     negative rho (up, down):  8.522E-01 8.524E-01

     total cpu time spent up to now is     2437.0 secs

     total energy              =   -4006.08703437 Ry
     estimated scf accuracy    <      50.91279552 Ry

     total magnetization       =     0.00 Bohr mag/cell
     absolute magnetization    =     0.05 Bohr mag/cell

     iteration #  5     ecut=   120.00 Ry     beta= 0.70
     Davidson diagonalization with overlap
     ethr =  5.06E-03,  avg # of iterations =  1.0

     negative rho (up, down):  8.588E-01 8.590E-01

     total cpu time spent up to now is     2795.7 secs

     total energy              =   -4007.45316192 Ry
     estimated scf accuracy    <       5.41827736 Ry

     total magnetization       =     0.01 Bohr mag/cell
     absolute magnetization    =     0.05 Bohr mag/cell

     iteration #  6     ecut=   120.00 Ry     beta= 0.70
     Davidson diagonalization with overlap
     ethr =  1.35E-03,  avg # of iterations =  2.0

     negative rho (up, down):  8.602E-01 8.606E-01

     total cpu time spent up to now is     3252.3 secs

     total energy              =   -4007.03429183 Ry
     estimated scf accuracy    <       6.20373391 Ry

     total magnetization       =     0.01 Bohr mag/cell
     absolute magnetization    =     0.05 Bohr mag/cell

     iteration #  7     ecut=   120.00 Ry     beta= 0.70
     Davidson diagonalization with overlap
     ethr =  1.35E-03,  avg # of iterations =  1.0

     negative rho (up, down):  8.631E-01 8.635E-01

     total cpu time spent up to now is     3653.1 secs

     total energy              =   -4007.25449417 Ry
     estimated scf accuracy    <       5.15388784 Ry

     total magnetization       =     0.01 Bohr mag/cell
     absolute magnetization    =     0.03 Bohr mag/cell

     iteration #  8     ecut=   120.00 Ry     beta= 0.70
     Davidson diagonalization with overlap
     ethr =  1.29E-03,  avg # of iterations =  1.0

     negative rho (up, down):  8.698E-01 8.702E-01

     total cpu time spent up to now is     4025.6 secs

     total energy              =   -4007.37806405 Ry
     estimated scf accuracy    <       6.73540391 Ry

     total magnetization       =     0.01 Bohr mag/cell
     absolute magnetization    =     0.03 Bohr mag/cell

     iteration #  9     ecut=   120.00 Ry     beta= 0.70
     Davidson diagonalization with overlap
     ethr =  1.29E-03,  avg # of iterations =  1.0

     negative rho (up, down):  8.642E-01 8.645E-01

     total cpu time spent up to now is     4384.1 secs

     total energy              =   -4007.15865354 Ry
     estimated scf accuracy    <       5.06225817 Ry

     total magnetization       =     0.01 Bohr mag/cell
     absolute magnetization    =     0.02 Bohr mag/cell

     iteration # 10     ecut=   120.00 Ry     beta= 0.70
     Davidson diagonalization with overlap
     ethr =  1.26E-03,  avg # of iterations =  1.0

     negative rho (up, down):  8.586E-01 8.587E-01

     total cpu time spent up to now is     4747.9 secs

     total energy              =   -4007.18879028 Ry
     estimated scf accuracy    <       0.82618461 Ry

     total magnetization       =     0.01 Bohr mag/cell
     absolute magnetization    =     0.02 Bohr mag/cell

     iteration # 11     ecut=   120.00 Ry     beta= 0.70
     Davidson diagonalization with overlap
     ethr =  2.06E-04,  avg # of iterations =  2.0

     negative rho (up, down):  8.586E-01 8.588E-01

     total cpu time spent up to now is     5157.7 secs

     total energy              =   -4007.16729455 Ry
     estimated scf accuracy    <       1.05477576 Ry

     total magnetization       =     0.01 Bohr mag/cell
     absolute magnetization    =     0.02 Bohr mag/cell

     iteration # 12     ecut=   120.00 Ry     beta= 0.70
     Davidson diagonalization with overlap
     ethr =  2.06E-04,  avg # of iterations =  1.0

     negative rho (up, down):  8.560E-01 8.560E-01

     total cpu time spent up to now is     5518.7 secs

     total energy              =   -4007.16441743 Ry
     estimated scf accuracy    <       0.51782965 Ry

     total magnetization       =     0.00 Bohr mag/cell
     absolute magnetization    =     0.02 Bohr mag/cell

     iteration # 13     ecut=   120.00 Ry     beta= 0.70
     Davidson diagonalization with overlap
     ethr =  1.29E-04,  avg # of iterations =  2.0

     negative rho (up, down):  8.579E-01 8.579E-01

     total cpu time spent up to now is     5915.5 secs

     total energy              =   -4007.17268229 Ry
     estimated scf accuracy    <       1.15621867 Ry

     total magnetization       =     0.01 Bohr mag/cell
     absolute magnetization    =     0.04 Bohr mag/cell

     iteration # 14     ecut=   120.00 Ry     beta= 0.70
     Davidson diagonalization with overlap
     ethr =  1.29E-04,  avg # of iterations =  1.0

     negative rho (up, down):  9.075E-01 9.076E-01

     total cpu time spent up to now is     6288.0 secs

     total energy              =   -4007.16027929 Ry
     estimated scf accuracy    <       0.96760536 Ry

     total magnetization       =     0.01 Bohr mag/cell
     absolute magnetization    =     0.07 Bohr mag/cell

     iteration # 15     ecut=   120.00 Ry     beta= 0.70
     Davidson diagonalization with overlap
     ethr =  1.29E-04,  avg # of iterations =  1.0

     negative rho (up, down):  9.545E-01 9.536E-01

     total cpu time spent up to now is     6658.9 secs

     total energy              =   -4007.16477223 Ry
     estimated scf accuracy    <       0.36870801 Ry

     total magnetization       =    -0.07 Bohr mag/cell
     absolute magnetization    =     0.23 Bohr mag/cell

     iteration # 16     ecut=   120.00 Ry     beta= 0.70
     Davidson diagonalization with overlap
     ethr =  9.19E-05,  avg # of iterations =  1.5

     negative rho (up, down):  9.898E-01 9.822E-01

     total cpu time spent up to now is     7035.3 secs

     total energy              =   -4007.19829875 Ry
     estimated scf accuracy    <       0.17235935 Ry

     total magnetization       =    -0.61 Bohr mag/cell
     absolute magnetization    =     1.09 Bohr mag/cell

     iteration # 17     ecut=   120.00 Ry     beta= 0.70
     Davidson diagonalization with overlap
     ethr =  4.30E-05,  avg # of iterations =  3.5

     negative rho (up, down):  9.492E-01 9.392E-01

     total cpu time spent up to now is     7440.5 secs

     total energy              =   -4007.21842473 Ry
     estimated scf accuracy    <       0.12336866 Ry

     total magnetization       =    -0.55 Bohr mag/cell
     absolute magnetization    =     1.58 Bohr mag/cell

     iteration # 18     ecut=   120.00 Ry     beta= 0.70
     Davidson diagonalization with overlap
     ethr =  3.08E-05,  avg # of iterations =  9.5

     negative rho (up, down):  1.098E+00 9.836E-01

     total cpu time spent up to now is     7865.5 secs

     total energy              =   -4007.21033579 Ry
     estimated scf accuracy    <       0.12945433 Ry

     total magnetization       =    -0.16 Bohr mag/cell
     absolute magnetization    =     2.08 Bohr mag/cell

     iteration # 19     ecut=   120.00 Ry     beta= 0.70
     Davidson diagonalization with overlap
