
     Program PWSCF v.7.2 starts on  4Jun2023 at 17:44:11 

     This program is part of the open-source Quantum ESPRESSO suite
     for quantum simulation of materials; please cite
         "P. Giannozzi et al., J. Phys.:Condens. Matter 21 395502 (2009);
         "P. Giannozzi et al., J. Phys.:Condens. Matter 29 465901 (2017);
         "P. Giannozzi et al., J. Chem. Phys. 152 154105 (2020);
          URL http://www.quantum-espresso.org", 
     in publications or presentations arising from this work. More details at
     http://www.quantum-espresso.org/quote

     Parallel version (MPI), running on    12 processors

     MPI processes distributed on     1 nodes
     76976 MiB available memory on the printing compute node when the environment starts

     Reading input from md_Hf5Ta6Nb16Zr8H.in
Warning: card &CELL ignored
Warning: card / ignored

     Current dimensions of program PWSCF are:
     Max number of different atomic species (ntypx) = 10
     Max number of k-points (npk) =  40000
     Max angular momentum in pseudopotentials (lmaxx) =  4

     File outdir/pwscf.md deleted, as requested

     gamma-point specific algorithms are used

     R & G space division:  proc/nbgrp/npool/nimage =      12
     Subspace diagonalization in iterative solution of the eigenvalue problem:
     one sub-group per band group will be used
     custom distributed-memory algorithm (size of sub-group:  3*  3 procs)


     Parallelization info
     --------------------
     sticks:   dense  smooth     PW     G-vecs:    dense   smooth      PW
     Min         617     617    154                58098    58098    7258
     Max         620     620    156                58116    58116    7272
     Sum        7425    7425   1861               697253   697253   87179

     Using Slab Decomposition



     bravais-lattice index     =            0
     lattice parameter (alat)  =      13.9462  a.u.
     unit-cell volume          =    3925.3696 (a.u.)^3
     number of atoms/cell      =           36
     number of atomic types    =            5
     number of electrons       =       443.00
     number of Kohn-Sham states=          266
     kinetic-energy cutoff     =     120.0000  Ry
     charge density cutoff     =     480.0000  Ry
     scf convergence threshold =      1.0E-03
     mixing beta               =       0.7000
     number of iterations used =            8  TF        mixing
     energy convergence thresh.=      0.0E+00
     force convergence thresh. =      0.0E+00
     Exchange-correlation=  SLA  PW   PBX  PBC
                           (   1   4   3   4   0   0   0)
     nstep                     =           10


     celldm(1)=  13.946178  celldm(2)=   0.000000  celldm(3)=   0.000000
     celldm(4)=   0.000000  celldm(5)=   0.000000  celldm(6)=   0.000000

     crystal axes: (cart. coord. in units of alat)
               a(1) = (   1.000000   0.000000   0.000000 )  
               a(2) = (   0.000000   1.000000   0.000000 )  
               a(3) = (   0.000000   0.000000   1.447154 )  

     reciprocal axes: (cart. coord. in units 2 pi/alat)
               b(1) = (  1.000000  0.000000  0.000000 )  
               b(2) = (  0.000000  1.000000  0.000000 )  
               b(3) = (  0.000000  0.000000  0.691011 )  


     PseudoPot. # 1 for Hf read from file:
     q-e/pseudo/hf_pbe_v1.uspp.F.UPF
     MD5 check sum: 8ee9378dfe14276e333edf04c5e4aa26
     Pseudo is Ultrasoft + core correction, Zval = 12.0
     Generated by new atomic code, or converted to UPF format
     Using radial grid of  921 points,  8 beta functions with: 
                l(1) =   0
                l(2) =   0
                l(3) =   0
                l(4) =   1
                l(5) =   1
                l(6) =   2
                l(7) =   2
                l(8) =   3
     Q(r) pseudized with  6 coefficients,  rinner =    1.200   1.200   1.200
                                                       1.200   1.200   1.200
                                                       1.200

     PseudoPot. # 2 for Ta read from file:
     q-e/pseudo/ta_pbe_v1.uspp.F.UPF
     MD5 check sum: f8bbe9446314a3b8ea5d9f3e3836c939
     Pseudo is Ultrasoft + core correction, Zval = 13.0
     Generated by new atomic code, or converted to UPF format
     Using radial grid of  921 points,  7 beta functions with: 
                l(1) =   0
                l(2) =   0
                l(3) =   1
                l(4) =   1
                l(5) =   2
                l(6) =   2
                l(7) =   3
     Q(r) pseudized with  6 coefficients,  rinner =    1.300   1.300   1.300
                                                       1.300   1.300   1.300
                                                       1.300

     PseudoPot. # 3 for Nb read from file:
     q-e/pseudo/nb_pbe_v1.uspp.F.UPF
     MD5 check sum: 573aab8a2fa660278ed4a62cd769473f
     Pseudo is Ultrasoft + core correction, Zval = 13.0
     Generated by new atomic code, or converted to UPF format
     Using radial grid of  887 points,  6 beta functions with: 
                l(1) =   0
                l(2) =   0
                l(3) =   1
                l(4) =   1
                l(5) =   2
                l(6) =   2
     Q(r) pseudized with  6 coefficients,  rinner =    1.000   1.000   1.000
                                                       1.000   1.000

     PseudoPot. # 4 for Zr read from file:
     q-e/pseudo/zr_pbe_v1.uspp.F.UPF
     MD5 check sum: 5db81b1e868ab7776c4564c113de050b
     Pseudo is Ultrasoft + core correction, Zval = 12.0
     Generated by new atomic code, or converted to UPF format
     Using radial grid of  887 points,  6 beta functions with: 
                l(1) =   0
                l(2) =   0
                l(3) =   1
                l(4) =   1
                l(5) =   2
                l(6) =   2
     Q(r) pseudized with  6 coefficients,  rinner =    1.200   1.200   1.200
                                                       1.200   1.200

     PseudoPot. # 5 for H  read from file:
     q-e/pseudo/h_pbe_v1.4.uspp.F.UPF
     MD5 check sum: 761ae9a214b05c3daf00ab9f6b793d6f
     Pseudo is Ultrasoft, Zval =  1.0
     Generated by new atomic code, or converted to UPF format
     Using radial grid of  615 points,  2 beta functions with: 
                l(1) =   0
                l(2) =   0
     Q(r) pseudized with  8 coefficients,  rinner =    0.700

     atomic species   valence    mass     pseudopotential
        Hf            12.00   178.49000     Hf( 1.00)
        Ta            13.00   180.94788     Ta( 1.00)
        Nb            13.00    92.90637     Nb( 1.00)
        Zr            12.00    91.22400     Zr( 1.00)
        H              1.00     2.01400     H ( 1.00)

     Starting magnetic structure 
     atomic species   magnetization
        Hf           0.000
        Ta           0.000
        Nb           0.000
        Zr           0.000
        H            0.000

     No symmetry found



   Cartesian axes

     site n.     atom                  positions (alat units)
         1           Hf  tau(   1) = (   0.2533875   0.7059621   0.9498645  )
         2           Hf  tau(   2) = (   0.4796748   0.0271003   0.7235772  )
         3           Hf  tau(   3) = (   0.4796748   0.9322493   0.7235772  )
         4           Hf  tau(   4) = (   0.0271003   0.4796748   0.2710027  )
         5           Hf  tau(   5) = (   0.9322493   0.4796748   0.2710027  )
         6           Ta  tau(   6) = (   0.4796748   0.0271003   0.2710027  )
         7           Ta  tau(   7) = (   0.4796748   0.9322493   0.2710027  )
         8           Ta  tau(   8) = (   0.7059621   0.2533875   0.9498645  )
         9           Ta  tau(   9) = (   0.7059621   0.7059621   0.4972900  )
        10           Ta  tau(  10) = (   0.0271003   0.4796748   1.1761518  )
        11           Ta  tau(  11) = (   0.9322493   0.4796748   1.1761518  )
        12           Nb  tau(  12) = (   0.2533875   0.2533875   0.9498645  )
        13           Nb  tau(  13) = (   0.4796748   0.4796748   0.7235772  )
        14           Nb  tau(  14) = (   0.4796748   0.4796748   1.1761518  )
        15           Nb  tau(  15) = (   0.4796748   0.0271003   1.1761518  )
        16           Nb  tau(  16) = (   0.4796748   0.9322493   1.1761518  )
        17           Nb  tau(  17) = (   0.7059621   0.7059621   0.9498645  )
        18           Nb  tau(  18) = (   0.0271003   0.4796748   0.7235772  )
        19           Nb  tau(  19) = (   0.9322493   0.4796748   0.7235772  )
        20           Nb  tau(  20) = (   0.0271003   0.0271003   0.7235772  )
        21           Nb  tau(  21) = (   0.0271003   0.9322493   0.7235772  )
        22           Nb  tau(  22) = (   0.9322493   0.0271003   0.7235772  )
        23           Nb  tau(  23) = (   0.9322493   0.9322493   0.7235772  )
        24           Nb  tau(  24) = (   0.0271003   0.0271003   0.2710027  )
        25           Nb  tau(  25) = (   0.0271003   0.9322493   0.2710027  )
        26           Nb  tau(  26) = (   0.9322493   0.0271003   0.2710027  )
        27           Nb  tau(  27) = (   0.9322493   0.9322493   0.2710027  )
        28           Zr  tau(  28) = (   0.2533875   0.2533875   0.4972900  )
        29           Zr  tau(  29) = (   0.2533875   0.7059621   0.4972900  )
        30           Zr  tau(  30) = (   0.4796748   0.4796748   0.2710027  )
        31           Zr  tau(  31) = (   0.7059621   0.2533875   0.4972900  )
        32           Zr  tau(  32) = (   0.0271003   0.0271003   1.1761518  )
        33           Zr  tau(  33) = (   0.0271003   0.9322493   1.1761518  )
        34           Zr  tau(  34) = (   0.9322493   0.0271003   1.1761518  )
        35           Zr  tau(  35) = (   0.9322493   0.9322493   1.1761518  )
        36           H   tau(  36) = (   0.4796748   1.0677507   0.7235772  )

     number of k points=     1  Gaussian smearing, width (Ry)=  0.0220
                       cart. coord. in units 2pi/alat
        k(    1) = (   0.0000000   0.0000000   0.0000000), wk =   1.0000000

     Dense  grid:   348627 G-vectors     FFT dimensions: ( 100, 100, 144)

     Estimated max dynamical RAM per process >     330.85 MB

     Estimated total dynamical RAM >       3.88 GB

     Check: negative core charge=   -0.000002
     Generating pointlists ...
     new r_m :   0.0168 (alat units)  0.2339 (a.u.) for type    1
     new r_m :   0.0391 (alat units)  0.5457 (a.u.) for type    2
     new r_m :   0.0391 (alat units)  0.5457 (a.u.) for type    3
     new r_m :   0.0391 (alat units)  0.5457 (a.u.) for type    4
     new r_m :   0.0168 (alat units)  0.2339 (a.u.) for type    5

     Initial potential from superposition of free atoms

     starting charge     432.9324, renormalised to     443.0000

     negative rho (up, down):  3.722E-01 3.722E-01
     Starting wfcs are  456 randomized atomic wfcs

     total cpu time spent up to now is       40.6 secs

     Self-consistent Calculation

     iteration #  1     ecut=   120.00 Ry     beta= 0.70
     Davidson diagonalization with overlap
     ethr =  1.00E-02,  avg # of iterations =  9.0

     negative rho (up, down):  4.591E-01 4.589E-01

     total cpu time spent up to now is      229.7 secs

     total energy              =   -3230.52101461 Ry
     estimated scf accuracy    <     715.67737258 Ry

     total magnetization       =     0.02 Bohr mag/cell
     absolute magnetization    =     0.15 Bohr mag/cell

     iteration #  2     ecut=   120.00 Ry     beta= 0.70
     Davidson diagonalization with overlap
     ethr =  1.00E-02,  avg # of iterations =  5.0

     negative rho (up, down):  5.192E-01 5.191E-01

     total cpu time spent up to now is      331.7 secs

     total energy              =   -3333.98178518 Ry
     estimated scf accuracy    <     104.24007389 Ry

     total magnetization       =     0.07 Bohr mag/cell
     absolute magnetization    =     0.17 Bohr mag/cell

     iteration #  3     ecut=   120.00 Ry     beta= 0.70
     Davidson diagonalization with overlap
     ethr =  1.00E-02,  avg # of iterations =  2.5

     negative rho (up, down):  5.382E-01 5.381E-01

     total cpu time spent up to now is      400.0 secs

     total energy              =   -3336.96175843 Ry
     estimated scf accuracy    <      15.95616623 Ry

     total magnetization       =     0.13 Bohr mag/cell
     absolute magnetization    =     0.43 Bohr mag/cell

     iteration #  4     ecut=   120.00 Ry     beta= 0.70
     Davidson diagonalization with overlap
     ethr =  3.60E-03,  avg # of iterations =  5.0

     negative rho (up, down):  5.481E-01 5.481E-01

     total cpu time spent up to now is      459.0 secs

     total energy              =   -3336.86045604 Ry
     estimated scf accuracy    <       8.38605590 Ry

     total magnetization       =     0.05 Bohr mag/cell
     absolute magnetization    =     0.28 Bohr mag/cell

     iteration #  5     ecut=   120.00 Ry     beta= 0.70
     Davidson diagonalization with overlap
     ethr =  1.89E-03,  avg # of iterations =  2.0

     negative rho (up, down):  5.603E-01 5.603E-01

     total cpu time spent up to now is      516.1 secs

     total energy              =   -3336.83696115 Ry
     estimated scf accuracy    <       6.73025993 Ry

     total magnetization       =     0.06 Bohr mag/cell
     absolute magnetization    =     0.17 Bohr mag/cell

     iteration #  6     ecut=   120.00 Ry     beta= 0.70
     Davidson diagonalization with overlap
     ethr =  1.52E-03,  avg # of iterations =  4.0

     negative rho (up, down):  5.587E-01 5.587E-01

     total cpu time spent up to now is      571.4 secs

     total energy              =   -3336.77538310 Ry
     estimated scf accuracy    <       2.00735874 Ry

     total magnetization       =     0.04 Bohr mag/cell
     absolute magnetization    =     0.15 Bohr mag/cell

     iteration #  7     ecut=   120.00 Ry     beta= 0.70
     Davidson diagonalization with overlap
     ethr =  4.53E-04,  avg # of iterations =  8.5

     negative rho (up, down):  5.535E-01 5.535E-01

     total cpu time spent up to now is      629.7 secs

     total energy              =   -3336.75922542 Ry
     estimated scf accuracy    <       0.62217126 Ry

     total magnetization       =     0.05 Bohr mag/cell
     absolute magnetization    =     0.12 Bohr mag/cell

     iteration #  8     ecut=   120.00 Ry     beta= 0.70
     Davidson diagonalization with overlap
     ethr =  1.40E-04,  avg # of iterations =  5.5

     negative rho (up, down):  5.520E-01 5.520E-01

     total cpu time spent up to now is      687.7 secs

     total energy              =   -3336.77629476 Ry
     estimated scf accuracy    <       0.16715586 Ry

     total magnetization       =     0.07 Bohr mag/cell
     absolute magnetization    =     0.12 Bohr mag/cell

     iteration #  9     ecut=   120.00 Ry     beta= 0.70
     Davidson diagonalization with overlap
     c_bands:  1 eigenvalues not converged
     ethr =  3.77E-05,  avg # of iterations = 19.5

     negative rho (up, down):  5.520E-01 5.520E-01

     total cpu time spent up to now is      748.6 secs

     total energy              =   -3336.78003117 Ry
     estimated scf accuracy    <       0.07599609 Ry

     total magnetization       =     0.08 Bohr mag/cell
     absolute magnetization    =     0.12 Bohr mag/cell

     iteration # 10     ecut=   120.00 Ry     beta= 0.70
     Davidson diagonalization with overlap
     ethr =  1.72E-05,  avg # of iterations =  3.5

     negative rho (up, down):  5.526E-01 5.526E-01

     total cpu time spent up to now is      805.0 secs

     total energy              =   -3336.78207553 Ry
     estimated scf accuracy    <       0.02848509 Ry

     total magnetization       =     0.11 Bohr mag/cell
     absolute magnetization    =     0.13 Bohr mag/cell

     iteration # 11     ecut=   120.00 Ry     beta= 0.70
     Davidson diagonalization with overlap
     ethr =  6.43E-06,  avg # of iterations =  7.5

     negative rho (up, down):  5.531E-01 5.531E-01

     total cpu time spent up to now is      863.9 secs

     total energy              =   -3336.78396299 Ry
     estimated scf accuracy    <       0.00775338 Ry

     total magnetization       =     0.13 Bohr mag/cell
     absolute magnetization    =     0.15 Bohr mag/cell

     iteration # 12     ecut=   120.00 Ry     beta= 0.70
     Davidson diagonalization with overlap
     ethr =  1.75E-06,  avg # of iterations =  7.5

     negative rho (up, down):  5.534E-01 5.534E-01

     total cpu time spent up to now is      921.7 secs

     total energy              =   -3336.78450077 Ry
     estimated scf accuracy    <       0.00231395 Ry

     total magnetization       =     0.16 Bohr mag/cell
     absolute magnetization    =     0.17 Bohr mag/cell

     iteration # 13     ecut=   120.00 Ry     beta= 0.70
     Davidson diagonalization with overlap
     ethr =  5.22E-07,  avg # of iterations =  2.0

     negative rho (up, down):  5.531E-01 5.532E-01

     Magnetic moment per site  (integrated on atomic sphere of radius R)
     atom   1 (R=0.017)  charge= -0.0512  magn= -0.0000
     atom   2 (R=0.017)  charge= -0.0392  magn=  0.0000
     atom   3 (R=0.017)  charge= -0.0576  magn=  0.0000
     atom   4 (R=0.017)  charge= -0.0585  magn=  0.0000
     atom   5 (R=0.017)  charge= -0.0585  magn=  0.0000
     atom   6 (R=0.039)  charge=  0.3911  magn=  0.0000
     atom   7 (R=0.039)  charge=  0.3915  magn=  0.0000
     atom   8 (R=0.039)  charge=  0.0810  magn=  0.0000
     atom   9 (R=0.039)  charge=  0.0814  magn=  0.0000
     atom  10 (R=0.039)  charge=  0.3912  magn=  0.0000
     atom  11 (R=0.039)  charge=  0.3916  magn=  0.0000
     atom  12 (R=0.039)  charge=  0.3674  magn=  0.0002
     atom  13 (R=0.039)  charge=  0.3664  magn=  0.0001
     atom  14 (R=0.039)  charge=  0.3671  magn=  0.0015
     atom  15 (R=0.039)  charge=  0.9018  magn=  0.0000
     atom  16 (R=0.039)  charge=  0.9026  magn=  0.0000
     atom  17 (R=0.039)  charge=  0.3678  magn= -0.0000
     atom  18 (R=0.039)  charge=  0.9015  magn=  0.0000
     atom  19 (R=0.039)  charge=  0.9015  magn=  0.0001
     atom  20 (R=0.039)  charge=  1.4747  magn=  0.0001
     atom  21 (R=0.039)  charge=  1.4766  magn=  0.0001
     atom  22 (R=0.039)  charge=  1.4765  magn=  0.0001
     atom  23 (R=0.039)  charge=  1.4775  magn=  0.0001
     atom  24 (R=0.039)  charge=  1.4752  magn=  0.0000
     atom  25 (R=0.039)  charge=  1.4770  magn=  0.0000
     atom  26 (R=0.039)  charge=  1.4770  magn=  0.0000
     atom  27 (R=0.039)  charge=  1.4777  magn=  0.0000
     atom  28 (R=0.039)  charge=  0.0940  magn=  0.0000
     atom  29 (R=0.039)  charge=  0.0939  magn=  0.0000
     atom  30 (R=0.039)  charge=  0.0957  magn=  0.0001
     atom  31 (R=0.039)  charge=  0.0938  magn=  0.0000
     atom  32 (R=0.039)  charge=  1.0803  magn=  0.0000
     atom  33 (R=0.039)  charge=  1.0819  magn=  0.0000
     atom  34 (R=0.039)  charge=  1.0818  magn=  0.0000
     atom  35 (R=0.039)  charge=  1.0828  magn=  0.0000
     atom  36 (R=0.017)  charge=  0.0909  magn=  0.0000

     total cpu time spent up to now is      979.0 secs

     End of self-consistent calculation

 ------ SPIN UP ------------


          k = 0.0000 0.0000 0.0000 ( 43590 PWs)   bands (ev):

  -153.2804-152.9676-149.7447-149.6299-144.0674-142.5439-111.6269 -89.3719
   -89.3301 -89.2902 -89.2697 -88.8502 -88.7422 -80.0987 -79.6854 -77.3324
   -66.9821 -66.9169 -64.4139 -64.4064 -55.6668 -55.5669 -55.5321 -55.4828
   -51.3507 -51.2048 -50.4979 -50.2235 -49.4973 -46.8820 -46.8380 -46.4595
   -45.1440 -45.1027 -44.7867 -44.6802 -44.6283 -44.3807 -43.8603 -43.7919
   -40.4685 -40.4405 -40.4246 -40.4127 -37.2485 -37.1867 -36.5223 -36.1667
   -34.7219 -34.7199 -34.6209 -34.3116 -32.6562 -31.6546 -31.0453 -31.0051
   -30.9874 -30.7385 -30.6767 -30.6673 -30.6580 -30.5924 -26.3524 -26.2118
   -23.8526 -18.9887 -18.6184 -18.4069 -17.1215 -17.0007 -16.9577 -16.8729
   -16.7475 -16.7177 -16.6353 -16.6265 -16.5892 -16.5228 -15.7027 -15.4839
   -15.2325 -13.5312 -13.4828 -13.4347 -13.4080 -13.3966 -13.3522 -13.3388
   -13.3197 -13.2234 -12.6535 -12.5237 -12.5017 -12.3560 -12.3297 -12.2997
   -12.2701 -12.1849 -10.5356 -10.4826  -9.4111  -9.3767  -9.3316  -9.3053
    -9.2439  -9.1574  -9.1191  -9.0725  -9.0094  -8.6576  -8.4875  -8.4751
    -7.7954  -7.6934  -7.6023  -7.5598  -5.0420  -5.0137  -4.9072  -4.8543
    -4.8228  -4.3909  -4.3561  -3.0033  -2.9771  -2.5955  -2.4689  -0.8197
    -0.7064  -0.6437  -0.6324  -0.5842  -0.4655   0.4847   1.3449   1.3862
     1.4349   1.4846   2.5367   2.5796   2.9574   3.0223   3.6136   3.7984
     4.0916   4.4610   5.0282   5.2466   5.3877   5.5190   5.7097   5.7632
     6.1212   7.6874   7.7190   7.7814   7.8162   7.8402   7.9724   7.9912
     8.3416   8.5468   9.1601   9.6266   9.8939  10.3111  10.4782  10.5106
    10.5964  10.9330  10.9474  11.0311  11.0671  11.1916  11.3896  11.4594
    11.6241  11.6967  11.8462  12.1414  12.2777  12.3880  12.4693  12.5509
    12.7302  12.7581  12.7685  13.1404  13.2568  14.2877  14.6601  14.7554
    15.1309  15.1978  15.2480  15.3042  15.3797  15.5179  15.6048  15.6952
    15.9374  16.0959  16.1120  16.1811  16.2045  16.2509  16.4201  16.4526
    16.5049  16.7445  16.8503  16.9359  17.1267  17.1793  17.6239  17.6427
    17.6901  17.8491  17.8735  17.9296  17.9738  18.0498  18.0866  18.1537
    18.2036  18.2207  18.3625  18.5052  18.5454  18.7384  18.8417  18.9297
    18.9508  19.0159  19.1187  19.1639  19.2297  19.2458  19.4210  19.5222
    19.6673  19.6830  19.8918  19.9366  20.0536  20.1364  20.1920  20.1986
    20.2924  20.3646  20.3959  20.4182  20.5402  20.6299  20.6810  20.8306
    20.9210  20.9323  21.0659  21.1532  21.3051  21.3350  21.3826  21.4447
    21.5567  21.6305

 ------ SPIN DOWN ----------


          k = 0.0000 0.0000 0.0000 ( 43590 PWs)   bands (ev):

  -153.2801-152.9650-149.7441-149.6297-144.0673-142.5438-111.6267 -89.3718
   -89.3299 -89.2891 -89.2686 -88.8498 -88.7415 -80.0983 -79.6851 -77.3321
   -66.9820 -66.9158 -64.4135 -64.4061 -55.6664 -55.5664 -55.5320 -55.4826
   -51.3499 -51.2046 -50.4970 -50.2222 -49.4971 -46.8818 -46.8378 -46.4592
   -45.1437 -45.1024 -44.7863 -44.6799 -44.6272 -44.3806 -43.8603 -43.7917
   -40.4683 -40.4403 -40.4240 -40.4121 -37.2497 -37.1829 -36.4903 -36.1656
   -34.7206 -34.7190 -34.6208 -34.3107 -32.6558 -31.6540 -31.0437 -31.0037
   -30.9862 -30.7376 -30.6764 -30.6670 -30.6579 -30.5880 -26.3514 -26.2115
   -23.8522 -18.9886 -18.6178 -18.4064 -17.1198 -17.0000 -16.9563 -16.8715
   -16.7460 -16.7159 -16.6343 -16.6256 -16.5876 -16.5226 -15.7017 -15.4831
   -15.2314 -13.5298 -13.4824 -13.4327 -13.4070 -13.3928 -13.3494 -13.3362
   -13.3157 -13.2206 -12.6142 -12.4898 -12.4713 -12.3550 -12.3289 -12.2990
   -12.2690 -12.1833 -10.5348 -10.4824  -9.4089  -9.3746  -9.3292  -9.3030
    -9.2422  -9.1557  -9.1177  -9.0711  -9.0079  -8.6513  -8.4837  -8.4717
    -7.7945  -7.6921  -7.6020  -7.5594  -5.0409  -5.0126  -4.9069  -4.8541
    -4.8226  -4.3904  -4.3559  -3.0024  -2.9764  -2.5945  -2.4680  -0.8187
    -0.7064  -0.6434  -0.6319  -0.5837  -0.4650   0.4852   1.3454   1.3867
     1.4351   1.4848   2.5373   2.5801   2.9577   3.0228   3.6142   3.7994
     4.0921   4.4613   5.0287   5.2469   5.3882   5.5198   5.7104   5.7634
     6.1216   7.6882   7.7198   7.7816   7.8165   7.8404   7.9729   7.9918
     8.3420   8.5470   9.1606   9.6277   9.8957  10.3124  10.4794  10.5118
    10.5968  10.9342  10.9487  11.0329  11.0687  11.1933  11.3905  11.4604
    11.6254  11.6970  11.8483  12.1428  12.2789  12.3891  12.4707  12.5519
    12.7322  12.7597  12.7694  13.1418  13.2584  14.2932  14.6618  14.7586
    15.1337  15.2007  15.2516  15.3073  15.3812  15.5248  15.6049  15.7007
    15.9430  16.1005  16.1162  16.1840  16.2065  16.2534  16.4275  16.4596
    16.5118  16.7482  16.8576  16.9422  17.1341  17.1911  17.6263  17.6471
    17.6925  17.8591  17.8816  17.9374  17.9860  18.0648  18.1053  18.1611
    18.2089  18.2648  18.3682  18.5097  18.5491  18.7428  18.8488  18.9316
    18.9535  19.0224  19.1338  19.1695  19.2330  19.2494  19.4238  19.5260
    19.6723  19.6858  19.8950  19.9386  20.0583  20.1486  20.1956  20.2044
    20.2961  20.3683  20.4014  20.4236  20.5463  20.6337  20.6852  20.8339
    20.9292  20.9362  21.0738  21.1624  21.3149  21.3440  21.3918  21.4523
    21.5642  21.6327

     the Fermi energy is    18.0456 ev

!    total energy              =   -3336.78453466 Ry
     estimated scf accuracy    <       0.00051833 Ry
     smearing contrib. (-TS)   =      -0.10527443 Ry
     internal energy E=F+TS    =   -3336.67926023 Ry

     total magnetization       =     0.20 Bohr mag/cell
     absolute magnetization    =     0.22 Bohr mag/cell

     convergence has been achieved in  13 iterations

     negative rho (up, down):  5.531E-01 5.532E-01

     Forces acting on atoms (cartesian axes, Ry/au):

     atom    1 type  1   force =     0.03564397   -0.03084968   -0.01667869
     atom    2 type  1   force =     0.00182989   -8.26128203    0.01897024
     atom    3 type  1   force =    -0.00247205  -69.15249468    0.01598356
     atom    4 type  1   force =    63.86677305   -0.00317758   -0.06882226
     atom    5 type  1   force =   -63.87252268    0.00553640   -0.07113250
     atom    6 type  2   force =    -0.00527344  109.82314777   -0.07908593
     atom    7 type  2   force =     0.00290248 -109.82660962   -0.06943733
     atom    8 type  2   force =    -0.05629287    0.05148779   -0.02294514
     atom    9 type  2   force =    -0.03775457   -0.05276350    0.00581898
     atom   10 type  2   force =   109.72079256    0.00901562    0.08585191
     atom   11 type  2   force =  -109.72263328   -0.00870166    0.08681719
     atom   12 type  3   force =     0.05455049    0.04601040   -0.01121790
     atom   13 type  3   force =     0.02557989    0.00326412    0.02266050
     atom   14 type  3   force =     0.01357898   -0.01045725   -0.06236033
     atom   15 type  3   force =     0.01011189  118.89342183    0.08555116
     atom   16 type  3   force =    -0.00971135 -118.89066057    0.07338452
     atom   17 type  3   force =    -0.05331136   -0.05368116   -0.02086186
     atom   18 type  3   force =   118.90871255    0.00631480   -0.00672231
     atom   19 type  3   force =  -118.90520819   -0.00505914   -0.01162165
     atom   20 type  3   force =   128.33234633  128.43259991   -0.01202390
     atom   21 type  3   force =   128.35079616 -128.45197526    0.00161313
     atom   22 type  3   force =  -128.35599951  128.42963755   -0.00145522
     atom   23 type  3   force =  -128.33003281 -128.40814024   -0.00364744
     atom   24 type  3   force =   128.32863168  128.19067303   -0.02450863
     atom   25 type  3   force =   128.30518847 -128.18129676   -0.02776995
     atom   26 type  3   force =  -128.32133983  128.16319950   -0.02723746
     atom   27 type  3   force =  -128.31758630 -128.17741498   -0.03155108
     atom   28 type  4   force =    -0.00018154    0.01907020   -0.00721571
     atom   29 type  4   force =     0.01239981   -0.01676301    0.00100290
     atom   30 type  4   force =     0.01539289    0.01428061    0.03855355
     atom   31 type  4   force =     0.00444268    0.02824698    0.00337492
     atom   32 type  4   force =   120.76888003  120.75575386    0.03731425
     atom   33 type  4   force =   120.74923056 -120.73825279    0.02573411
     atom   34 type  4   force =  -120.75475601  120.73811502    0.03334053
     atom   35 type  4   force =  -120.76604490 -120.74962268    0.03755470
     atom   36 type  5   force =     0.00333634   77.40942722    0.00276916
     The non-local contrib.  to forces
     atom    1 type  1   force =    -0.23069542    0.22844166    0.02910746
     atom    2 type  1   force =    -0.00362591  -59.85988452   -0.01360997
     atom    3 type  1   force =    -0.02999808   58.00758690    0.01334461
     atom    4 type  1   force =   -60.44426195   -0.00082686    0.12375178
     atom    5 type  1   force =    60.45567127   -0.00734693    0.11086579
     atom    6 type  2   force =    -0.00650073  -42.48199784    0.11563822
     atom    7 type  2   force =    -0.01044196   42.49842816    0.11273536
     atom    8 type  2   force =     0.25002595   -0.28763294    0.03039519
     atom    9 type  2   force =     0.24990015    0.26304147    0.02284922
     atom   10 type  2   force =   -42.58201506    0.02500994   -0.11449646
     atom   11 type  2   force =    42.59955400    0.00141583   -0.10420376
     atom   12 type  3   force =     0.07711574    0.08089691   -0.00029552
     atom   13 type  3   force =     0.00253091    0.00689275    0.02051170
     atom   14 type  3   force =     0.00688921   -0.00507915   -0.11934999
     atom   15 type  3   force =     0.00417639   -6.89786359    0.00948718
     atom   16 type  3   force =    -0.01910551    6.86611756    0.00073160
     atom   17 type  3   force =    -0.09393440   -0.08390878    0.01336759
     atom   18 type  3   force =    -6.84850088    0.00814128    0.03248767
     atom   19 type  3   force =     6.90240659   -0.01055771    0.02708383
     atom   20 type  3   force =   -13.90090253  -13.77593649   -0.04205614
     atom   21 type  3   force =   -13.85605784   13.71662621   -0.01115920
     atom   22 type  3   force =    13.87995145  -13.75448177   -0.03064521
     atom   23 type  3   force =    13.94083338   13.79867657   -0.01467234
     atom   24 type  3   force =   -14.05589999  -14.27836601   -0.07850553
     atom   25 type  3   force =   -14.06733524   14.28980690   -0.07954060
     atom   26 type  3   force =    14.05473895  -14.30004332   -0.07978382
     atom   27 type  3   force =    14.06587391   14.30407232   -0.10214664
     atom   28 type  4   force =     0.07622063    0.04622678    0.02593765
     atom   29 type  4   force =     0.07051735   -0.03386359    0.03303750
     atom   30 type  4   force =     0.01283512    0.00571988    0.01228824
     atom   31 type  4   force =    -0.06704328    0.04072036    0.03269975
     atom   32 type  4   force =    -4.91014105   -4.91969815   -0.08441140
     atom   33 type  4   force =    -4.91217265    4.91492215   -0.10989432
     atom   34 type  4   force =     4.91978767   -4.93334564   -0.11925406
     atom   35 type  4   force =     4.91265331    4.92348820   -0.07781497
     atom   36 type  5   force =     0.00031793    2.03826569    0.00083753
     The ionic contribution  to forces
     atom    1 type  1   force =    15.38684720  -14.72537559   21.12116055
     atom    2 type  1   force =    -0.44829233   86.11084088   -0.59015529
     atom    3 type  1   force =    -0.73123510 -167.40470328   -0.29185292
     atom    4 type  1   force =   163.09287350   -0.16014380  -34.76763203
     atom    5 type  1   force =  -162.38951639   -0.30599890  -34.92240670
     atom    6 type  2   force =    -0.27593138  191.36682037  -37.29663167
     atom    7 type  2   force =    -0.43394108 -190.91453018  -37.38833491
     atom    8 type  2   force =   -16.47736625   16.14316971   23.17923238
     atom    9 type  2   force =   -17.69527270  -18.09062637  -23.49802725
     atom   10 type  2   force =   190.92232056    0.39445981   38.56939084
     atom   11 type  2   force =  -190.16035036    0.23645011   38.73706340
     atom   12 type  3   force =    16.40559739   16.32750993   23.09686570
     atom   13 type  3   force =    -0.79217135    0.42433552   -1.43553300
     atom   14 type  3   force =    -0.43394108    0.42564145   40.12833835
     atom   15 type  3   force =    -0.27593138  190.15221737   37.96250165
     atom   16 type  3   force =    -0.43394108 -190.93630259   37.74322823
     atom   17 type  3   force =   -16.92519355  -15.95249022   23.19898451
     atom   18 type  3   force =   189.56926758    0.25171016   -1.24106099
     atom   19 type  3   force =  -188.18910968   -0.05481117   -1.24106099
     atom   20 type  3   force =   255.60398790  254.77872017    0.59076257
     atom   21 type  3   force =   255.89207338 -255.26621023    0.83494005
     atom   22 type  3   force =  -254.72784346  254.97621230    0.59076257
     atom   23 type  3   force =  -254.51191548 -254.95968890    0.83494005
     atom   24 type  3   force =   256.29228513  256.68750092  -38.89063636
     atom   25 type  3   force =   256.39928060 -256.38568193  -38.95319250
     atom   26 type  3   force =  -255.79123994  256.79041624  -38.97790495
     atom   27 type  3   force =  -255.63731040 -256.22767223  -39.12086506
     atom   28 type  4   force =    15.98847443   16.84336255  -21.96554064
     atom   29 type  4   force =    16.09768949  -16.69903972  -21.39720000
     atom   30 type  4   force =    -0.40056099   -0.26844841  -36.00777052
     atom   31 type  4   force =   -16.05472261   16.67320235  -22.04157142
     atom   32 type  4   force =   218.17809113  217.66436116   35.89635272
     atom   33 type  4   force =   218.32664217 -218.30263928   35.73863796
     atom   34 type  4   force =  -217.71558789  217.75935992   35.97690834
     atom   35 type  4   force =  -217.62328506 -218.15678418   35.89341264
     atom   36 type  5   force =    -0.03077093   80.80485607   -0.06610532
     The local contribution  to forces
     atom    1 type  1   force =   -15.09847974   14.44566532  -21.16283768
     atom    2 type  1   force =     0.45053318  -26.01428314    0.63091250
     atom    3 type  1   force =     0.75931144   30.47387833    0.30484047
     atom    4 type  1   force =   -29.15080339    0.15706146   34.55300951
     atom    5 type  1   force =    28.43419739    0.31968773   34.72129572
     atom    6 type  2   force =     0.27200714  -33.93801226   37.11333328
     atom    7 type  2   force =     0.44231776   33.46713800   37.21504517
     atom    8 type  2   force =    16.14312543  -15.78198173  -23.23062008
     atom    9 type  2   force =    17.37188963   17.75355656   23.49390318
     atom   10 type  2   force =   -33.49598114   -0.40639807  -38.35582493
     atom   11 type  2   force =    32.72500005   -0.24057283  -38.53050790
     atom   12 type  3   force =   -16.41540506  -16.34854165  -23.10304279
     atom   13 type  3   force =     0.80770619   -0.42374330    1.44427505
     atom   14 type  3   force =     0.43417267   -0.42283648  -40.08121407
     atom   15 type  3   force =     0.27860057  -63.27466949  -37.91562088
     atom   16 type  3   force =     0.44324664   64.07996936  -37.70158529
     atom   17 type  3   force =    16.94628384   15.97662079  -23.22466760
     atom   18 type  3   force =   -62.72017248   -0.25244855    1.21546107
     atom   19 type  3   force =    61.30291624    0.06308110    1.21521377
     atom   20 type  3   force =  -112.28666309 -111.48939074   -0.54931070
     atom   21 type  3   force =  -112.60257013  112.01502439   -0.80843144
     atom   22 type  3   force =   111.41543853 -111.71413101   -0.55087216
     atom   23 type  3   force =   111.16294923  111.67000960   -0.80924808
     atom   24 type  3   force =  -112.82626475 -113.14418696   38.94119539
     atom   25 type  3   force =  -112.94511503  112.84020246   39.00018148
     atom   26 type  3   force =   112.34016583 -113.25299079   39.02762889
     atom   27 type  3   force =   112.18005271  112.67311208   39.18608883
     atom   28 type  4   force =   -16.04733416  -16.85818300   21.94134223
     atom   29 type  4   force =   -16.13922340   16.70571234   21.37585734
     atom   30 type  4   force =     0.39885389    0.27593060   36.03433768
     atom   31 type  4   force =    16.10771489  -16.67660824   22.01940570
     atom   32 type  4   force =   -91.08482391  -90.57084134  -35.78552906
     atom   33 type  4   force =   -91.25330192   91.22732665  -35.61530171
     atom   34 type  4   force =    90.63137619  -90.67327922  -35.83554485
     atom   35 type  4   force =    90.53146163   91.05938468  -35.78965193
     atom   36 type  5   force =     0.03309240   -5.43382087    0.06880698
     The core correction contribution to forces
     atom    1 type  1   force =    -0.01712545    0.01594939    0.00287507
     atom    2 type  1   force =     0.00035775   -8.50091743   -0.00070096
     atom    3 type  1   force =    -0.00159601    9.76446980   -0.00006817
     atom    4 type  1   force =    -9.62352663    0.00068931    0.01664727
     atom    5 type  1   force =     9.62593783   -0.00110022    0.01357043
     atom    6 type  2   force =     0.00075137   -5.11956459    0.00659360
     atom    7 type  2   force =     0.00027207    5.11937410    0.00688872
     atom    8 type  2   force =     0.02069861   -0.02216959    0.00368617
     atom    9 type  2   force =     0.02278726    0.01806890   -0.00110713
     atom   10 type  2   force =    -5.12269316   -0.00016698   -0.00751341
     atom   11 type  2   force =     5.12178269    0.00084945   -0.00801606
     atom   12 type  3   force =    -0.00918994   -0.00988405    0.00075024
     atom   13 type  3   force =    -0.00057303   -0.00027610   -0.00098874
     atom   14 type  3   force =    -0.00067349    0.00058624    0.01714196
     atom   15 type  3   force =    -0.00012702   -1.08390055   -0.00155411
     atom   16 type  3   force =     0.00039390    1.08469900   -0.00146600
     atom   17 type  3   force =     0.01008275    0.00968495    0.00004351
     atom   18 type  3   force =    -1.08116688    0.00002449   -0.00156703
     atom   19 type  3   force =     1.07965623    0.00023251   -0.00137716
     atom   20 type  3   force =    -1.08493503   -1.08662353    0.00059221
     atom   21 type  3   force =    -1.08492378    1.08686911    0.00012872
     atom   22 type  3   force =     1.08468154   -1.08608618    0.00051021
     atom   23 type  3   force =     1.08431858    1.08601063    0.00004403
     atom   24 type  3   force =    -1.08412173   -1.08195460    0.00259973
     atom   25 type  3   force =    -1.08395910    1.08184564    0.00244065
     atom   26 type  3   force =     1.08425717   -1.08158340    0.00243337
     atom   27 type  3   force =     1.08379616    1.08130467    0.00309457
     atom   28 type  4   force =    -0.00801919   -0.00648513   -0.00154399
     atom   29 type  4   force =    -0.00779989    0.00561788   -0.00207784
     atom   30 type  4   force =    -0.00119287   -0.00078810   -0.00819046
     atom   31 type  4   force =     0.00747552   -0.00622581   -0.00196381
     atom   32 type  4   force =    -1.41656233   -1.41678635    0.00232345
     atom   33 type  4   force =    -1.41642517    1.41641366    0.00291617
     atom   34 type  4   force =     1.41633675   -1.41623216    0.00350690
     atom   35 type  4   force =     1.41687890    1.41642922    0.00216045
     atom   36 type  5   force =     0.00000000    0.00000000    0.00000000
     The Hubbard contrib.    to forces
     atom    1 type  1   force =     0.00000000    0.00000000    0.00000000
     atom    2 type  1   force =     0.00000000    0.00000000    0.00000000
     atom    3 type  1   force =     0.00000000    0.00000000    0.00000000
     atom    4 type  1   force =     0.00000000    0.00000000    0.00000000
     atom    5 type  1   force =     0.00000000    0.00000000    0.00000000
     atom    6 type  2   force =     0.00000000    0.00000000    0.00000000
     atom    7 type  2   force =     0.00000000    0.00000000    0.00000000
     atom    8 type  2   force =     0.00000000    0.00000000    0.00000000
     atom    9 type  2   force =     0.00000000    0.00000000    0.00000000
     atom   10 type  2   force =     0.00000000    0.00000000    0.00000000
     atom   11 type  2   force =     0.00000000    0.00000000    0.00000000
     atom   12 type  3   force =     0.00000000    0.00000000    0.00000000
     atom   13 type  3   force =     0.00000000    0.00000000    0.00000000
     atom   14 type  3   force =     0.00000000    0.00000000    0.00000000
     atom   15 type  3   force =     0.00000000    0.00000000    0.00000000
     atom   16 type  3   force =     0.00000000    0.00000000    0.00000000
     atom   17 type  3   force =     0.00000000    0.00000000    0.00000000
     atom   18 type  3   force =     0.00000000    0.00000000    0.00000000
     atom   19 type  3   force =     0.00000000    0.00000000    0.00000000
     atom   20 type  3   force =     0.00000000    0.00000000    0.00000000
     atom   21 type  3   force =     0.00000000    0.00000000    0.00000000
     atom   22 type  3   force =     0.00000000    0.00000000    0.00000000
     atom   23 type  3   force =     0.00000000    0.00000000    0.00000000
     atom   24 type  3   force =     0.00000000    0.00000000    0.00000000
     atom   25 type  3   force =     0.00000000    0.00000000    0.00000000
     atom   26 type  3   force =     0.00000000    0.00000000    0.00000000
     atom   27 type  3   force =     0.00000000    0.00000000    0.00000000
     atom   28 type  4   force =     0.00000000    0.00000000    0.00000000
     atom   29 type  4   force =     0.00000000    0.00000000    0.00000000
     atom   30 type  4   force =     0.00000000    0.00000000    0.00000000
     atom   31 type  4   force =     0.00000000    0.00000000    0.00000000
     atom   32 type  4   force =     0.00000000    0.00000000    0.00000000
     atom   33 type  4   force =     0.00000000    0.00000000    0.00000000
     atom   34 type  4   force =     0.00000000    0.00000000    0.00000000
     atom   35 type  4   force =     0.00000000    0.00000000    0.00000000
     atom   36 type  5   force =     0.00000000    0.00000000    0.00000000
     The SCF correction term to forces
     atom    1 type  1   force =    -0.00000000    0.00000000   -0.00000000
     atom    2 type  1   force =     0.00000000    0.00000000   -0.00000000
     atom    3 type  1   force =     0.00000000    0.00000000   -0.00000000
     atom    4 type  1   force =    -0.00000000    0.00000000    0.00000000
     atom    5 type  1   force =     0.00000000    0.00000000    0.00000000
     atom    6 type  2   force =     0.00000000   -0.00000000   -0.00000000
     atom    7 type  2   force =     0.00000000    0.00000000   -0.00000000
     atom    8 type  2   force =     0.00000000    0.00000000   -0.00000000
     atom    9 type  2   force =     0.00000000    0.00000000   -0.00000000
     atom   10 type  2   force =    -0.00000000   -0.00000000   -0.00000000
     atom   11 type  2   force =    -0.00000000   -0.00000000   -0.00000000
     atom   12 type  3   force =    -0.00000000   -0.00000000   -0.00000000
     atom   13 type  3   force =     0.00000000   -0.00000000   -0.00000000
     atom   14 type  3   force =     0.00000000   -0.00000000   -0.00000000
     atom   15 type  3   force =     0.00000000   -0.00000000    0.00000000
     atom   16 type  3   force =    -0.00000000    0.00000000    0.00000000
     atom   17 type  3   force =     0.00000000   -0.00000000   -0.00000000
     atom   18 type  3   force =    -0.00000000   -0.00000000   -0.00000000
     atom   19 type  3   force =    -0.00000000   -0.00000000   -0.00000000
     atom   20 type  3   force =     0.00000000    0.00000000   -0.00000000
     atom   21 type  3   force =     0.00000000   -0.00000000   -0.00000000
     atom   22 type  3   force =    -0.00000000    0.00000000   -0.00000000
     atom   23 type  3   force =    -0.00655666   -0.00310110   -0.01450274
     atom   24 type  3   force =     0.00229489    0.00772672    0.00104649
     atom   25 type  3   force =     0.00197911   -0.00742279    0.00254936
     atom   26 type  3   force =    -0.00959998    0.00744782    0.00059740
     atom   27 type  3   force =    -0.01033682   -0.00818477    0.00248556
     atom   28 type  4   force =    -0.00986138   -0.00580396   -0.00720261
     atom   29 type  4   force =    -0.00912188    0.00485712   -0.00840576
     atom   30 type  4   force =     0.00511962    0.00191368    0.00809696
     atom   31 type  4   force =     0.01068003   -0.00279463   -0.00498694
     atom   32 type  4   force =     0.00197805   -0.00123442    0.00878689
     atom   33 type  4   force =     0.00414998    0.00577108    0.00958436
     atom   34 type  4   force =    -0.00700687    0.00165915    0.00793254
     atom   35 type  4   force =    -0.00409182    0.00790644    0.00965687
     atom   36 type  5   force =     0.00035880    0.00017337   -0.00056168

     Total force =   535.891542     Total SCF correction =     0.042869

     Molecular Dynamics Calculation

     Starting temperature  =   300.00 K

     temperature is set once at start

     mass Hf               =   178.49
     mass Ta               =   180.95
     mass Nb               =    92.91
     mass Zr               =    91.22
     mass H                =     2.01
     Time step             =    10.50 a.u.,  0.5080 femto-seconds

     Entering Dynamics:    iteration =     1
                           time      =   0.0005 pico-seconds


ATOMIC_POSITIONS (angstrom)
Hf            1.8699999570        5.2099998710        7.0099998710    0   0   0
Hf            3.5399999140        0.2000000000        5.3399999140    0   0   0
Hf            3.5399999140        6.8799998280        5.3399999140    0   0   0
Hf            0.2000000000        3.5399999140        2.0000000000    0   0   0
Hf            6.8799998280        3.5399999140        2.0000000000    0   0   0
Ta            3.5399999140        0.2000000000        2.0000000000    0   0   0
Ta            3.5399999140        6.8799998280        2.0000000000    0   0   0
Ta            5.2099998710        1.8699999570        7.0099998710    0   0   0
Ta            5.2099998710        5.2099998710        3.6699999570    0   0   0
Ta            0.2000000000        3.5399999140        8.6799998280    0   0   0
Ta            6.8799998280        3.5399999140        8.6799998280    0   0   0
Nb            1.8699999570        1.8699999570        7.0099998710    0   0   0
Nb            3.5399999140        3.5399999140        5.3399999140    0   0   0
Nb            3.5399999140        3.5399999140        8.6799998280    0   0   0
Nb            3.5399999140        0.2000000000        8.6799998280    0   0   0
Nb            3.5399999140        6.8799998280        8.6799998280    0   0   0
Nb            5.2099998710        5.2099998710        7.0099998710    0   0   0
Nb            0.2000000000        3.5399999140        5.3399999140    0   0   0
Nb            6.8799998280        3.5399999140        5.3399999140    0   0   0
Nb            0.2000000000        0.2000000000        5.3399999140    0   0   0
Nb            0.2000000000        6.8799998280        5.3399999140    0   0   0
Nb            6.8799998280        0.2000000000        5.3399999140    0   0   0
Nb            6.8357916677        6.8357647606        5.3399986575
Nb            0.2442076777        0.2441601526        1.9999915571
Nb            0.2441996018        6.8358429054        1.9999904336
Nb            6.8357946623        0.2441506883        1.9999906170
Nb            6.8357959553        6.8358442427        1.9999891310
Zr            1.8699998933        1.8700066476        3.6699974254
Zr            1.8700043074        5.2099939898        3.6700003089
Zr            3.5400053145        3.5400049242        2.0000135262
Zr            5.2100014297        1.8700098672        3.6700011411
Zr            0.2423706920        0.2423660868        8.6800129194
Zr            0.2423637981        6.8376398813        8.6800088566
Zr            6.8376340913        0.2423598983        8.6800115252
Zr            6.8376301307        6.8376358923        8.6800130037
H             3.5400529328        9.1101383451        5.2038575185


     kinetic energy (Ekin) =           0.55137389 Ry
     temperature           =        4145.47868793 K 
     Ekin + Etot (const)   =       -3336.23316077 Ry

     File outdir/pwscf.msd.dat deleted, as requested

     Writing config-only to output data dir outdir/pwscf.save/
     NEW-OLD atomic charge density approx. for the potential

     Check: negative core charge=   -0.000002

     negative rho (up, down):  5.616E-01 5.617E-01
     Generating pointlists ...

     total cpu time spent up to now is     1008.1 secs

     Self-consistent Calculation

     iteration #  1     ecut=   120.00 Ry     beta= 0.70
     Davidson diagonalization with overlap
     ethr =  1.00E-06,  avg # of iterations = 19.0

     negative rho (up, down):  5.813E-01 5.813E-01

     total cpu time spent up to now is     1219.3 secs

     total energy              =   -3506.95569295 Ry
     estimated scf accuracy    <      46.17528214 Ry

     total magnetization       =     0.15 Bohr mag/cell
     absolute magnetization    =     0.19 Bohr mag/cell

     iteration #  2     ecut=   120.00 Ry     beta= 0.70
     Davidson diagonalization with overlap
     ethr =  1.00E-02,  avg # of iterations =  4.0

     negative rho (up, down):  5.818E-01 5.818E-01

     total cpu time spent up to now is     1282.5 secs

     total energy              =   -3515.33550888 Ry
     estimated scf accuracy    <      12.20016013 Ry

     total magnetization       =     0.13 Bohr mag/cell
     absolute magnetization    =     0.16 Bohr mag/cell

     iteration #  3     ecut=   120.00 Ry     beta= 0.70
     Davidson diagonalization with overlap
     ethr =  2.75E-03,  avg # of iterations =  2.0

     negative rho (up, down):  5.832E-01 5.832E-01

     total cpu time spent up to now is     1345.4 secs

     total energy              =   -3515.76775300 Ry
     estimated scf accuracy    <       1.47258228 Ry

     total magnetization       =     0.20 Bohr mag/cell
     absolute magnetization    =     0.22 Bohr mag/cell

     iteration #  4     ecut=   120.00 Ry     beta= 0.70
     Davidson diagonalization with overlap
     ethr =  3.32E-04,  avg # of iterations =  2.0

     negative rho (up, down):  5.867E-01 5.867E-01

     total cpu time spent up to now is     1406.4 secs

     total energy              =   -3515.75301749 Ry
     estimated scf accuracy    <       0.54880694 Ry

     total magnetization       =     0.20 Bohr mag/cell
     absolute magnetization    =     0.22 Bohr mag/cell

     iteration #  5     ecut=   120.00 Ry     beta= 0.70
     Davidson diagonalization with overlap
     ethr =  1.24E-04,  avg # of iterations =  3.0

     negative rho (up, down):  5.886E-01 5.886E-01

     total cpu time spent up to now is     1467.8 secs

     total energy              =   -3515.77352855 Ry
     estimated scf accuracy    <       0.08301604 Ry

     total magnetization       =     0.23 Bohr mag/cell
     absolute magnetization    =     0.25 Bohr mag/cell

     iteration #  6     ecut=   120.00 Ry     beta= 0.70
     Davidson diagonalization with overlap
     ethr =  1.87E-05,  avg # of iterations = 11.0

     negative rho (up, down):  5.890E-01 5.890E-01

     total cpu time spent up to now is     1539.9 secs

     total energy              =   -3515.77866986 Ry
     estimated scf accuracy    <       0.02896939 Ry

     total magnetization       =     0.24 Bohr mag/cell
     absolute magnetization    =     0.26 Bohr mag/cell

     iteration #  7     ecut=   120.00 Ry     beta= 0.70
     Davidson diagonalization with overlap
     ethr =  6.54E-06,  avg # of iterations =  2.0

     negative rho (up, down):  5.891E-01 5.892E-01

     total cpu time spent up to now is     1602.1 secs

     total energy              =   -3515.77937241 Ry
     estimated scf accuracy    <       0.01011301 Ry

     total magnetization       =     0.27 Bohr mag/cell
     absolute magnetization    =     0.29 Bohr mag/cell

     iteration #  8     ecut=   120.00 Ry     beta= 0.70
     Davidson diagonalization with overlap
     ethr =  2.28E-06,  avg # of iterations =  2.0

     negative rho (up, down):  5.889E-01 5.890E-01

     total cpu time spent up to now is     1663.3 secs

     total energy              =   -3515.77959783 Ry
     estimated scf accuracy    <       0.00273039 Ry

     total magnetization       =     0.30 Bohr mag/cell
     absolute magnetization    =     0.33 Bohr mag/cell

     iteration #  9     ecut=   120.00 Ry     beta= 0.70
     Davidson diagonalization with overlap
     ethr =  6.16E-07,  avg # of iterations =  2.0

     negative rho (up, down):  5.887E-01 5.888E-01

     Magnetic moment per site  (integrated on atomic sphere of radius R)
     atom   1 (R=0.017)  charge= -0.0513  magn=  0.0000
     atom   2 (R=0.017)  charge= -0.0592  magn=  0.0000
     atom   3 (R=0.017)  charge= -0.0590  magn=  0.0000
     atom   4 (R=0.017)  charge= -0.0585  magn=  0.0000
     atom   5 (R=0.017)  charge= -0.0585  magn=  0.0000
     atom   6 (R=0.039)  charge=  0.3909  magn=  0.0000
     atom   7 (R=0.039)  charge=  0.3913  magn=  0.0000
     atom   8 (R=0.039)  charge=  0.0808  magn=  0.0000
     atom   9 (R=0.039)  charge=  0.0812  magn=  0.0000
     atom  10 (R=0.039)  charge=  0.3913  magn=  0.0000
     atom  11 (R=0.039)  charge=  0.3917  magn=  0.0000
     atom  12 (R=0.039)  charge=  0.3671  magn=  0.0003
     atom  13 (R=0.039)  charge=  0.3670  magn=  0.0001
     atom  14 (R=0.039)  charge=  0.3675  magn=  0.0023
     atom  15 (R=0.039)  charge=  0.9018  magn=  0.0000
     atom  16 (R=0.039)  charge=  0.9025  magn=  0.0000
     atom  17 (R=0.039)  charge=  0.3670  magn=  0.0001
     atom  18 (R=0.039)  charge=  0.9014  magn=  0.0001
     atom  19 (R=0.039)  charge=  0.9014  magn=  0.0001
     atom  20 (R=0.039)  charge=  1.4350  magn=  0.0002
     atom  21 (R=0.039)  charge=  1.3837  magn=  0.0002
     atom  22 (R=0.039)  charge=  1.3836  magn=  0.0002
     atom  23 (R=0.039)  charge=  1.2287  magn=  0.0001
     atom  24 (R=0.039)  charge=  1.0552  magn=  0.0000
     atom  25 (R=0.039)  charge=  1.0542  magn=  0.0000
     atom  26 (R=0.039)  charge=  1.0542  magn=  0.0000
     atom  27 (R=0.039)  charge=  1.0529  magn=  0.0000
     atom  28 (R=0.039)  charge=  0.0937  magn=  0.0001
     atom  29 (R=0.039)  charge=  0.0936  magn=  0.0001
     atom  30 (R=0.039)  charge=  0.0957  magn=  0.0003
     atom  31 (R=0.039)  charge=  0.0936  magn=  0.0000
     atom  32 (R=0.039)  charge=  0.6672  magn=  0.0000
     atom  33 (R=0.039)  charge=  0.6660  magn=  0.0000
     atom  34 (R=0.039)  charge=  0.6658  magn=  0.0001
     atom  35 (R=0.039)  charge=  0.6653  magn=  0.0000
     atom  36 (R=0.017)  charge=  0.0193  magn=  0.0000

     total cpu time spent up to now is     1723.6 secs

     End of self-consistent calculation

 ------ SPIN UP ------------


          k = 0.0000 0.0000 0.0000 ( 43590 PWs)   bands (ev):

  -149.7114-149.6408-149.2969-143.3362-142.4894-140.2396-112.8000 -90.7121
   -85.2907 -85.0228 -84.3393 -84.2774 -79.9811 -79.5646 -76.1829 -68.0488
   -66.8132 -66.6895 -62.7649 -62.7629 -55.5525 -55.4491 -55.1882 -55.1742
   -51.2402 -50.8662 -50.3612 -50.2788 -50.2181 -45.3144 -45.0178 -44.9836
   -44.6696 -44.6535 -44.6110 -44.5412 -44.4282 -44.3230 -43.8185 -43.7285
   -40.4672 -38.2001 -37.4474 -37.0929 -37.0566 -36.6667 -36.6324 -36.3973
   -36.0332 -35.6590 -34.5924 -34.1870 -33.5323 -30.9449 -30.9229 -30.9050
   -30.4729 -28.5335 -28.5271 -28.4277 -26.2420 -25.8802 -24.5036 -22.1710
   -20.1807 -18.9306 -18.9148 -18.8587 -17.9145 -16.9799 -16.9262 -16.8659
   -16.8477 -16.7972 -16.7137 -16.6292 -15.8883 -15.5762 -15.1068 -13.3471
   -13.3139 -13.2798 -13.2632 -13.2483 -13.2084 -13.1854 -13.1611 -13.0945
   -13.0514 -12.5275 -12.4055 -12.3670 -12.2824 -12.2072 -12.1079 -12.0851
   -12.0545 -11.2770  -9.3212  -9.2941  -9.2660  -9.2142  -9.2106  -9.1418
    -9.0758  -9.0305  -8.9817  -8.9185  -8.5450  -8.3743  -8.3558  -7.6763
    -7.5753  -7.2682  -7.2472  -6.5506  -5.4543  -5.1678  -5.1576  -4.9899
    -2.8720  -2.8544  -2.4756  -2.3379  -2.1214  -2.1024  -1.9823  -1.6996
    -1.6668  -0.9302  -0.6754  -0.6591  -0.5798   0.2759   1.4654   1.5176
     1.7638   1.7982   2.6723   2.7047   3.1146   3.1602   4.1118   4.2375
     4.2883   4.5414   5.4970   5.6988   5.7743   5.9599   6.8293   7.0370
     7.0699   7.8388   7.8967   7.9099   8.5015   8.5685   8.8561   8.9277
     9.0752   9.5337   9.8085  10.4348  11.0041  11.0420  11.1029  11.1592
    11.4286  11.5098  11.5851  11.6602  11.9689  12.3274  12.4213  12.5094
    12.6018  12.7316  12.7736  12.7917  12.8795  13.2132  13.2951  13.3113
    13.4496  13.4992  13.6735  13.8060  13.8587  14.5455  14.8150  14.9529
    15.2666  15.4096  15.4908  15.5453  15.6517  15.6673  15.8172  15.8977
    16.1471  16.2378  16.2829  16.4001  16.4461  16.5664  16.6038  16.6439
    16.6977  16.8340  17.1283  17.2158  17.3033  17.3608  17.4405  17.7507
    17.8238  17.8520  18.0510  18.0904  18.1183  18.1519  18.2037  18.2550
    18.2646  18.3909  18.5381  18.6556  18.6976  18.8523  18.9110  19.0245
    19.0750  19.2101  19.2278  19.2881  19.3503  19.4922  19.5644  19.7056
    19.7826  19.9471  20.0818  20.1563  20.2356  20.2745  20.3168  20.3432
    20.4496  20.4793  20.5401  20.5594  20.6202  20.7241  20.8639  20.8734
    20.9935  21.2415  21.2645  21.2955  21.4182  21.4630  21.5369  21.5855
    21.6374  21.7102

 ------ SPIN DOWN ----------


          k = 0.0000 0.0000 0.0000 ( 43590 PWs)   bands (ev):

  -149.7074-149.6400-149.2966-143.3361-142.4894-140.2390-112.7994 -90.7103
   -85.2896 -85.0211 -84.3390 -84.2772 -79.9806 -79.5641 -76.1824 -68.0479
   -66.8114 -66.6892 -62.7641 -62.7621 -55.5518 -55.4483 -55.1880 -55.1739
   -51.2391 -50.8659 -50.3594 -50.2781 -50.2162 -45.3141 -45.0174 -44.9830
   -44.6691 -44.6533 -44.6107 -44.5407 -44.4265 -44.3229 -43.8185 -43.7283
   -40.4663 -38.1991 -37.4472 -37.0907 -37.0507 -36.6664 -36.6320 -36.3456
   -36.0316 -35.6569 -34.5912 -34.1857 -33.5308 -30.9425 -30.9202 -30.9021
   -30.4566 -28.5328 -28.5264 -28.4261 -26.2405 -25.8798 -24.5033 -22.1698
   -20.1804 -18.9307 -18.9145 -18.8584 -17.9120 -16.9768 -16.9259 -16.8635
   -16.8453 -16.7954 -16.7117 -16.6258 -15.8858 -15.5746 -15.1053 -13.3439
   -13.3088 -13.2750 -13.2576 -13.2416 -13.2028 -13.1786 -13.1569 -13.0925
   -13.0460 -12.4602 -12.3540 -12.3192 -12.2807 -12.2053 -12.1062 -12.0833
   -12.0522 -11.2747  -9.3178  -9.2890  -9.2624  -9.2085  -9.2059  -9.1380
    -9.0717  -9.0285  -8.9799  -8.9153  -8.5241  -8.3587  -8.3437  -7.6750
    -7.5736  -7.2677  -7.2468  -6.5503  -5.4525  -5.1675  -5.1572  -4.9882
    -2.8709  -2.8534  -2.4741  -2.3366  -2.1199  -2.1009  -1.9814  -1.6994
    -1.6666  -0.9290  -0.6743  -0.6593  -0.5797   0.2772   1.4662   1.5184
     1.7641   1.7986   2.6731   2.7054   3.1152   3.1610   4.1129   4.2379
     4.2886   4.5434   5.4983   5.6993   5.7753   5.9607   6.8297   7.0377
     7.0704   7.8389   7.8976   7.9101   8.5020   8.5698   8.8578   8.9291
     9.0763   9.5343   9.8108  10.4369  11.0056  11.0436  11.1056  11.1616
    11.4302  11.5119  11.5875  11.6626  11.9720  12.3297  12.4234  12.5114
    12.6046  12.7331  12.7757  12.7947  12.8804  13.2153  13.2968  13.3122
    13.4518  13.5013  13.6747  13.8087  13.8641  14.5466  14.8344  14.9569
    15.2679  15.4148  15.4947  15.5493  15.6543  15.6744  15.8317  15.8980
    16.1588  16.2458  16.2907  16.4040  16.4505  16.5724  16.6145  16.6539
    16.7058  16.8442  17.1407  17.2325  17.3186  17.3802  17.4443  17.7543
    17.8395  17.8741  18.0593  18.1023  18.1373  18.1687  18.2338  18.2725
    18.2844  18.5104  18.5552  18.6644  18.7068  18.8604  18.9220  19.0292
    19.0849  19.2195  19.2339  19.2949  19.3838  19.4961  19.5698  19.7122
    19.7944  19.9521  20.0863  20.1632  20.2546  20.2891  20.3293  20.3479
    20.4630  20.4862  20.5468  20.5650  20.6292  20.7395  20.8713  20.8850
    20.9978  21.2563  21.2772  21.3053  21.4242  21.4899  21.5478  21.6045
    21.6515  21.7212

     the Fermi energy is    18.1706 ev

!    total energy              =   -3515.77938564 Ry
     estimated scf accuracy    <       0.00057883 Ry
     smearing contrib. (-TS)   =      -0.10017266 Ry
     internal energy E=F+TS    =   -3515.67921298 Ry

     total magnetization       =     0.35 Bohr mag/cell
     absolute magnetization    =     0.37 Bohr mag/cell

     convergence has been achieved in   9 iterations

     negative rho (up, down):  5.887E-01 5.888E-01

     Forces acting on atoms (cartesian axes, Ry/au):

     atom    1 type  1   force =     0.03074971   -0.02575317   -0.01069868
     atom    2 type  1   force =     0.01636387   63.98970244    0.03580449
     atom    3 type  1   force =    -0.01148397  -64.15914267   -0.00230398
     atom    4 type  1   force =    63.81560315   -0.00554352   -0.06802646
     atom    5 type  1   force =   -63.82280669    0.00364735   -0.07021486
     atom    6 type  2   force =    -0.00580744  109.81965490   -0.08293285
     atom    7 type  2   force =     0.00511790 -109.82219388   -0.07055180
     atom    8 type  2   force =    -0.05741352    0.04427763   -0.01650653
     atom    9 type  2   force =    -0.02906626   -0.03156634   -0.01598049
     atom   10 type  2   force =   109.73959424    0.00843027    0.08518150
     atom   11 type  2   force =  -109.74321361   -0.00934837    0.08686507
     atom   12 type  3   force =     0.05296916    0.03370980    0.00188348
     atom   13 type  3   force =     0.02310624    0.07895984    0.02924762
     atom   14 type  3   force =     0.01293086   -0.00832710   -0.07222539
     atom   15 type  3   force =     0.01010673  118.89138109    0.07523340
     atom   16 type  3   force =    -0.00992706 -118.89183759    0.06593468
     atom   17 type  3   force =    -0.03790659   -0.04739220   -0.01318657
     atom   18 type  3   force =   118.91181329    0.01359528    0.00318536
     atom   19 type  3   force =  -118.91027443   -0.00728426   -0.00262490
     atom   20 type  3   force =   122.82262914  122.93447084   -0.00171002
     atom   21 type  3   force =   108.10023183 -125.28720142    0.01572263
     atom   22 type  3   force =  -125.18003323  108.15226474    0.01047807
     atom   23 type  3   force =  -105.75390505 -105.81156836    0.00580200
     atom   24 type  3   force =    83.74277483   83.67438271   -0.01893605
     atom   25 type  3   force =    83.75029672  -83.67990825   -0.01685349
     atom   26 type  3   force =   -83.74682190   83.67525334   -0.01889014
     atom   27 type  3   force =   -83.75039555  -83.67487345   -0.00717276
     atom   28 type  4   force =    -0.00268472    0.00057414   -0.02913055
     atom   29 type  4   force =     0.01194552   -0.00204118   -0.01804342
     atom   30 type  4   force =     0.01593472    0.01786333    0.05284191
     atom   31 type  4   force =     0.00533170    0.01084079   -0.01417406
     atom   32 type  4   force =    82.63112760   82.63053145    0.03636448
     atom   33 type  4   force =    82.61610554  -82.61942680    0.01432497
     atom   34 type  4   force =   -82.62206380   82.62733355    0.02228961
     atom   35 type  4   force =   -82.62821920  -82.63065859    0.02947381
     atom   36 type  5   force =    -0.00270973    0.10719369   -0.02047012
     The non-local contrib.  to forces
     atom    1 type  1   force =    -0.20846747    0.19246961    0.02186219
     atom    2 type  1   force =     0.00121447  -59.88649458   -0.03494300
     atom    3 type  1   force =    -0.02898084   60.24248460    0.00214032
     atom    4 type  1   force =   -60.49231745   -0.00124286    0.12468870
     atom    5 type  1   force =    60.50282087   -0.00913768    0.11160741
     atom    6 type  2   force =    -0.00670059  -42.48208812    0.10942391
     atom    7 type  2   force =    -0.00753898   42.49640315    0.10931287
     atom    8 type  2   force =     0.21718614   -0.25145827    0.00203216
     atom    9 type  2   force =     0.24505887    0.25156064    0.02118930
     atom   10 type  2   force =   -42.55984626    0.02386861   -0.11152126
     atom   11 type  2   force =    42.57622056   -0.00070732   -0.10156917
     atom   12 type  3   force =     0.06864417    0.06874092    0.00580362
     atom   13 type  3   force =    -0.00794942   -0.03148165    0.00759830
     atom   14 type  3   force =     0.00597416   -0.01186877   -0.12418750
     atom   15 type  3   force =     0.00753187   -6.89229884    0.00090002
     atom   16 type  3   force =    -0.01877310    6.85221457   -0.01329354
     atom   17 type  3   force =    -0.08584364   -0.07360313    0.01652485
     atom   18 type  3   force =    -6.84833014    0.01541922    0.03845358
     atom   19 type  3   force =     6.90356002   -0.00845441    0.03335172
     atom   20 type  3   force =   -14.51281133  -14.35555861   -0.03370645
     atom   21 type  3   force =   -12.62642796   11.56532681   -0.00578160
     atom   22 type  3   force =    11.74622947  -12.51957902   -0.02385379
     atom   23 type  3   force =    13.85336831   13.72570080   -0.01170304
     atom   24 type  3   force =   -10.90234305  -11.09845297   -0.11703793
     atom   25 type  3   force =   -10.89222649   11.09574671   -0.10724655
     atom   26 type  3   force =    10.89334215  -11.11103180   -0.10883435
     atom   27 type  3   force =    10.86802655   11.08955993   -0.10243231
     atom   28 type  4   force =     0.06538550    0.03398874    0.02483284
     atom   29 type  4   force =     0.05886795   -0.03914341    0.02204105
     atom   30 type  4   force =     0.01197522    0.00100147    0.01306537
     atom   31 type  4   force =    -0.06651227    0.03485348    0.02275124
     atom   32 type  4   force =    -2.89044217   -2.88427439   -0.01422833
     atom   33 type  4   force =    -2.90505960    2.90185797   -0.05593319
     atom   34 type  4   force =     2.90088360   -2.90716936   -0.05425759
     atom   35 type  4   force =     2.87917776    2.89498994   -0.02692291
     atom   36 type  5   force =    -0.00133721   -0.02676762   -0.00542438
     The ionic contribution  to forces
     atom    1 type  1   force =    15.38202659  -14.34322626   20.90381276
     atom    2 type  1   force =    -0.72390753  158.15667837   -0.33112157
     atom    3 type  1   force =    -1.07563186 -161.77657834   -0.20127736
     atom    4 type  1   force =   163.11035058   -0.17594864  -34.79594632
     atom    5 type  1   force =  -162.35094026   -0.32803491  -34.96348159
     atom    6 type  2   force =    -0.32874090  191.27262975  -37.18336756
     atom    7 type  2   force =    -0.49351267 -190.90930234  -37.24680454
     atom    8 type  2   force =   -16.13913801   15.72750053   23.26981646
     atom    9 type  2   force =   -17.89659224  -17.95808802  -23.58409283
     atom   10 type  2   force =   190.94510196    0.36760175   38.57508609
     atom   11 type  2   force =  -190.12246684    0.20284217   38.75658006
     atom   12 type  3   force =    16.02823012   15.80668881   23.10451294
     atom   13 type  3   force =    -0.88845118    1.93890069   -1.26121196
     atom   14 type  3   force =    -0.46326179    0.45821528   40.20105941
     atom   15 type  3   force =    -0.32872912  190.09525028   37.77112330
     atom   16 type  3   force =    -0.49348833 -190.89842842   37.54960341
     atom   17 type  3   force =   -17.14367659  -15.82817167   23.32544627
     atom   18 type  3   force =   189.62294693    0.06492150   -1.20804168
     atom   19 type  3   force =  -187.99593827   -0.31616879   -1.20803194
     atom   20 type  3   force =   247.65859528  246.61121676    0.59444710
     atom   21 type  3   force =   232.65849124 -245.12126791    0.83347365
     atom   22 type  3   force =  -244.65010445  231.49667810    0.59464226
     atom   23 type  3   force =  -232.75869086 -233.07595274    0.82326051
     atom   24 type  3   force =   200.27471417  200.71028264  -38.90410150
     atom   25 type  3   force =   200.41376174 -200.36628995  -39.00436771
     atom   26 type  3   force =  -199.67038077  200.84015698  -39.04646452
     atom   27 type  3   force =  -199.49383120 -200.18121892  -39.26463907
     atom   28 type  4   force =    15.43777305   16.37825675  -22.02222427
     atom   29 type  4   force =    16.07693120  -16.30919355  -21.14259861
     atom   30 type  4   force =    -0.42772772   -0.20430068  -36.13758457
     atom   31 type  4   force =   -15.54013576   16.30509163  -22.17480961
     atom   32 type  4   force =   172.08745701  171.53676806   35.92492194
     atom   33 type  4   force =   172.27410678 -172.11759415   35.77409158
     atom   34 type  4   force =  -171.52847558  171.65475767   36.05436362
     atom   35 type  4   force =  -171.42574939 -171.94590924   36.01463294
     atom   36 type  5   force =    -0.03091533    2.23123681   -0.39070710
     The local contribution  to forces
     atom    1 type  1   force =   -15.12080331   14.10405427  -20.93959335
     atom    2 type  1   force =     0.73509307  -24.68028778    0.39026436
     atom    3 type  1   force =     1.08994450   27.75652649    0.18485525
     atom    4 type  1   force =   -29.18123207    0.17032410   34.58218977
     atom    5 type  1   force =    28.40392041    0.34101582   34.76282278
     atom    6 type  2   force =     0.32720581  -33.85932793   36.96247913
     atom    7 type  2   force =     0.50420122   33.47944164   37.03854860
     atom    8 type  2   force =    15.83740615  -15.40424465  -23.28846629
     atom    9 type  2   force =    17.60213971   17.65609459   23.52306468
     atom   10 type  2   force =   -33.51691815   -0.38606052  -38.35241767
     atom   11 type  2   force =    32.68143599   -0.21808193  -38.54019785
     atom   12 type  3   force =   -16.02769903  -15.82267342  -23.10748271
     atom   13 type  3   force =     0.91322657   -1.83367805    1.26584065
     atom   14 type  3   force =     0.46664839   -0.46023432  -40.14677355
     atom   15 type  3   force =     0.32913579  -63.22247103  -37.66339876
     atom   16 type  3   force =     0.49679038   64.07222487  -37.43563495
     atom   17 type  3   force =    17.17141313   15.83476813  -23.35306153
     atom   18 type  3   force =   -62.77427905   -0.06960801    1.15513679
     atom   19 type  3   force =    61.10470771    0.31110567    1.15296710
     atom   20 type  3   force =  -109.28980221 -108.28396840   -0.58609478
     atom   21 type  3   force =  -110.93455220  107.20612800   -0.83600745
     atom   22 type  3   force =   106.66528885 -109.82475069   -0.58423637
     atom   23 type  3   force =   112.14763454  112.53173603   -0.83098984
     atom   24 type  3   force =  -104.76952052 -105.08219341   38.98317747
     atom   25 type  3   force =  -104.91094392  104.73746888   39.07594410
     atom   26 type  3   force =   104.17249243 -105.19875808   39.11677173
     atom   27 type  3   force =   104.01794962  104.56413631   39.33983743
     atom   28 type  4   force =   -15.50257595  -16.40631724   21.94987178
     atom   29 type  4   force =   -16.11879521   16.33935439   21.08511671
     atom   30 type  4   force =     0.43074262    0.22188977   36.18137830
     atom   31 type  4   force =    15.60740815  -16.32442768   22.11954429
     atom   32 type  4   force =   -85.44266169  -84.89938480  -35.85032959
     atom   33 type  4   force =   -85.62863282   85.47936317  -35.68077930
     atom   34 type  4   force =    84.88513057  -84.99756946  -35.95425857
     atom   35 type  4   force =    84.79867563   85.30518739  -35.93174384
     atom   36 type  5   force =     0.02922520   -2.09632633    0.37442626
     The core correction contribution to forces
     atom    1 type  1   force =    -0.01639004    0.01257190    0.00301684
     atom    2 type  1   force =     0.00131065   -9.59826017   -0.00243538
     atom    3 type  1   force =    -0.00171910    9.61670181   -0.00377440
     atom    4 type  1   force =    -9.62194271    0.00075060    0.01635530
     atom    5 type  1   force =     9.62436667   -0.00113614    0.01335911
     atom    6 type  2   force =     0.00087383   -5.11842726    0.00628606
     atom    7 type  2   force =     0.00004363    5.11832682    0.00647930
     atom    8 type  2   force =     0.01888837   -0.01938556    0.00175632
     atom    9 type  2   force =     0.02127682    0.01752111   -0.00052926
     atom   10 type  2   force =    -5.12141280   -0.00018927   -0.00707271
     atom   11 type  2   force =     5.12069575    0.00096599   -0.00729513
     atom   12 type  3   force =    -0.00816350   -0.00877765   -0.00025578
     atom   13 type  3   force =    -0.00012564    0.00298711   -0.00013802
     atom   14 type  3   force =    -0.00062030    0.00101900    0.01752267
     atom   15 type  3   force =    -0.00024150   -1.08373223   -0.00160045
     atom   16 type  3   force =     0.00036971    1.08474829   -0.00129542
     atom   17 type  3   force =     0.00933320    0.00844565   -0.00056549
     atom   18 type  3   force =    -1.08095105   -0.00016891   -0.00149844
     atom   19 type  3   force =     1.07944521    0.00021457   -0.00134681
     atom   20 type  3   force =    -1.03326097   -1.03568093    0.00049467
     atom   21 type  3   force =    -0.99418494    1.06770454    0.00028366
     atom   22 type  3   force =     1.06534359   -0.99583951    0.00057122
     atom   23 type  3   force =     1.01427918    1.01596525    0.00006399
     atom   24 type  3   force =    -0.85881474   -0.85482397    0.00452872
     atom   25 type  3   force =    -0.85879264    0.85458762    0.00423385
     atom   26 type  3   force =     0.85897458   -0.85444281    0.00424218
     atom   27 type  3   force =     0.85892506    0.85427901    0.00441838
     atom   28 type  4   force =    -0.00712027   -0.00567773   -0.00132542
     atom   29 type  4   force =    -0.00693687    0.00557984   -0.00147897
     atom   30 type  4   force =    -0.00114668   -0.00045827   -0.00820390
     atom   31 type  4   force =     0.00714290   -0.00557413   -0.00121312
     atom   32 type  4   force =    -1.12091382   -1.12129338    0.00006488
     atom   33 type  4   force =    -1.12066505    1.12035769    0.00133575
     atom   34 type  4   force =     1.12053986   -1.12019806    0.00157438
     atom   35 type  4   force =     1.12175696    1.12051757    0.00040043
     atom   36 type  5   force =     0.00000000    0.00000000    0.00000000
     The Hubbard contrib.    to forces
     atom    1 type  1   force =     0.00000000    0.00000000    0.00000000
     atom    2 type  1   force =     0.00000000    0.00000000    0.00000000
     atom    3 type  1   force =     0.00000000    0.00000000    0.00000000
     atom    4 type  1   force =     0.00000000    0.00000000    0.00000000
     atom    5 type  1   force =     0.00000000    0.00000000    0.00000000
     atom    6 type  2   force =     0.00000000    0.00000000    0.00000000
     atom    7 type  2   force =     0.00000000    0.00000000    0.00000000
     atom    8 type  2   force =     0.00000000    0.00000000    0.00000000
     atom    9 type  2   force =     0.00000000    0.00000000    0.00000000
     atom   10 type  2   force =     0.00000000    0.00000000    0.00000000
     atom   11 type  2   force =     0.00000000    0.00000000    0.00000000
     atom   12 type  3   force =     0.00000000    0.00000000    0.00000000
     atom   13 type  3   force =     0.00000000    0.00000000    0.00000000
     atom   14 type  3   force =     0.00000000    0.00000000    0.00000000
     atom   15 type  3   force =     0.00000000    0.00000000    0.00000000
     atom   16 type  3   force =     0.00000000    0.00000000    0.00000000
     atom   17 type  3   force =     0.00000000    0.00000000    0.00000000
     atom   18 type  3   force =     0.00000000    0.00000000    0.00000000
     atom   19 type  3   force =     0.00000000    0.00000000    0.00000000
     atom   20 type  3   force =     0.00000000    0.00000000    0.00000000
     atom   21 type  3   force =     0.00000000    0.00000000    0.00000000
     atom   22 type  3   force =     0.00000000    0.00000000    0.00000000
     atom   23 type  3   force =     0.00000000    0.00000000    0.00000000
     atom   24 type  3   force =     0.00000000    0.00000000    0.00000000
     atom   25 type  3   force =     0.00000000    0.00000000    0.00000000
     atom   26 type  3   force =     0.00000000    0.00000000    0.00000000
     atom   27 type  3   force =     0.00000000    0.00000000    0.00000000
     atom   28 type  4   force =     0.00000000    0.00000000    0.00000000
     atom   29 type  4   force =     0.00000000    0.00000000    0.00000000
     atom   30 type  4   force =     0.00000000    0.00000000    0.00000000
     atom   31 type  4   force =     0.00000000    0.00000000    0.00000000
     atom   32 type  4   force =     0.00000000    0.00000000    0.00000000
     atom   33 type  4   force =     0.00000000    0.00000000    0.00000000
     atom   34 type  4   force =     0.00000000    0.00000000    0.00000000
     atom   35 type  4   force =     0.00000000    0.00000000    0.00000000
     atom   36 type  5   force =     0.00000000    0.00000000    0.00000000
     The SCF correction term to forces
     atom    1 type  1   force =    -0.00000000    0.00000000    0.00000000
     atom    2 type  1   force =     0.00000000   -0.00000000    0.00000000
     atom    3 type  1   force =     0.00000000    0.00000000    0.00000000
     atom    4 type  1   force =     0.00000000    0.00000000    0.00000000
     atom    5 type  1   force =    -0.00000000    0.00000000    0.00000000
     atom    6 type  2   force =     0.00000000    0.00000000    0.00000000
     atom    7 type  2   force =     0.00000000   -0.00000000    0.00000000
     atom    8 type  2   force =     0.00000000   -0.00000000   -0.00000000
     atom    9 type  2   force =    -0.00000000    0.00000000    0.00000000
     atom   10 type  2   force =    -0.00000000    0.00000000   -0.00000000
     atom   11 type  2   force =     0.00000000    0.00000000   -0.00000000
     atom   12 type  3   force =    -0.00000000   -0.00000000   -0.00000000
     atom   13 type  3   force =     0.00000000    0.00000000    0.00000000
     atom   14 type  3   force =     0.00000000    0.00000000   -0.00000000
     atom   15 type  3   force =     0.00000000   -0.00000000   -0.00000000
     atom   16 type  3   force =     0.00000000   -0.00000000   -0.00000000
     atom   17 type  3   force =     0.00000000    0.00000000   -0.00000000
     atom   18 type  3   force =    -0.00000000    0.00000000    0.00000000
     atom   19 type  3   force =    -0.00000000    0.00000000    0.00000000
     atom   20 type  3   force =    -0.00000000   -0.00000000    0.00000000
     atom   21 type  3   force =    -0.00000000   -0.00000000    0.00000000
     atom   22 type  3   force =    -0.00000000   -0.00000000    0.00000000
     atom   23 type  3   force =    -0.01076580   -0.00925224    0.02517065
     atom   24 type  3   force =    -0.00153062   -0.00066412    0.01449747
     atom   25 type  3   force =    -0.00177155   -0.00165605    0.01458309
     atom   26 type  3   force =    -0.00151988   -0.00090549    0.01539509
     atom   27 type  3   force =    -0.00173517   -0.00186431    0.01564308
     atom   28 type  4   force =     0.00358337    0.00008908    0.01971478
     atom   29 type  4   force =     0.00160887    0.00112701    0.01887666
     atom   30 type  4   force =     0.00182170   -0.00050349    0.00418699
     atom   31 type  4   force =    -0.00284090    0.00066294    0.01955341
     atom   32 type  4   force =    -0.00258132   -0.00151858   -0.02406415
     atom   33 type  4   force =    -0.00391336   -0.00364602   -0.02438959
     atom   34 type  4   force =    -0.00041184   -0.00272178   -0.02513196
     atom   35 type  4   force =    -0.00234976   -0.00567878   -0.02689254
     atom   36 type  5   force =     0.00004802   -0.00118372    0.00123536

     Total force =   364.770354     Total SCF correction =     0.074473

     Entering Dynamics:    iteration =     2
                           time      =   0.0010 pico-seconds


ATOMIC_POSITIONS (angstrom)
Hf            1.8699999570        5.2099998710        7.0099998710    0   0   0
Hf            3.5399999140        0.2000000000        5.3399999140    0   0   0
Hf            3.5399999140        6.8799998280        5.3399999140    0   0   0
Hf            0.2000000000        3.5399999140        2.0000000000    0   0   0
[...]
     atom   30 type  4   force =     0.00076372   -0.00664769    0.01112129
     atom   31 type  4   force =    -0.07613898    0.03527632    0.00564283
     atom   32 type  4   force =     0.73102480    0.72878108   -0.02880158
     atom   33 type  4   force =     0.75336432   -0.74042029   -0.05367370
     atom   34 type  4   force =    -0.74971112    0.72707118   -0.06786099
     atom   35 type  4   force =    -0.73967686   -0.72231674   -0.04431231
     atom   36 type  5   force =     0.00079495    1.67287526    0.73835895
     The ionic contribution  to forces
     atom    1 type  1   force =    15.08283488  -13.78909859   20.52600740
     atom    2 type  1   force =    -1.42037028  160.57525973   -0.47700077
     atom    3 type  1   force =    -1.99573573 -160.40920161   -0.20888754
     atom    4 type  1   force =   163.15639113   -0.32731875  -34.80906956
     atom    5 type  1   force =  -162.24654505   -0.49889486  -35.01181189
     atom    6 type  2   force =    -0.46127327  191.38907638  -36.99713894
     atom    7 type  2   force =    -0.64717568 -190.69340513  -37.16238742
     atom    8 type  2   force =   -15.99654562   15.12558794   22.51101213
     atom    9 type  2   force =   -18.15015309  -18.04907224  -24.19974711
     atom   10 type  2   force =   191.00432255    0.20341720   38.54897093
     atom   11 type  2   force =  -190.01884132    0.01750942   38.76859558
     atom   12 type  3   force =    15.81326909   14.98841575   22.17032624
     atom   13 type  3   force =    -1.15710270   15.76993404    6.24868062
     atom   14 type  3   force =    -0.54185014    0.31052688   40.23802281
     atom   15 type  3   force =    -0.46127867  190.21389115   37.58158295
     atom   16 type  3   force =    -0.64718765 -190.70228182   37.45143449
     atom   17 type  3   force =   -17.46910548  -16.02141104   24.00035672
     atom   18 type  3   force =   189.85729736   -0.78892317   -1.15170071
     atom   19 type  3   force =  -187.52728983   -1.41224246   -1.15163557
     atom   20 type  3   force =   232.03018074  230.98959845    0.54949727
     atom   21 type  3   force =   183.45967248 -232.21459863    0.78949974
     atom   22 type  3   force =  -231.98141814  182.32670964    0.54939985
     atom   23 type  3   force =  -178.74125854 -178.67944786    0.75270589
     atom   24 type  3   force =   122.67219125  123.26684548  -38.95550423
     atom   25 type  3   force =   122.88603917 -122.63339675  -39.21498127
     atom   26 type  3   force =  -121.84813257  123.47476241  -39.24830830
     atom   27 type  3   force =  -121.58949123 -122.36901822  -39.76060135
     atom   28 type  4   force =    15.19056678   15.43945783  -21.09086156
     atom   29 type  4   force =    15.71119266  -15.66065425  -20.71013090
     atom   30 type  4   force =    -0.50056403   -0.33151225  -36.33390962
     atom   31 type  4   force =   -15.35973523   15.56569965  -21.40525551
     atom   32 type  4   force =   105.78733251  105.25443415   36.05680565
     atom   33 type  4   force =   106.07706270 -105.56611064   35.97535183
     atom   34 type  4   force =  -105.02360292  105.44294165   36.32107965
     atom   35 type  4   force =  -104.88126891 -105.32126608   36.48147360
     atom   36 type  5   force =    -0.06242725  -14.88621338   -7.63187109
     The local contribution  to forces
     atom    1 type  1   force =   -14.83589700   13.55896737  -20.52598697
     atom    2 type  1   force =     1.43455540  -26.62125447    0.51701998
     atom    3 type  1   force =     2.00827418   26.47553141    0.21546216
     atom    4 type  1   force =   -29.20661938    0.32355486   34.57163103
     atom    5 type  1   force =    28.28742301    0.51287113   34.78853930
     atom    6 type  2   force =     0.46125482  -33.96594004   36.76533508
     atom    7 type  2   force =     0.65737181   33.27014326   36.94484864
     atom    8 type  2   force =    15.70512395  -14.85602516  -22.49885224
     atom    9 type  2   force =    17.84676872   17.74684652   24.14904546
     atom   10 type  2   force =   -33.57937669   -0.21991896  -38.30874128
     atom   11 type  2   force =    32.58086140   -0.02876214  -38.54029804
     atom   12 type  3   force =   -15.78185509  -14.98029055  -22.15773175
     atom   13 type  3   force =     1.17939875   -6.58474906   -1.72214276
     atom   14 type  3   force =     0.54417977   -0.31839316  -40.11742671
     atom   15 type  3   force =     0.46625345  -63.33489027  -37.46233095
     atom   16 type  3   force =     0.65125306   63.88305521  -37.32556620
     atom   17 type  3   force =    17.44292808   16.02300545  -24.01987905
     atom   18 type  3   force =   -63.03348817    0.75750117    1.11248569
     atom   19 type  3   force =    60.63611009    1.38738383    1.11270864
     atom   20 type  3   force =  -100.60543677  -99.59149891   -0.51824931
     atom   21 type  3   force =  -103.97041367   97.83521639   -0.76801439
     atom   22 type  3   force =    97.57872712 -102.86687691   -0.51159433
     atom   23 type  3   force =   107.74252864  107.66113454   -0.72140853
     atom   24 type  3   force =   -83.69132412  -84.16966947   38.95809021
     atom   25 type  3   force =   -83.91995506   83.54295528   39.20093414
     atom   26 type  3   force =    82.87609089  -84.37514694   39.23867886
     atom   27 type  3   force =    82.63928371   83.29269912   39.76391599
     atom   28 type  4   force =   -15.23478708  -15.43465781   21.05974397
     atom   29 type  4   force =   -15.73784195   15.67099937   20.70048442
     atom   30 type  4   force =     0.50576292    0.34138945   36.33543329
     atom   31 type  4   force =    15.41460831  -15.55322436   21.40570376
     atom   32 type  4   force =   -70.34048240  -69.77491237  -35.94941401
     atom   33 type  4   force =   -70.62817500   70.08817908  -35.83543114
     atom   34 type  4   force =    69.56759632  -69.94011149  -36.19118096
     atom   35 type  4   force =    69.44814293   69.84379316  -36.33848127
     atom   36 type  5   force =     0.06752803    3.62260952    2.26109820
     The core correction contribution to forces
     atom    1 type  1   force =    -0.01650473    0.01485308   -0.00057000
     atom    2 type  1   force =     0.00027659   -9.62407348   -0.00298823
     atom    3 type  1   force =    -0.00107763    9.62502720   -0.00094249
     atom    4 type  1   force =    -9.62440781    0.00120261    0.01773526
     atom    5 type  1   force =     9.62600968   -0.00079525    0.01488041
     atom    6 type  2   force =     0.00119431   -5.11953562    0.00702233
     atom    7 type  2   force =     0.00024858    5.11945544    0.00721779
     atom    8 type  2   force =     0.01819167   -0.01570976   -0.00046845
     atom    9 type  2   force =     0.02347433    0.01895179    0.00094230
     atom   10 type  2   force =    -5.11977653   -0.00084971   -0.00757808
     atom   11 type  2   force =     5.11900720   -0.00000548   -0.00773023
     atom   12 type  3   force =    -0.00694653   -0.00736085   -0.00161164
     atom   13 type  3   force =     0.00054893   -0.09271644   -0.03933212
     atom   14 type  3   force =    -0.00014827    0.00124374    0.01856068
     atom   15 type  3   force =    -0.00002559   -1.08303307   -0.00167564
     atom   16 type  3   force =     0.00037220    1.08415702   -0.00138610
     atom   17 type  3   force =     0.00562712    0.00754025   -0.00236866
     atom   18 type  3   force =    -1.08163649   -0.00105416   -0.00158958
     atom   19 type  3   force =     1.07936344   -0.00014457   -0.00132367
     atom   20 type  3   force =    -0.95407919   -0.95696512    0.00035916
     atom   21 type  3   force =    -0.72152162    1.07347013    0.00075799
     atom   22 type  3   force =     1.07283271   -0.72345585    0.00108416
     atom   23 type  3   force =     0.71441358    0.71330745    0.00040841
     atom   24 type  3   force =    -0.39218801   -0.38943993    0.00401622
     atom   25 type  3   force =    -0.39252480    0.38979983    0.00291454
     atom   26 type  3   force =     0.39275213   -0.38994771    0.00268624
     atom   27 type  3   force =     0.39210221    0.38941607    0.00378283
     atom   28 type  4   force =    -0.00739847   -0.00535670    0.00023653
     atom   29 type  4   force =    -0.00666841    0.00559711    0.00000888
     atom   30 type  4   force =    -0.00035254    0.00012081   -0.00842540
     atom   31 type  4   force =     0.00758512   -0.00508769   -0.00005029
     atom   32 type  4   force =    -0.51894067   -0.51817661    0.00127409
     atom   33 type  4   force =    -0.51990058    0.51886918    0.00320919
     atom   34 type  4   force =     0.51953265   -0.51859354    0.00365342
     atom   35 type  4   force =     0.51914489    0.51817672    0.00243472
     atom   36 type  5   force =     0.00000000    0.00000000    0.00000000
     The Hubbard contrib.    to forces
     atom    1 type  1   force =     0.00000000    0.00000000    0.00000000
     atom    2 type  1   force =     0.00000000    0.00000000    0.00000000
     atom    3 type  1   force =     0.00000000    0.00000000    0.00000000
     atom    4 type  1   force =     0.00000000    0.00000000    0.00000000
     atom    5 type  1   force =     0.00000000    0.00000000    0.00000000
     atom    6 type  2   force =     0.00000000    0.00000000    0.00000000
     atom    7 type  2   force =     0.00000000    0.00000000    0.00000000
     atom    8 type  2   force =     0.00000000    0.00000000    0.00000000
     atom    9 type  2   force =     0.00000000    0.00000000    0.00000000
     atom   10 type  2   force =     0.00000000    0.00000000    0.00000000
     atom   11 type  2   force =     0.00000000    0.00000000    0.00000000
     atom   12 type  3   force =     0.00000000    0.00000000    0.00000000
     atom   13 type  3   force =     0.00000000    0.00000000    0.00000000
     atom   14 type  3   force =     0.00000000    0.00000000    0.00000000
     atom   15 type  3   force =     0.00000000    0.00000000    0.00000000
     atom   16 type  3   force =     0.00000000    0.00000000    0.00000000
     atom   17 type  3   force =     0.00000000    0.00000000    0.00000000
     atom   18 type  3   force =     0.00000000    0.00000000    0.00000000
     atom   19 type  3   force =     0.00000000    0.00000000    0.00000000
     atom   20 type  3   force =     0.00000000    0.00000000    0.00000000
     atom   21 type  3   force =     0.00000000    0.00000000    0.00000000
     atom   22 type  3   force =     0.00000000    0.00000000    0.00000000
     atom   23 type  3   force =     0.00000000    0.00000000    0.00000000
     atom   24 type  3   force =     0.00000000    0.00000000    0.00000000
     atom   25 type  3   force =     0.00000000    0.00000000    0.00000000
     atom   26 type  3   force =     0.00000000    0.00000000    0.00000000
     atom   27 type  3   force =     0.00000000    0.00000000    0.00000000
     atom   28 type  4   force =     0.00000000    0.00000000    0.00000000
     atom   29 type  4   force =     0.00000000    0.00000000    0.00000000
     atom   30 type  4   force =     0.00000000    0.00000000    0.00000000
     atom   31 type  4   force =     0.00000000    0.00000000    0.00000000
     atom   32 type  4   force =     0.00000000    0.00000000    0.00000000
     atom   33 type  4   force =     0.00000000    0.00000000    0.00000000
     atom   34 type  4   force =     0.00000000    0.00000000    0.00000000
     atom   35 type  4   force =     0.00000000    0.00000000    0.00000000
     atom   36 type  5   force =     0.00000000    0.00000000    0.00000000
     The SCF correction term to forces
     atom    1 type  1   force =     0.00000000    0.00000000   -0.00000000
     atom    2 type  1   force =     0.00000000   -0.00000000    0.00000000
     atom    3 type  1   force =     0.00000000   -0.00000000    0.00000000
     atom    4 type  1   force =    -0.00000000   -0.00000000    0.00000000
     atom    5 type  1   force =    -0.00000000    0.00000000    0.00000000
     atom    6 type  2   force =     0.00000000   -0.00000000    0.00000000
     atom    7 type  2   force =     0.00000000   -0.00000000    0.00000000
     atom    8 type  2   force =     0.00000000   -0.00000000   -0.00000000
     atom    9 type  2   force =     0.00000000    0.00000000    0.00000000
     atom   10 type  2   force =    -0.00000000    0.00000000   -0.00000000
     atom   11 type  2   force =    -0.00000000    0.00000000   -0.00000000
     atom   12 type  3   force =    -0.00000000   -0.00000000   -0.00000000
     atom   13 type  3   force =     0.00000000    0.00000000    0.00000000
     atom   14 type  3   force =     0.00000000    0.00000000   -0.00000000
     atom   15 type  3   force =    -0.00000000   -0.00000000   -0.00000000
     atom   16 type  3   force =     0.00000000   -0.00000000   -0.00000000
     atom   17 type  3   force =     0.00000000    0.00000000   -0.00000000
     atom   18 type  3   force =    -0.00000000    0.00000000    0.00000000
     atom   19 type  3   force =    -0.00000000    0.00000000    0.00000000
     atom   20 type  3   force =    -0.00000000   -0.00000000    0.00000000
     atom   21 type  3   force =    -0.00000000   -0.00000000    0.00000000
     atom   22 type  3   force =    -0.00000000   -0.00000000    0.00000000
     atom   23 type  3   force =    -0.00887853   -0.00961242    0.00821615
     atom   24 type  3   force =    -0.00426416   -0.00309882    0.02781989
     atom   25 type  3   force =    -0.00499256    0.00313812    0.02822954
     atom   26 type  3   force =     0.00269662   -0.00366424    0.02803075
     atom   27 type  3   force =     0.00234445    0.00266708    0.02870740
     atom   28 type  4   force =    -0.00224840   -0.00340682    0.01587929
     atom   29 type  4   force =    -0.00183003    0.00411990    0.01737398
     atom   30 type  4   force =     0.00172261    0.00037271    0.03135101
     atom   31 type  4   force =     0.00298334   -0.00298126    0.01410201
     atom   32 type  4   force =    -0.00294774   -0.00594690   -0.03121266
     atom   33 type  4   force =    -0.00756378    0.00171581   -0.03224384
     atom   34 type  4   force =     0.00480823   -0.01092226   -0.02981764
     atom   35 type  4   force =    -0.00141350   -0.00419151   -0.03542554
     atom   36 type  5   force =    -0.00007371    0.00035509    0.00049840

     Total force =   167.372591     Total SCF correction =     0.098658

     Entering Dynamics:    iteration =     3
                           time      =   0.0015 pico-seconds


ATOMIC_POSITIONS (angstrom)
Hf            1.8699999570        5.2099998710        7.0099998710    0   0   0
Hf            3.5399999140        0.2000000000        5.3399999140    0   0   0
Hf            3.5399999140        6.8799998280        5.3399999140    0   0   0
Hf            0.2000000000        3.5399999140        2.0000000000    0   0   0
Hf            6.8799998280        3.5399999140        2.0000000000    0   0   0
Ta            3.5399999140        0.2000000000        2.0000000000    0   0   0
Ta            3.5399999140        6.8799998280        2.0000000000    0   0   0
Ta            5.2099998710        1.8699999570        7.0099998710    0   0   0
Ta            5.2099998710        5.2099998710        3.6699999570    0   0   0
Ta            0.2000000000        3.5399999140        8.6799998280    0   0   0
Ta            6.8799998280        3.5399999140        8.6799998280    0   0   0
Nb            1.8699999570        1.8699999570        7.0099998710    0   0   0
Nb            3.5399999140        3.5399999140        5.3399999140    0   0   0
Nb            3.5399999140        3.5399999140        8.6799998280    0   0   0
Nb            3.5399999140        0.2000000000        8.6799998280    0   0   0
Nb            3.5399999140        6.8799998280        8.6799998280    0   0   0
Nb            5.2099998710        5.2099998710        7.0099998710    0   0   0
Nb            0.2000000000        3.5399999140        5.3399999140    0   0   0
Nb            6.8799998280        3.5399999140        5.3399999140    0   0   0
Nb            0.2000000000        0.2000000000        5.3399999140    0   0   0
Nb            0.2000000000        6.8799998280        5.3399999140    0   0   0
Nb            6.8799998280        0.2000000000        5.3399999140    0   0   0
Nb            6.5587044437        6.5585143981        5.3400134493
Nb            0.4722798414        0.4720756941        1.9999093172
Nb            0.4722747435        6.6079195057        1.9999241175
Nb            6.6077174369        0.4720564836        1.9999261511
Nb            6.6077129991        6.6079300321        1.9999264228
Zr            1.8700054437        1.8700433559        3.6699457898
Zr            1.8700493871        5.2099569466        3.6699840266
Zr            3.5400436427        3.5400426466        2.0001400272
Zr            5.2100045430        1.8700727666        3.6699980846
Zr            0.4680928671        0.4680979983        8.6801246056
Zr            0.4680642966        6.6119263413        8.6800874948
Zr            6.6119167702        0.4680863168        8.6800917049
Zr            6.6119147082        6.6119070058        8.6801271436
H             3.5401726640       11.2724225991        4.7830720511


     kinetic energy (Ekin) =         368.53253592 Ry
     temperature           =     2770794.53979166 K 
     Ekin + Etot (const)   =       -3349.79275232 Ry

     Writing config-only to output data dir outdir/pwscf.save/
     NEW-OLD atomic charge density approx. for the potential

     Check: negative core charge=   -0.000002

     negative rho (up, down):  6.722E-01 6.723E-01
     Generating pointlists ...

     total cpu time spent up to now is     2557.0 secs

     Self-consistent Calculation

     iteration #  1     ecut=   120.00 Ry     beta= 0.70
     Davidson diagonalization with overlap
     c_bands:  3 eigenvalues not converged
     c_bands:  2 eigenvalues not converged
     ethr =  1.00E-06,  avg # of iterations = 20.0

     negative rho (up, down):  6.568E-01 6.569E-01

     total cpu time spent up to now is     2801.7 secs

     total energy              =   -3824.93145385 Ry
     estimated scf accuracy    <      43.22527943 Ry

     total magnetization       =     0.66 Bohr mag/cell
     absolute magnetization    =     0.71 Bohr mag/cell

     iteration #  2     ecut=   120.00 Ry     beta= 0.70
     Davidson diagonalization with overlap
     ethr =  9.76E-03,  avg # of iterations =  3.0

     negative rho (up, down):  6.662E-01 6.663E-01

     total cpu time spent up to now is     2860.8 secs

     total energy              =   -3830.17046291 Ry
     estimated scf accuracy    <       3.76974368 Ry

     total magnetization       =     0.79 Bohr mag/cell
     absolute magnetization    =     0.87 Bohr mag/cell

     iteration #  3     ecut=   120.00 Ry     beta= 0.70
     Davidson diagonalization with overlap
     ethr =  8.51E-04,  avg # of iterations =  2.0

     negative rho (up, down):  6.709E-01 6.710E-01

     total cpu time spent up to now is     2917.2 secs

     total energy              =   -3830.48952490 Ry
     estimated scf accuracy    <       0.50732137 Ry

     total magnetization       =     0.70 Bohr mag/cell
     absolute magnetization    =     0.81 Bohr mag/cell

     iteration #  4     ecut=   120.00 Ry     beta= 0.70
     Davidson diagonalization with overlap
     ethr =  1.15E-04,  avg # of iterations =  9.0

     negative rho (up, down):  6.751E-01 6.752E-01

     total cpu time spent up to now is     2982.7 secs

     total energy              =   -3830.52125697 Ry
     estimated scf accuracy    <       0.16715023 Ry

     total magnetization       =     0.79 Bohr mag/cell
     absolute magnetization    =     0.91 Bohr mag/cell

     iteration #  5     ecut=   120.00 Ry     beta= 0.70
     Davidson diagonalization with overlap
