
     Program PWSCF v.7.2 starts on 15May2023 at  2:44:52 

     This program is part of the open-source Quantum ESPRESSO suite
     for quantum simulation of materials; please cite
         "P. Giannozzi et al., J. Phys.:Condens. Matter 21 395502 (2009);
         "P. Giannozzi et al., J. Phys.:Condens. Matter 29 465901 (2017);
         "P. Giannozzi et al., J. Chem. Phys. 152 154105 (2020);
          URL http://www.quantum-espresso.org", 
     in publications or presentations arising from this work. More details at
     http://www.quantum-espresso.org/quote

     Parallel version (MPI), running on    12 processors

     MPI processes distributed on     1 nodes
     74583 MiB available memory on the printing compute node when the environment starts

     Reading input from Ta_3x3x1_MD_nsteps_5.in
Warning: card &CELL ignored
Warning: card / ignored

     Current dimensions of program PWSCF are:
     Max number of different atomic species (ntypx) = 10
     Max number of k-points (npk) =  40000
     Max angular momentum in pseudopotentials (lmaxx) =  4

     File outdir/pwscf.update deleted, as requested

     File outdir/pwscf.md deleted, as requested

     R & G space division:  proc/nbgrp/npool/nimage =      12
     Subspace diagonalization in iterative solution of the eigenvalue problem:
     a serial algorithm will be used


     Parallelization info
     --------------------
     sticks:   dense  smooth     PW     G-vecs:    dense   smooth      PW
     Min         197     197     49                17359    17359    2165
     Max         198     198     50                17368    17368    2170
     Sum        2375    2375    599               208377   208377   26023

     Using Slab Decomposition



     bravais-lattice index     =            0
     lattice parameter (alat)  =      18.7412  a.u.
     unit-cell volume          =    9386.5821 (a.u.)^3
     number of atoms/cell      =           10
     number of atomic types    =            2
     number of electrons       =       118.00
     number of Kohn-Sham states=           71
     kinetic-energy cutoff     =      30.0000  Ry
     charge density cutoff     =     120.0000  Ry
     scf convergence threshold =      1.0E-05
     mixing beta               =       0.7000
     number of iterations used =            8  plain     mixing
     energy convergence thresh.=      0.0E+00
     force convergence thresh. =      0.0E+00
     Exchange-correlation=  SLA  PW   PBX  PBC
                           (   1   4   3   4   0   0   0)
     nstep                     =            5


     celldm(1)=  18.741170  celldm(2)=   0.000000  celldm(3)=   0.000000
     celldm(4)=   0.000000  celldm(5)=   0.000000  celldm(6)=   0.000000

     crystal axes: (cart. coord. in units of alat)
               a(1) = (   1.000000   0.000000   0.000000 )  
               a(2) = (   0.500000   0.707107   0.000000 )  
               a(3) = (   0.000000   0.000000   2.016658 )  

     reciprocal axes: (cart. coord. in units 2 pi/alat)
               b(1) = (  1.000000 -0.707107  0.000000 )  
               b(2) = (  0.000000  1.414213  0.000000 )  
               b(3) = (  0.000000  0.000000  0.495870 )  


     PseudoPot. # 1 for Ta read from file:
     q-e/pseudo/ta_pbe_v1.uspp.F.UPF
     MD5 check sum: f8bbe9446314a3b8ea5d9f3e3836c939
     Pseudo is Ultrasoft + core correction, Zval = 13.0
     Generated by new atomic code, or converted to UPF format
     Using radial grid of  921 points,  7 beta functions with: 
                l(1) =   0
                l(2) =   0
                l(3) =   1
                l(4) =   1
                l(5) =   2
                l(6) =   2
                l(7) =   3
     Q(r) pseudized with  6 coefficients,  rinner =    1.300   1.300   1.300
                                                       1.300   1.300   1.300
                                                       1.300

     PseudoPot. # 2 for H  read from file:
     q-e/pseudo/h_pbe_v1.4.uspp.F.UPF
     MD5 check sum: 761ae9a214b05c3daf00ab9f6b793d6f
     Pseudo is Ultrasoft, Zval =  1.0
     Generated by new atomic code, or converted to UPF format
     Using radial grid of  615 points,  2 beta functions with: 
                l(1) =   0
                l(2) =   0
     Q(r) pseudized with  8 coefficients,  rinner =    0.700

     atomic species   valence    mass     pseudopotential
        Ta            13.00   180.94788     Ta( 1.00)
        H              1.00     1.00800     H ( 1.00)

     No symmetry found



   Cartesian axes

     site n.     atom                  positions (alat units)
         1           Ta  tau(   1) = (   0.0000000   0.0000000   1.0083288  )
         2           Ta  tau(   2) = (   0.3333333   0.0000000   1.0083288  )
         3           Ta  tau(   3) = (   0.6666667   0.0000000   1.0083288  )
         4           Ta  tau(   4) = (   0.1666667   0.2357023   1.0083288  )
         5           Ta  tau(   5) = (   0.5000000   0.2357023   1.0083288  )
         6           Ta  tau(   6) = (   0.8333333   0.2357023   1.0083288  )
         7           Ta  tau(   7) = (   0.3333333   0.4714045   1.0083288  )
         8           Ta  tau(   8) = (   0.6666667   0.4714045   1.0083288  )
         9           Ta  tau(   9) = (   1.0000000   0.4714045   1.0083288  )
        10           H   tau(  10) = (   0.5041644   0.4033315   0.1008329  )

     number of k points=     1  Gaussian smearing, width (Ry)=  0.0100
                       cart. coord. in units 2pi/alat
        k(    1) = (   0.0000000   0.0000000   0.0000000), wk =   2.0000000

     Dense  grid:   208377 G-vectors     FFT dimensions: (  72,  60, 135)

     Estimated max dynamical RAM per process >     124.58 MB

     Estimated total dynamical RAM >       1.46 GB

     Check: negative core charge=   -0.000002

     Initial potential from superposition of free atoms

     starting charge     117.9900, renormalised to     118.0000

     negative rho (up, down):  8.958E-01 0.000E+00
     Starting wfcs are  118 randomized atomic wfcs

     total cpu time spent up to now is        2.7 secs

     Self-consistent Calculation

     iteration #  1     ecut=    30.00 Ry     beta= 0.70
     Davidson diagonalization with overlap
     ethr =  1.00E-02,  avg # of iterations =  2.0

     negative rho (up, down):  8.920E-01 0.000E+00

     total cpu time spent up to now is        4.9 secs

     total energy              =   -1275.17071268 Ry
     estimated scf accuracy    <       1.24770293 Ry

     iteration #  2     ecut=    30.00 Ry     beta= 0.70
     Davidson diagonalization with overlap
     ethr =  1.06E-03,  avg # of iterations =  5.0

     negative rho (up, down):  8.927E-01 0.000E+00

     total cpu time spent up to now is        7.2 secs

     total energy              =   -1275.87366550 Ry
     estimated scf accuracy    <       2.26807467 Ry

     iteration #  3     ecut=    30.00 Ry     beta= 0.70
     Davidson diagonalization with overlap
     ethr =  1.06E-03,  avg # of iterations =  1.0

     negative rho (up, down):  8.921E-01 0.000E+00

     total cpu time spent up to now is        9.2 secs

     total energy              =   -1275.51488964 Ry
     estimated scf accuracy    <       1.10007445 Ry

     iteration #  4     ecut=    30.00 Ry     beta= 0.70
     Davidson diagonalization with overlap
     ethr =  9.32E-04,  avg # of iterations =  2.0

     negative rho (up, down):  8.917E-01 0.000E+00

     total cpu time spent up to now is       11.5 secs

     total energy              =   -1275.13061256 Ry
     estimated scf accuracy    <       1.25471735 Ry

     iteration #  5     ecut=    30.00 Ry     beta= 0.70
     Davidson diagonalization with overlap
     ethr =  9.32E-04,  avg # of iterations =  1.0

     negative rho (up, down):  8.920E-01 0.000E+00

     total cpu time spent up to now is       13.6 secs

     total energy              =   -1275.09947849 Ry
     estimated scf accuracy    <       0.45972789 Ry

     iteration #  6     ecut=    30.00 Ry     beta= 0.70
     Davidson diagonalization with overlap
     ethr =  3.90E-04,  avg # of iterations =  2.0

     negative rho (up, down):  9.510E-01 0.000E+00

     total cpu time spent up to now is       15.7 secs

     total energy              =   -1275.05280279 Ry
     estimated scf accuracy    <       0.22573282 Ry

     iteration #  7     ecut=    30.00 Ry     beta= 0.70
     Davidson diagonalization with overlap
     c_bands:  1 eigenvalues not converged
     ethr =  1.91E-04,  avg # of iterations = 20.0

     negative rho (up, down):  9.461E-01 0.000E+00

     total cpu time spent up to now is       20.9 secs

     total energy              =   -1279.99479405 Ry
     estimated scf accuracy    <     129.25431160 Ry

     iteration #  8     ecut=    30.00 Ry     beta= 0.70
     Davidson diagonalization with overlap
     ethr =  1.91E-04,  avg # of iterations =  2.0

     negative rho (up, down):  9.387E-01 0.000E+00

     total cpu time spent up to now is       23.0 secs

     total energy              =   -1279.32324572 Ry
     estimated scf accuracy    <     121.60878302 Ry

     iteration #  9     ecut=    30.00 Ry     beta= 0.70
     Davidson diagonalization with overlap
     ethr =  1.91E-04,  avg # of iterations =  4.0

     negative rho (up, down):  9.685E-01 0.000E+00

     total cpu time spent up to now is       25.4 secs

     total energy              =   -1279.46779199 Ry
     estimated scf accuracy    <     110.05790667 Ry

     iteration # 10     ecut=    30.00 Ry     beta= 0.70
     Davidson diagonalization with overlap
     ethr =  1.91E-04,  avg # of iterations =  2.0

     negative rho (up, down):  9.668E-01 0.000E+00

     total cpu time spent up to now is       27.6 secs

     total energy              =   -1278.86443019 Ry
     estimated scf accuracy    <     104.41736250 Ry

     iteration # 11     ecut=    30.00 Ry     beta= 0.70
     Davidson diagonalization with overlap
     ethr =  1.91E-04,  avg # of iterations =  7.0

     negative rho (up, down):  1.016E+00 0.000E+00

     total cpu time spent up to now is       29.9 secs

     total energy              =   -1277.20448954 Ry
     estimated scf accuracy    <      63.56969099 Ry

     iteration # 12     ecut=    30.00 Ry     beta= 0.70
     Davidson diagonalization with overlap
     ethr =  1.91E-04,  avg # of iterations =  3.0

     negative rho (up, down):  1.061E+00 0.000E+00

     total cpu time spent up to now is       32.2 secs

     total energy              =   -1276.09428724 Ry
     estimated scf accuracy    <      36.80507383 Ry

     iteration # 13     ecut=    30.00 Ry     beta= 0.70
     Davidson diagonalization with overlap
     ethr =  1.91E-04,  avg # of iterations = 13.0

     negative rho (up, down):  9.346E-01 0.000E+00

     total cpu time spent up to now is       35.0 secs

     total energy              =   -1276.65437205 Ry
     estimated scf accuracy    <       5.10496496 Ry

     iteration # 14     ecut=    30.00 Ry     beta= 0.70
     Davidson diagonalization with overlap
     ethr =  1.91E-04,  avg # of iterations =  7.0

     negative rho (up, down):  1.061E+00 0.000E+00

     total cpu time spent up to now is       37.4 secs

     total energy              =   -1276.61082225 Ry
     estimated scf accuracy    <       2.97147018 Ry

     iteration # 15     ecut=    30.00 Ry     beta= 0.70
     Davidson diagonalization with overlap
     c_bands:  1 eigenvalues not converged
     ethr =  1.91E-04,  avg # of iterations = 20.0

     negative rho (up, down):  2.209E+00 0.000E+00

     total cpu time spent up to now is       40.9 secs

     total energy              =   -1275.63514492 Ry
     estimated scf accuracy    <       8.50798991 Ry

     iteration # 16     ecut=    30.00 Ry     beta= 0.70
     Davidson diagonalization with overlap
     ethr =  1.91E-04,  avg # of iterations = 11.0

     negative rho (up, down):  2.120E+00 0.000E+00

     total cpu time spent up to now is       44.4 secs

     total energy              =   -1275.74439836 Ry
     estimated scf accuracy    <       1.37950232 Ry

     iteration # 17     ecut=    30.00 Ry     beta= 0.70
     Davidson diagonalization with overlap
     ethr =  1.91E-04,  avg # of iterations = 10.0

     negative rho (up, down):  1.666E+00 0.000E+00

     total cpu time spent up to now is       48.2 secs

     total energy              =   -1275.53257641 Ry
     estimated scf accuracy    <       6.54791381 Ry

     iteration # 18     ecut=    30.00 Ry     beta= 0.70
     Davidson diagonalization with overlap
     ethr =  1.91E-04,  avg # of iterations = 10.0

     negative rho (up, down):  1.616E+00 0.000E+00

     total cpu time spent up to now is       51.4 secs

     total energy              =   -1275.76848359 Ry
     estimated scf accuracy    <       1.35171199 Ry

     iteration # 19     ecut=    30.00 Ry     beta= 0.70
     Davidson diagonalization with overlap
     ethr =  1.91E-04,  avg # of iterations =  6.0

     negative rho (up, down):  1.374E+00 0.000E+00

     total cpu time spent up to now is       54.0 secs

     total energy              =   -1275.77691073 Ry
     estimated scf accuracy    <       0.97598459 Ry

     iteration # 20     ecut=    30.00 Ry     beta= 0.70
     Davidson diagonalization with overlap
     ethr =  1.91E-04,  avg # of iterations =  5.0

     negative rho (up, down):  1.292E+00 0.000E+00

     total cpu time spent up to now is       56.4 secs

     total energy              =   -1275.67007787 Ry
     estimated scf accuracy    <       1.27866401 Ry

     iteration # 21     ecut=    30.00 Ry     beta= 0.70
     Davidson diagonalization with overlap
     ethr =  1.91E-04,  avg # of iterations =  5.0

     negative rho (up, down):  1.266E+00 0.000E+00

     total cpu time spent up to now is       58.8 secs

     total energy              =   -1275.85231026 Ry
     estimated scf accuracy    <       0.72756918 Ry

     iteration # 22     ecut=    30.00 Ry     beta= 0.70
     Davidson diagonalization with overlap
     ethr =  1.91E-04,  avg # of iterations =  5.0

     negative rho (up, down):  1.025E+00 0.000E+00

     total cpu time spent up to now is       61.4 secs

     total energy              =   -1275.77315329 Ry
     estimated scf accuracy    <       1.39737355 Ry

     iteration # 23     ecut=    30.00 Ry     beta= 0.70
     Davidson diagonalization with overlap
     ethr =  1.91E-04,  avg # of iterations =  5.0

     negative rho (up, down):  1.019E+00 0.000E+00

     total cpu time spent up to now is       63.9 secs

     total energy              =   -1275.69818855 Ry
     estimated scf accuracy    <       1.59517115 Ry

     iteration # 24     ecut=    30.00 Ry     beta= 0.70
     Davidson diagonalization with overlap
     ethr =  1.91E-04,  avg # of iterations =  6.0

     negative rho (up, down):  9.730E-01 0.000E+00

     total cpu time spent up to now is       66.5 secs

     total energy              =   -1275.75542778 Ry
     estimated scf accuracy    <       1.03717725 Ry

     iteration # 25     ecut=    30.00 Ry     beta= 0.70
     Davidson diagonalization with overlap
     ethr =  1.91E-04,  avg # of iterations =  5.0

     negative rho (up, down):  9.867E-01 0.000E+00

     total cpu time spent up to now is       69.0 secs

     total energy              =   -1275.71902467 Ry
     estimated scf accuracy    <       1.60306101 Ry

     iteration # 26     ecut=    30.00 Ry     beta= 0.70
     Davidson diagonalization with overlap
     ethr =  1.91E-04,  avg # of iterations =  5.0

     negative rho (up, down):  9.743E-01 0.000E+00

     total cpu time spent up to now is       71.3 secs

     total energy              =   -1275.75177176 Ry
     estimated scf accuracy    <       0.66499415 Ry

     iteration # 27     ecut=    30.00 Ry     beta= 0.70
     Davidson diagonalization with overlap
     ethr =  1.91E-04,  avg # of iterations =  1.0

     negative rho (up, down):  9.257E-01 0.000E+00

     total cpu time spent up to now is       73.3 secs

     total energy              =   -1275.74509242 Ry
     estimated scf accuracy    <       0.14368638 Ry

     iteration # 28     ecut=    30.00 Ry     beta= 0.70
     Davidson diagonalization with overlap
     ethr =  1.22E-04,  avg # of iterations =  3.0

     negative rho (up, down):  9.192E-01 0.000E+00

     total cpu time spent up to now is       75.7 secs

     total energy              =   -1275.74910867 Ry
     estimated scf accuracy    <       1.13355764 Ry

     iteration # 29     ecut=    30.00 Ry     beta= 0.70
     Davidson diagonalization with overlap
     ethr =  1.22E-04,  avg # of iterations =  2.0

     negative rho (up, down):  9.085E-01 0.000E+00

     total cpu time spent up to now is       77.8 secs

     total energy              =   -1275.74340384 Ry
     estimated scf accuracy    <       0.59035082 Ry

     iteration # 30     ecut=    30.00 Ry     beta= 0.70
     Davidson diagonalization with overlap
     ethr =  1.22E-04,  avg # of iterations =  3.0

     negative rho (up, down):  9.017E-01 0.000E+00

     total cpu time spent up to now is       79.9 secs

     total energy              =   -1275.74642710 Ry
     estimated scf accuracy    <       0.13650891 Ry

     iteration # 31     ecut=    30.00 Ry     beta= 0.70
     Davidson diagonalization with overlap
     ethr =  1.16E-04,  avg # of iterations =  1.0

     negative rho (up, down):  8.992E-01 0.000E+00

     total cpu time spent up to now is       81.8 secs

     total energy              =   -1275.75318838 Ry
     estimated scf accuracy    <       0.17374967 Ry

     iteration # 32     ecut=    30.00 Ry     beta= 0.70
     Davidson diagonalization with overlap
     ethr =  1.16E-04,  avg # of iterations =  1.0

     negative rho (up, down):  8.967E-01 0.000E+00

     total cpu time spent up to now is       83.8 secs

     total energy              =   -1275.75422968 Ry
     estimated scf accuracy    <       0.06283928 Ry

     iteration # 33     ecut=    30.00 Ry     beta= 0.70
     Davidson diagonalization with overlap
     ethr =  5.33E-05,  avg # of iterations =  1.0

     negative rho (up, down):  8.948E-01 0.000E+00

     total cpu time spent up to now is       85.8 secs

     total energy              =   -1275.75567878 Ry
     estimated scf accuracy    <       0.07871114 Ry

     iteration # 34     ecut=    30.00 Ry     beta= 0.70
     Davidson diagonalization with overlap
     ethr =  5.33E-05,  avg # of iterations =  1.0

     negative rho (up, down):  8.944E-01 0.000E+00

     total cpu time spent up to now is       87.9 secs

     total energy              =   -1275.75603527 Ry
     estimated scf accuracy    <       0.00470589 Ry

     iteration # 35     ecut=    30.00 Ry     beta= 0.70
     Davidson diagonalization with overlap
     ethr =  3.99E-06,  avg # of iterations =  6.0

     negative rho (up, down):  8.943E-01 0.000E+00

     total cpu time spent up to now is       90.7 secs

     total energy              =   -1275.75453504 Ry
     estimated scf accuracy    <       0.03476150 Ry

     iteration # 36     ecut=    30.00 Ry     beta= 0.70
     Davidson diagonalization with overlap
     ethr =  3.99E-06,  avg # of iterations =  6.0

     negative rho (up, down):  8.941E-01 0.000E+00

     total cpu time spent up to now is       93.2 secs

     total energy              =   -1275.75647519 Ry
     estimated scf accuracy    <       0.00164176 Ry

     iteration # 37     ecut=    30.00 Ry     beta= 0.70
     Davidson diagonalization with overlap
     ethr =  1.39E-06,  avg # of iterations =  2.0

     negative rho (up, down):  8.938E-01 0.000E+00

     total cpu time spent up to now is       95.3 secs

     total energy              =   -1275.75652175 Ry
     estimated scf accuracy    <       0.00074992 Ry

     iteration # 38     ecut=    30.00 Ry     beta= 0.70
     Davidson diagonalization with overlap
     ethr =  6.36E-07,  avg # of iterations =  2.0

     negative rho (up, down):  8.938E-01 0.000E+00

     total cpu time spent up to now is       97.4 secs

     total energy              =   -1275.75657286 Ry
     estimated scf accuracy    <       0.00032700 Ry

     iteration # 39     ecut=    30.00 Ry     beta= 0.70
     Davidson diagonalization with overlap
     ethr =  2.77E-07,  avg # of iterations =  5.0

     negative rho (up, down):  8.936E-01 0.000E+00

     total cpu time spent up to now is       99.6 secs

     total energy              =   -1275.75657119 Ry
     estimated scf accuracy    <       0.00017458 Ry

     iteration # 40     ecut=    30.00 Ry     beta= 0.70
     Davidson diagonalization with overlap
     ethr =  1.48E-07,  avg # of iterations =  6.0

     negative rho (up, down):  8.935E-01 0.000E+00

     total cpu time spent up to now is      101.9 secs

     total energy              =   -1275.75655307 Ry
     estimated scf accuracy    <       0.00073725 Ry

     iteration # 41     ecut=    30.00 Ry     beta= 0.70
     Davidson diagonalization with overlap
     ethr =  1.48E-07,  avg # of iterations =  5.0

     negative rho (up, down):  8.935E-01 0.000E+00

     total cpu time spent up to now is      104.2 secs

     total energy              =   -1275.75658357 Ry
     estimated scf accuracy    <       0.00019384 Ry

     iteration # 42     ecut=    30.00 Ry     beta= 0.70
     Davidson diagonalization with overlap
     ethr =  1.48E-07,  avg # of iterations =  1.0

     negative rho (up, down):  8.935E-01 0.000E+00

     total cpu time spent up to now is      106.0 secs

     total energy              =   -1275.75658646 Ry
     estimated scf accuracy    <       0.00013076 Ry

     iteration # 43     ecut=    30.00 Ry     beta= 0.70
     Davidson diagonalization with overlap
     ethr =  1.11E-07,  avg # of iterations =  1.0

     negative rho (up, down):  8.935E-01 0.000E+00

     total cpu time spent up to now is      107.9 secs

     total energy              =   -1275.75658482 Ry
     estimated scf accuracy    <       0.00073943 Ry

     iteration # 44     ecut=    30.00 Ry     beta= 0.70
     Davidson diagonalization with overlap
     ethr =  1.11E-07,  avg # of iterations =  1.0

     negative rho (up, down):  8.935E-01 0.000E+00

     total cpu time spent up to now is      109.9 secs

     total energy              =   -1275.75658731 Ry
     estimated scf accuracy    <       0.00003129 Ry

     iteration # 45     ecut=    30.00 Ry     beta= 0.70
     Davidson diagonalization with overlap
     ethr =  2.65E-08,  avg # of iterations =  6.0

     negative rho (up, down):  8.935E-01 0.000E+00

     total cpu time spent up to now is      112.5 secs

     total energy              =   -1275.75656352 Ry
     estimated scf accuracy    <       0.00051043 Ry

     iteration # 46     ecut=    30.00 Ry     beta= 0.70
     Davidson diagonalization with overlap
     ethr =  2.65E-08,  avg # of iterations =  6.0

     negative rho (up, down):  8.935E-01 0.000E+00

     total cpu time spent up to now is      115.3 secs

     total energy              =   -1275.75657964 Ry
     estimated scf accuracy    <       0.00025037 Ry

     iteration # 47     ecut=    30.00 Ry     beta= 0.70
     Davidson diagonalization with overlap
     ethr =  2.65E-08,  avg # of iterations =  5.0

     negative rho (up, down):  8.934E-01 0.000E+00

     total cpu time spent up to now is      117.9 secs

     total energy              =   -1275.75658992 Ry
     estimated scf accuracy    <       0.00005681 Ry

     iteration # 48     ecut=    30.00 Ry     beta= 0.70
     Davidson diagonalization with overlap
     ethr =  2.65E-08,  avg # of iterations =  3.0

     negative rho (up, down):  8.934E-01 0.000E+00

     total cpu time spent up to now is      120.2 secs

     total energy              =   -1275.75659228 Ry
     estimated scf accuracy    <       0.00005370 Ry

     iteration # 49     ecut=    30.00 Ry     beta= 0.70
     Davidson diagonalization with overlap
     ethr =  2.65E-08,  avg # of iterations =  1.0

     negative rho (up, down):  8.934E-01 0.000E+00

     total cpu time spent up to now is      122.1 secs

     End of self-consistent calculation

          k = 0.0000 0.0000 0.0000 ( 26023 PWs)   bands (ev):

   -70.6199 -70.5796 -70.5793 -70.5789 -70.5782 -70.5489 -70.5480 -70.5432
   -70.5427 -37.2514 -37.1802 -37.1798 -37.1794 -37.1788 -37.1435 -37.1432
   -37.1431 -37.1427 -37.1331 -37.1323 -37.1201 -37.1197 -37.0905 -37.0897
   -37.0830 -37.0826 -37.0768 -37.0765 -36.9437 -36.9430 -36.6480 -36.5076
   -36.5073 -36.5071 -36.5067 -36.3652  -8.0055  -5.6232  -5.6230  -5.6229
    -5.6228  -4.9712  -4.9709  -3.5615  -3.5614  -3.3587  -3.3295  -3.3293
    -3.3292  -3.3291  -3.1554  -3.1551  -2.9783  -2.5925  -2.5925  -2.5925
    -2.5924  -2.4617  -2.4616  -2.4613  -2.4027  -2.4024  -1.9591  -1.9588
    -1.7643  -1.6313  -1.6312  -1.3781  -1.3779  -1.3778  -1.3775

     the Fermi energy is    -2.4495 ev

!    total energy              =   -1275.75659229 Ry
     estimated scf accuracy    <       0.00000195 Ry
     smearing contrib. (-TS)   =      -0.03429150 Ry
     internal energy E=F+TS    =   -1275.72230080 Ry

     convergence has been achieved in  49 iterations

     negative rho (up, down):  8.934E-01 0.000E+00

     Forces acting on atoms (cartesian axes, Ry/au):

     atom    1 type  1   force =    -0.00003842   -0.00009695   -0.00001316
     atom    2 type  1   force =    -0.00021446   -0.00024222    0.00004223
     atom    3 type  1   force =     0.00022194    0.00028852   -0.00000764
     atom    4 type  1   force =    -0.00011199   -0.00001638    0.00000046
     atom    5 type  1   force =     0.00029493    0.00009118   -0.00000210
     atom    6 type  1   force =    -0.00013158    0.00009073   -0.00007291
     atom    7 type  1   force =     0.00016740    0.00007184    0.00000788
     atom    8 type  1   force =     0.00002378   -0.00000484   -0.00002049
     atom    9 type  1   force =    -0.00022616   -0.00018496    0.00001162
     atom   10 type  2   force =     0.00001456    0.00000306    0.00005410
     The non-local contrib.  to forces
     atom    1 type  1   force =    -0.00008644    0.00000705   -0.00052268
     atom    2 type  1   force =    -0.00016641   -0.00012581   -0.00046452
     atom    3 type  1   force =     0.00018840    0.00035524   -0.00046924
     atom    4 type  1   force =    -0.00011830   -0.00002433   -0.00048443
     atom    5 type  1   force =     0.00028874    0.00000382   -0.00052445
     atom    6 type  1   force =    -0.00016272    0.00001633   -0.00054724
     atom    7 type  1   force =     0.00014350    0.00002375   -0.00052224
     atom    8 type  1   force =    -0.00000591   -0.00008104   -0.00053438
     atom    9 type  1   force =    -0.00019973   -0.00021976   -0.00045590
     atom   10 type  2   force =     0.00000289   -0.00000351    0.00013077
     The ionic contribution  to forces
     atom    1 type  1   force =    -0.00001456    0.00184504    0.06589620
     atom    2 type  1   force =     0.00045991   -0.00061039    0.06525909
     atom    3 type  1   force =    -0.00044536   -0.00068565    0.06524113
     atom    4 type  1   force =    -0.00150535    0.00011331    0.06506165
     atom    5 type  1   force =    -0.00004724   -0.00165410    0.06722947
     atom    6 type  1   force =     0.00155258    0.00006088    0.06512436
     atom    7 type  1   force =    -0.00203297    0.00055390    0.06692959
     atom    8 type  1   force =     0.00197358    0.00057715    0.06701424
     atom    9 type  1   force =     0.00005940   -0.00020015    0.06423928
     atom   10 type  2   force =    -0.00000000    0.00000001   -0.59199501
     The local contribution  to forces
     atom    1 type  1   force =    -0.00048649   -0.00222649   -0.06532984
     atom    2 type  1   force =    -0.00133057   -0.00103767   -0.06469706
     atom    3 type  1   force =     0.00181518    0.00209361   -0.06479956
     atom    4 type  1   force =     0.00027186   -0.00007060   -0.06446830
     atom    5 type  1   force =     0.00206313    0.00264523   -0.06670932
     atom    6 type  1   force =    -0.00225956    0.00046786   -0.06471315
     atom    7 type  1   force =     0.00302503    0.00024680   -0.06634498
     atom    8 type  1   force =    -0.00156114   -0.00112370   -0.06644756
     atom    9 type  1   force =    -0.00156523   -0.00100976   -0.06375709
     atom   10 type  2   force =     0.00000021    0.00000001    0.59195478
     The core correction contribution to forces
     atom    1 type  1   force =     0.00000567   -0.00000064   -0.00003170
     atom    2 type  1   force =    -0.00000875    0.00001008   -0.00002862
     atom    3 type  1   force =    -0.00000821    0.00001410   -0.00003000
     atom    4 type  1   force =     0.00001040   -0.00001083   -0.00002973
     atom    5 type  1   force =    -0.00000480   -0.00001800   -0.00003068
     atom    6 type  1   force =    -0.00000737   -0.00000604   -0.00003787
     atom    7 type  1   force =    -0.00000835   -0.00001027   -0.00003404
     atom    8 type  1   force =    -0.00000401    0.00000559   -0.00003120
     atom    9 type  1   force =     0.00001071   -0.00000104   -0.00002397
     atom   10 type  2   force =     0.00000000    0.00000000    0.00000000
     The Hubbard contrib.    to forces
     atom    1 type  1   force =     0.00000000    0.00000000    0.00000000
     atom    2 type  1   force =     0.00000000    0.00000000    0.00000000
     atom    3 type  1   force =     0.00000000    0.00000000    0.00000000
     atom    4 type  1   force =     0.00000000    0.00000000    0.00000000
     atom    5 type  1   force =     0.00000000    0.00000000    0.00000000
     atom    6 type  1   force =     0.00000000    0.00000000    0.00000000
     atom    7 type  1   force =     0.00000000    0.00000000    0.00000000
     atom    8 type  1   force =     0.00000000    0.00000000    0.00000000
     atom    9 type  1   force =     0.00000000    0.00000000    0.00000000
     atom   10 type  2   force =     0.00000000    0.00000000    0.00000000
     The SCF correction term to forces
     atom    1 type  1   force =     0.00053146    0.00027129    0.00001297
     atom    2 type  1   force =     0.00081940    0.00151476    0.00001145
     atom    3 type  1   force =    -0.00134003   -0.00149559    0.00008814
     atom    4 type  1   force =     0.00121745   -0.00003073   -0.00004064
     atom    5 type  1   force =    -0.00201684   -0.00089257    0.00007099
     atom    6 type  1   force =     0.00073355   -0.00045510    0.00013911
     atom    7 type  1   force =    -0.00097176   -0.00074914    0.00001766
     atom    8 type  1   force =    -0.00039069    0.00061037    0.00001652
     atom    9 type  1   force =     0.00145674    0.00123894    0.00004740
     atom   10 type  2   force =    -0.00000049   -0.00000025    0.00000167

     Total force =     0.000715     Total SCF correction =     0.004491
     SCF correction compared to forces is large: reduce conv_thr to get better values

     Molecular Dynamics Calculation

     Starting temperature  =   300.00 K

     temperature is set once at start

     mass Ta               =   180.95
     mass H                =     1.01
     Time step             =   100.00 a.u.,  4.8378 femto-seconds

     Entering Dynamics:    iteration =     1
                           time      =   0.0048 pico-seconds


ATOMIC_POSITIONS (angstrom)
Ta           -0.0000006164       -0.0000015554        9.9988659520
Ta            3.3057962361       -0.0000038860        9.9988668406
Ta            6.6116039058        0.0000046288        9.9988660405
Ta            1.6528985376        2.3375537325        9.9988661704
Ta            4.9587047425        2.3375554581        9.9988661294
Ta            8.2644975768        2.3375554508        9.9988649934
Ta            3.3058023623        4.6751081512        9.9988662895
Ta            6.6116007267        4.6751069210        9.9988658344
Ta            9.9173963936        4.6751040313        9.9988663495
H             5.0000419603        4.0000086416        2.8320919574


     kinetic energy (Ekin) =           0.55086817 Ry
     temperature           =        6442.60780105 K 
     Ekin + Etot (const)   =       -1275.20572412 Ry

     Linear momentum :    0.0000000000    0.0000000000   -0.0000000000

     File outdir/pwscf.msd.dat deleted, as requested

     Writing config-only to output data dir outdir/pwscf.save/
     NEW-OLD atomic charge density approx. for the potential

     Check: negative core charge=   -0.000002

     negative rho (up, down):  8.931E-01 0.000E+00

     total cpu time spent up to now is      124.2 secs

     Self-consistent Calculation

     iteration #  1     ecut=    30.00 Ry     beta= 0.70
     Davidson diagonalization with overlap
     ethr =  1.00E-06,  avg # of iterations = 10.0

     negative rho (up, down):  8.934E-01 0.000E+00

     total cpu time spent up to now is      127.4 secs

     total energy              =   -1275.28090626 Ry
     estimated scf accuracy    <       0.62926969 Ry

     iteration #  2     ecut=    30.00 Ry     beta= 0.70
     Davidson diagonalization with overlap
     ethr =  5.33E-04,  avg # of iterations =  7.0

     negative rho (up, down):  8.944E-01 0.000E+00

     total cpu time spent up to now is      129.7 secs

     total energy              =   -1275.97559057 Ry
     estimated scf accuracy    <       2.59719168 Ry

     iteration #  3     ecut=    30.00 Ry     beta= 0.70
     Davidson diagonalization with overlap
     ethr =  5.33E-04,  avg # of iterations =  2.0

     negative rho (up, down):  8.942E-01 0.000E+00

     total cpu time spent up to now is      131.9 secs

     total energy              =   -1275.92643483 Ry
     estimated scf accuracy    <       1.40623056 Ry

     iteration #  4     ecut=    30.00 Ry     beta= 0.70
     Davidson diagonalization with overlap
     ethr =  5.33E-04,  avg # of iterations =  1.0

     negative rho (up, down):  8.940E-01 0.000E+00

     total cpu time spent up to now is      133.8 secs

     total energy              =   -1275.87619784 Ry
     estimated scf accuracy    <       1.15166263 Ry

     iteration #  5     ecut=    30.00 Ry     beta= 0.70
     Davidson diagonalization with overlap
     ethr =  5.33E-04,  avg # of iterations =  1.0

     negative rho (up, down):  8.938E-01 0.000E+00

     total cpu time spent up to now is      135.6 secs

     total energy              =   -1275.78416852 Ry
     estimated scf accuracy    <       1.04374158 Ry

     iteration #  6     ecut=    30.00 Ry     beta= 0.70
     Davidson diagonalization with overlap
     ethr =  5.33E-04,  avg # of iterations =  1.0

     negative rho (up, down):  8.937E-01 0.000E+00

     total cpu time spent up to now is      137.5 secs

     total energy              =   -1275.63811384 Ry
     estimated scf accuracy    <       0.91183297 Ry

     iteration #  7     ecut=    30.00 Ry     beta= 0.70
     Davidson diagonalization with overlap
     ethr =  5.33E-04,  avg # of iterations =  1.0

     negative rho (up, down):  8.935E-01 0.000E+00

     total cpu time spent up to now is      139.4 secs

     total energy              =   -1275.44714286 Ry
     estimated scf accuracy    <       0.73055538 Ry

     iteration #  8     ecut=    30.00 Ry     beta= 0.70
     Davidson diagonalization with overlap
     ethr =  5.33E-04,  avg # of iterations =  1.0

     negative rho (up, down):  8.933E-01 0.000E+00

     total cpu time spent up to now is      141.2 secs

     total energy              =   -1275.33639841 Ry
     estimated scf accuracy    <       0.48425217 Ry

     iteration #  9     ecut=    30.00 Ry     beta= 0.70
     Davidson diagonalization with overlap
     ethr =  4.10E-04,  avg # of iterations =  1.0

     negative rho (up, down):  8.931E-01 0.000E+00

     total cpu time spent up to now is      143.1 secs

     total energy              =   -1275.27514136 Ry
     estimated scf accuracy    <       0.33830701 Ry

     iteration # 10     ecut=    30.00 Ry     beta= 0.70
     Davidson diagonalization with overlap
     ethr =  2.87E-04,  avg # of iterations =  6.0

     negative rho (up, down):  8.938E-01 0.000E+00

     total cpu time spent up to now is      145.4 secs

     total energy              =   -1276.80188333 Ry
     estimated scf accuracy    <       1.63727971 Ry

     iteration # 11     ecut=    30.00 Ry     beta= 0.70
     Davidson diagonalization with overlap
     ethr =  2.87E-04,  avg # of iterations =  2.0

     negative rho (up, down):  8.943E-01 0.000E+00

     total cpu time spent up to now is      147.4 secs

     total energy              =   -1276.49494272 Ry
     estimated scf accuracy    <       2.30299019 Ry

     iteration # 12     ecut=    30.00 Ry     beta= 0.70
     Davidson diagonalization with overlap
     ethr =  2.87E-04,  avg # of iterations =  2.0

     negative rho (up, down):  8.960E-01 0.000E+00

     total cpu time spent up to now is      149.6 secs

     total energy              =   -1276.08345626 Ry
     estimated scf accuracy    <       1.79425231 Ry

     iteration # 13     ecut=    30.00 Ry     beta= 0.70
     Davidson diagonalization with overlap
     ethr =  2.87E-04,  avg # of iterations =  2.0

     negative rho (up, down):  8.964E-01 0.000E+00

     total cpu time spent up to now is      151.8 secs

     total energy              =   -1275.99756597 Ry
     estimated scf accuracy    <       1.12500879 Ry

     iteration # 14     ecut=    30.00 Ry     beta= 0.70
     Davidson diagonalization with overlap
     ethr =  2.87E-04,  avg # of iterations =  2.0

     negative rho (up, down):  8.973E-01 0.000E+00

     total cpu time spent up to now is      153.8 secs

     total energy              =   -1275.84054745 Ry
     estimated scf accuracy    <       0.97241055 Ry

     iteration # 15     ecut=    30.00 Ry     beta= 0.70
     Davidson diagonalization with overlap
     ethr =  2.87E-04,  avg # of iterations =  2.0

     negative rho (up, down):  8.977E-01 0.000E+00

     total cpu time spent up to now is      155.8 secs

     total energy              =   -1275.69867229 Ry
     estimated scf accuracy    <       0.72220817 Ry

     iteration # 16     ecut=    30.00 Ry     beta= 0.70
     Davidson diagonalization with overlap
     ethr =  2.87E-04,  avg # of iterations =  2.0

     negative rho (up, down):  9.014E-01 0.000E+00

     total cpu time spent up to now is      157.8 secs

     total energy              =   -1276.09082592 Ry
     estimated scf accuracy    <       0.94292714 Ry

     iteration # 17     ecut=    30.00 Ry     beta= 0.70
     Davidson diagonalization with overlap
     ethr =  2.87E-04,  avg # of iterations =  2.0

     negative rho (up, down):  9.014E-01 0.000E+00

     total cpu time spent up to now is      159.9 secs

     total energy              =   -1276.08589369 Ry
     estimated scf accuracy    <       1.27975613 Ry

     iteration # 18     ecut=    30.00 Ry     beta= 0.70
     Davidson diagonalization with overlap
     ethr =  2.87E-04,  avg # of iterations =  1.0

     negative rho (up, down):  9.015E-01 0.000E+00

     total cpu time spent up to now is      162.0 secs

     total energy              =   -1276.09349470 Ry
     estimated scf accuracy    <       1.27369993 Ry

     iteration # 19     ecut=    30.00 Ry     beta= 0.70
     Davidson diagonalization with overlap
     ethr =  2.87E-04,  avg # of iterations =  1.0

     negative rho (up, down):  8.977E-01 0.000E+00

     total cpu time spent up to now is      164.0 secs

     total energy              =   -1275.81110638 Ry
     estimated scf accuracy    <       1.28334590 Ry

     iteration # 20     ecut=    30.00 Ry     beta= 0.70
     Davidson diagonalization with overlap
     ethr =  2.87E-04,  avg # of iterations =  2.0

     negative rho (up, down):  8.941E-01 0.000E+00

     total cpu time spent up to now is      166.0 secs

     total energy              =   -1275.27071027 Ry
     estimated scf accuracy    <       0.94256654 Ry

     iteration # 21     ecut=    30.00 Ry     beta= 0.70
     Davidson diagonalization with overlap
     ethr =  2.87E-04,  avg # of iterations =  2.0

     negative rho (up, down):  8.941E-01 0.000E+00

     total cpu time spent up to now is      168.1 secs

     total energy              =   -1276.54123294 Ry
     estimated scf accuracy    <       1.61160924 Ry

     iteration # 22     ecut=    30.00 Ry     beta= 0.70
     Davidson diagonalization with overlap
     ethr =  2.87E-04,  avg # of iterations =  2.0

     negative rho (up, down):  8.941E-01 0.000E+00

     total cpu time spent up to now is      170.1 secs

     total energy              =   -1276.51054314 Ry
     estimated scf accuracy    <       1.84950629 Ry

     iteration # 23     ecut=    30.00 Ry     beta= 0.70
     Davidson diagonalization with overlap
     ethr =  2.87E-04,  avg # of iterations =  1.0

     negative rho (up, down):  8.941E-01 0.000E+00

     total cpu time spent up to now is      172.0 secs

     total energy              =   -1276.61546700 Ry
     estimated scf accuracy    <       1.80590458 Ry

     iteration # 24     ecut=    30.00 Ry     beta= 0.70
     Davidson diagonalization with overlap
     ethr =  2.87E-04,  avg # of iterations =  1.0

     negative rho (up, down):  8.944E-01 0.000E+00

     total cpu time spent up to now is      173.9 secs

     total energy              =   -1276.84238754 Ry
     estimated scf accuracy    <       1.97994636 Ry

     iteration # 25     ecut=    30.00 Ry     beta= 0.70
     Davidson diagonalization with overlap
     ethr =  2.87E-04,  avg # of iterations =  2.0

     negative rho (up, down):  8.944E-01 0.000E+00

     total cpu time spent up to now is      176.0 secs

     total energy              =   -1276.55827225 Ry
     estimated scf accuracy    <       2.37571671 Ry

     iteration # 26     ecut=    30.00 Ry     beta= 0.70
     Davidson diagonalization with overlap
     ethr =  2.87E-04,  avg # of iterations =  2.0

     negative rho (up, down):  8.942E-01 0.000E+00

     total cpu time spent up to now is      178.1 secs

     total energy              =   -1276.60786830 Ry
     estimated scf accuracy    <       1.90781383 Ry

     iteration # 27     ecut=    30.00 Ry     beta= 0.70
     Davidson diagonalization with overlap
     ethr =  2.87E-04,  avg # of iterations =  1.0

     negative rho (up, down):  8.942E-01 0.000E+00

     total cpu time spent up to now is      180.0 secs

     total energy              =   -1276.57903341 Ry
     estimated scf accuracy    <       1.97747232 Ry

     iteration # 28     ecut=    30.00 Ry     beta= 0.70
     Davidson diagonalization with overlap
     ethr =  2.87E-04,  avg # of iterations =  1.0

     negative rho (up, down):  8.967E-01 0.000E+00

     total cpu time spent up to now is      181.9 secs

     total energy              =   -1275.80252222 Ry
     estimated scf accuracy    <       1.92673058 Ry

     iteration # 29     ecut=    30.00 Ry     beta= 0.70
     Davidson diagonalization with overlap
     ethr =  2.87E-04,  avg # of iterations =  3.0

     negative rho (up, down):  9.635E-01 0.000E+00

     total cpu time spent up to now is      184.0 secs

     total energy              =   -1275.27256615 Ry
     estimated scf accuracy    <       0.77098305 Ry

     iteration # 30     ecut=    30.00 Ry     beta= 0.70
     Davidson diagonalization with overlap
     ethr =  2.87E-04,  avg # of iterations = 11.0

     negative rho (up, down):  9.128E-01 0.000E+00

     total cpu time spent up to now is      186.3 secs

     total energy              =   -1276.28218951 Ry
     estimated scf accuracy    <       2.39140312 Ry

     iteration # 31     ecut=    30.00 Ry     beta= 0.70
     Davidson diagonalization with overlap
     ethr =  2.87E-04,  avg # of iterations =  1.0

     negative rho (up, down):  9.049E-01 0.000E+00

     total cpu time spent up to now is      188.1 secs

     total energy              =   -1276.21156803 Ry
     estimated scf accuracy    <       1.70414872 Ry

     iteration # 32     ecut=    30.00 Ry     beta= 0.70
     Davidson diagonalization with overlap
     ethr =  2.87E-04,  avg # of iterations =  1.0

     negative rho (up, down):  8.991E-01 0.000E+00

     total cpu time spent up to now is      190.1 secs

     total energy              =   -1276.02093666 Ry
     estimated scf accuracy    <       1.54751972 Ry

     iteration # 33     ecut=    30.00 Ry     beta= 0.70
     Davidson diagonalization with overlap
     ethr =  2.87E-04,  avg # of iterations =  1.0

     negative rho (up, down):  8.974E-01 0.000E+00

     total cpu time spent up to now is      192.0 secs

     total energy              =   -1275.94416833 Ry
     estimated scf accuracy    <       1.32101384 Ry

     iteration # 34     ecut=    30.00 Ry     beta= 0.70
     Davidson diagonalization with overlap
     ethr =  2.87E-04,  avg # of iterations =  1.0

     negative rho (up, down):  8.947E-01 0.000E+00

     total cpu time spent up to now is      193.8 secs

     total energy              =   -1275.63946869 Ry
     estimated scf accuracy    <       1.20303142 Ry

     iteration # 35     ecut=    30.00 Ry     beta= 0.70
     Davidson diagonalization with overlap
     ethr =  2.87E-04,  avg # of iterations =  1.0

     negative rho (up, down):  8.945E-01 0.000E+00

     total cpu time spent up to now is      195.7 secs

     total energy              =   -1275.56119177 Ry
     estimated scf accuracy    <       0.76391064 Ry

     iteration # 36     ecut=    30.00 Ry     beta= 0.70
     Davidson diagonalization with overlap
     ethr =  2.87E-04,  avg # of iterations =  1.0

     negative rho (up, down):  8.944E-01 0.000E+00

     total cpu time spent up to now is      197.6 secs

     total energy              =   -1275.51534250 Ry
     estimated scf accuracy    <       0.64343390 Ry

     iteration # 37     ecut=    30.00 Ry     beta= 0.70
     Davidson diagonalization with overlap
     ethr =  2.87E-04,  avg # of iterations =  1.0

     negative rho (up, down):  8.944E-01 0.000E+00

     total cpu time spent up to now is      199.4 secs

     total energy              =   -1275.58110673 Ry
     estimated scf accuracy    <       0.57977646 Ry

     iteration # 38     ecut=    30.00 Ry     beta= 0.70
     Davidson diagonalization with overlap
     ethr =  2.87E-04,  avg # of iterations =  1.0

     negative rho (up, down):  9.739E-01 0.000E+00

     total cpu time spent up to now is      201.3 secs

     total energy              =   -1275.07137630 Ry
     estimated scf accuracy    <       0.75521411 Ry

     iteration # 39     ecut=    30.00 Ry     beta= 0.70
     Davidson diagonalization with overlap
     ethr =  2.87E-04,  avg # of iterations = 18.0

     negative rho (up, down):  8.845E-01 0.000E+00

     total cpu time spent up to now is      205.6 secs

     total energy              =   -1277.39622196 Ry
     estimated scf accuracy    <      56.47254929 Ry

     iteration # 40     ecut=    30.00 Ry     beta= 0.70
     Davidson diagonalization with overlap
     ethr =  2.87E-04,  avg # of iterations =  6.0

     negative rho (up, down):  1.026E+00 0.000E+00

     total cpu time spent up to now is      207.9 secs

     total energy              =   -1277.74694290 Ry
     estimated scf accuracy    <      36.11629961 Ry

     iteration # 41     ecut=    30.00 Ry     beta= 0.70
     Davidson diagonalization with overlap
     ethr =  2.87E-04,  avg # of iterations =  5.0

     negative rho (up, down):  9.981E-01 0.000E+00

     total cpu time spent up to now is      210.4 secs

     total energy              =   -1275.91081343 Ry
     estimated scf accuracy    <      36.80127825 Ry

     iteration # 42     ecut=    30.00 Ry     beta= 0.70
     Davidson diagonalization with overlap
     ethr =  2.87E-04,  avg # of iterations = 12.0

     negative rho (up, down):  9.698E-01 0.000E+00

     total cpu time spent up to now is      213.4 secs

     total energy              =   -1276.24255723 Ry
     estimated scf accuracy    <       3.63967807 Ry

     iteration # 43     ecut=    30.00 Ry     beta= 0.70
     Davidson diagonalization with overlap
     ethr =  2.87E-04,  avg # of iterations = 11.0

     negative rho (up, down):  9.320E-01 0.000E+00

     total cpu time spent up to now is      216.4 secs

     total energy              =   -1276.04486275 Ry
     estimated scf accuracy    <       3.65137252 Ry

     iteration # 44     ecut=    30.00 Ry     beta= 0.70
     Davidson diagonalization with overlap
     ethr =  2.87E-04,  avg # of iterations = 11.0

     negative rho (up, down):  9.289E-01 0.000E+00

     total cpu time spent up to now is      219.3 secs

     total energy              =   -1276.06759044 Ry
     estimated scf accuracy    <       2.84194887 Ry

     iteration # 45     ecut=    30.00 Ry     beta= 0.70
     Davidson diagonalization with overlap
     ethr =  2.87E-04,  avg # of iterations =  5.0

     negative rho (up, down):  9.137E-01 0.000E+00

     total cpu time spent up to now is      221.4 secs

     total energy              =   -1276.11785108 Ry
     estimated scf accuracy    <       1.25403902 Ry

     iteration # 46     ecut=    30.00 Ry     beta= 0.70
     Davidson diagonalization with overlap
     ethr =  2.87E-04,  avg # of iterations =  1.0

     negative rho (up, down):  1.118E+00 0.000E+00

     total cpu time spent up to now is      223.4 secs

     total energy              =   -1275.78303135 Ry
     estimated scf accuracy    <       1.18518440 Ry

     iteration # 47     ecut=    30.00 Ry     beta= 0.70
     Davidson diagonalization with overlap
     ethr =  2.87E-04,  avg # of iterations =  5.0

     negative rho (up, down):  1.614E+00 0.000E+00

     total cpu time spent up to now is      225.9 secs

     total energy              =   -1275.47944215 Ry
     estimated scf accuracy    <       1.46813138 Ry

     iteration # 48     ecut=    30.00 Ry     beta= 0.70
     Davidson diagonalization with overlap
     ethr =  2.87E-04,  avg # of iterations = 14.0

     negative rho (up, down):  1.200E+00 0.000E+00

     total cpu time spent up to now is      228.8 secs

     total energy              =   -1275.89416148 Ry
     estimated scf accuracy    <       4.31462759 Ry

     iteration # 49     ecut=    30.00 Ry     beta= 0.70
     Davidson diagonalization with overlap
     ethr =  2.87E-04,  avg # of iterations =  5.0

     negative rho (up, down):  1.106E+00 0.000E+00

     total cpu time spent up to now is      231.4 secs

     total energy              =   -1275.92232922 Ry
     estimated scf accuracy    <       1.73105210 Ry

     iteration # 50     ecut=    30.00 Ry     beta= 0.70
     Davidson diagonalization with overlap
     ethr =  2.87E-04,  avg # of iterations =  2.0

     negative rho (up, down):  9.205E-01 0.000E+00

     total cpu time spent up to now is      233.6 secs

     total energy              =   -1275.73377824 Ry
     estimated scf accuracy    <       1.20396947 Ry

     iteration # 51     ecut=    30.00 Ry     beta= 0.70
     Davidson diagonalization with overlap
     ethr =  2.87E-04,  avg # of iterations =  2.0

     negative rho (up, down):  9.028E-01 0.000E+00

     total cpu time spent up to now is      235.7 secs

     total energy              =   -1275.63082784 Ry
     estimated scf accuracy    <       1.07880775 Ry

     iteration # 52     ecut=    30.00 Ry     beta= 0.70
     Davidson diagonalization with overlap
     ethr =  2.87E-04,  avg # of iterations =  1.0

     negative rho (up, down):  8.967E-01 0.000E+00

     total cpu time spent up to now is      237.7 secs

     total energy              =   -1275.57661788 Ry
     estimated scf accuracy    <       0.75377963 Ry

     iteration # 53     ecut=    30.00 Ry     beta= 0.70
     Davidson diagonalization with overlap
     ethr =  2.87E-04,  avg # of iterations =  1.0

     negative rho (up, down):  8.956E-01 0.000E+00

     total cpu time spent up to now is      239.6 secs

     total energy              =   -1275.54834103 Ry
     estimated scf accuracy    <       0.66086833 Ry

     iteration # 54     ecut=    30.00 Ry     beta= 0.70
     Davidson diagonalization with overlap
     ethr =  2.87E-04,  avg # of iterations =  1.0

     negative rho (up, down):  8.951E-01 0.000E+00

     total cpu time spent up to now is      241.6 secs

     total energy              =   -1275.53404767 Ry
     estimated scf accuracy    <       0.62104927 Ry

     iteration # 55     ecut=    30.00 Ry     beta= 0.70
     Davidson diagonalization with overlap
     ethr =  2.87E-04,  avg # of iterations =  1.0

     negative rho (up, down):  8.898E-01 0.000E+00

     total cpu time spent up to now is      243.5 secs

     total energy              =   -1275.28657624 Ry
     estimated scf accuracy    <       0.60991677 Ry

     iteration # 56     ecut=    30.00 Ry     beta= 0.70
     Davidson diagonalization with overlap
     ethr =  2.87E-04,  avg # of iterations =  7.0

     negative rho (up, down):  8.951E-01 0.000E+00

     total cpu time spent up to now is      246.4 secs

     total energy              =   -1276.51306625 Ry
     estimated scf accuracy    <       5.15748509 Ry

     iteration # 57     ecut=    30.00 Ry     beta= 0.70
     Davidson diagonalization with overlap
     ethr =  2.87E-04,  avg # of iterations =  8.0

     negative rho (up, down):  8.908E-01 0.000E+00

     total cpu time spent up to now is      249.4 secs

     total energy              =   -1276.42222843 Ry
     estimated scf accuracy    <       4.16434295 Ry

     iteration # 58     ecut=    30.00 Ry     beta= 0.70
     Davidson diagonalization with overlap
     ethr =  2.87E-04,  avg # of iterations =  5.0

     negative rho (up, down):  8.911E-01 0.000E+00

     total cpu time spent up to now is      251.8 secs

     total energy              =   -1276.31756376 Ry
     estimated scf accuracy    <       2.02055064 Ry

     iteration # 59     ecut=    30.00 Ry     beta= 0.70
     Davidson diagonalization with overlap
     ethr =  2.87E-04,  avg # of iterations =  2.0

     negative rho (up, down):  8.928E-01 0.000E+00

     total cpu time spent up to now is      253.9 secs

     total energy              =   -1276.16192945 Ry
     estimated scf accuracy    <       1.61733559 Ry

     iteration # 60     ecut=    30.00 Ry     beta= 0.70
     Davidson diagonalization with overlap
     ethr =  2.87E-04,  avg # of iterations =  2.0

     negative rho (up, down):  8.937E-01 0.000E+00

     total cpu time spent up to now is      255.9 secs

     total energy              =   -1276.08299334 Ry
     estimated scf accuracy    <       1.25607165 Ry

     iteration # 61     ecut=    30.00 Ry     beta= 0.70
     Davidson diagonalization with overlap
     ethr =  2.87E-04,  avg # of iterations =  1.0

     negative rho (up, down):  8.941E-01 0.000E+00

     total cpu time spent up to now is      257.8 secs

     total energy              =   -1276.05188688 Ry
     estimated scf accuracy    <       1.10630918 Ry

     iteration # 62     ecut=    30.00 Ry     beta= 0.70
     Davidson diagonalization with overlap
     ethr =  2.87E-04,  avg # of iterations =  1.0

     negative rho (up, down):  8.938E-01 0.000E+00

     total cpu time spent up to now is      259.6 secs

     total energy              =   -1276.08117835 Ry
     estimated scf accuracy    <       1.04422413 Ry

     iteration # 63     ecut=    30.00 Ry     beta= 0.70
     Davidson diagonalization with overlap
     ethr =  2.87E-04,  avg # of iterations =  1.0

     negative rho (up, down):  8.938E-01 0.000E+00

     total cpu time spent up to now is      262.1 secs

     total energy              =   -1276.07501645 Ry
     estimated scf accuracy    <       1.10060591 Ry

     iteration # 64     ecut=    30.00 Ry     beta= 0.70
     Davidson diagonalization with overlap
     ethr =  2.87E-04,  avg # of iterations =  1.0

     negative rho (up, down):  9.224E-01 0.000E+00

     total cpu time spent up to now is      264.0 secs

     total energy              =   -1275.20800595 Ry
     estimated scf accuracy    <       1.23015494 Ry

     iteration # 65     ecut=    30.00 Ry     beta= 0.70
     Davidson diagonalization with overlap
     ethr =  2.87E-04,  avg # of iterations = 10.0

     negative rho (up, down):  8.989E-01 0.000E+00

     total cpu time spent up to now is      266.3 secs

     total energy              =   -1276.06004072 Ry
     estimated scf accuracy    <       2.46388415 Ry

     iteration # 66     ecut=    30.00 Ry     beta= 0.70
     Davidson diagonalization with overlap
     ethr =  2.87E-04,  avg # of iterations =  2.0

     negative rho (up, down):  8.976E-01 0.000E+00

     total cpu time spent up to now is      268.4 secs

     total energy              =   -1275.95566828 Ry
     estimated scf accuracy    <       1.35689220 Ry

     iteration # 67     ecut=    30.00 Ry     beta= 0.70
     Davidson diagonalization with overlap
     ethr =  2.87E-04,  avg # of iterations =  2.0

     negative rho (up, down):  8.957E-01 0.000E+00

     total cpu time spent up to now is      270.4 secs

     total energy              =   -1275.79462641 Ry
     estimated scf accuracy    <       1.29615331 Ry

     iteration # 68     ecut=    30.00 Ry     beta= 0.70
     Davidson diagonalization with overlap
     ethr =  2.87E-04,  avg # of iterations =  1.0

     negative rho (up, down):  8.953E-01 0.000E+00

     total cpu time spent up to now is      272.3 secs

     total energy              =   -1275.73772707 Ry
     estimated scf accuracy    <       0.97958960 Ry

     iteration # 69     ecut=    30.00 Ry     beta= 0.70
     Davidson diagonalization with overlap
     ethr =  2.87E-04,  avg # of iterations =  1.0

     negative rho (up, down):  8.949E-01 0.000E+00

     total cpu time spent up to now is      274.2 secs

     total energy              =   -1275.65182817 Ry
     estimated scf accuracy    <       0.86574212 Ry

     iteration # 70     ecut=    30.00 Ry     beta= 0.70
     Davidson diagonalization with overlap
     ethr =  2.87E-04,  avg # of iterations =  1.0

     negative rho (up, down):  8.948E-01 0.000E+00

     total cpu time spent up to now is      276.1 secs

     total energy              =   -1275.62840989 Ry
     estimated scf accuracy    <       0.75518944 Ry

     iteration # 71     ecut=    30.00 Ry     beta= 0.70
     Davidson diagonalization with overlap
     ethr =  2.87E-04,  avg # of iterations =  1.0

     negative rho (up, down):  8.941E-01 0.000E+00

     total cpu time spent up to now is      278.0 secs

     total energy              =   -1275.45993115 Ry
     estimated scf accuracy    <       0.71824054 Ry

     iteration # 72     ecut=    30.00 Ry     beta= 0.70
     Davidson diagonalization with overlap
     ethr =  2.87E-04,  avg # of iterations =  1.0

     negative rho (up, down):  8.933E-01 0.000E+00

     total cpu time spent up to now is      279.9 secs

     total energy              =   -1275.22904352 Ry
     estimated scf accuracy    <       0.58430091 Ry

     iteration # 73     ecut=    30.00 Ry     beta= 0.70
     Davidson diagonalization with overlap
     ethr =  2.87E-04,  avg # of iterations =  7.0

     negative rho (up, down):  8.939E-01 0.000E+00

     total cpu time spent up to now is      282.5 secs

     total energy              =   -1276.75872841 Ry
     estimated scf accuracy    <       2.18658821 Ry

     iteration # 74     ecut=    30.00 Ry     beta= 0.70
     Davidson diagonalization with overlap
     ethr =  2.87E-04,  avg # of iterations =  5.0

     negative rho (up, down):  8.937E-01 0.000E+00

     total cpu time spent up to now is      284.9 secs

     total energy              =   -1276.41393862 Ry
     estimated scf accuracy    <       3.59022924 Ry

     iteration # 75     ecut=    30.00 Ry     beta= 0.70
     Davidson diagonalization with overlap
     ethr =  2.87E-04,  avg # of iterations =  5.0

     negative rho (up, down):  8.942E-01 0.000E+00

     total cpu time spent up to now is      287.0 secs

     total energy              =   -1276.15403756 Ry
     estimated scf accuracy    <       1.81298540 Ry

     iteration # 76     ecut=    30.00 Ry     beta= 0.70
     Davidson diagonalization with overlap
     ethr =  2.87E-04,  avg # of iterations =  2.0

     negative rho (up, down):  8.943E-01 0.000E+00

     total cpu time spent up to now is      289.0 secs

     total energy              =   -1276.10051371 Ry
     estimated scf accuracy    <       1.26449681 Ry

     iteration # 77     ecut=    30.00 Ry     beta= 0.70
     Davidson diagonalization with overlap
     ethr =  2.87E-04,  avg # of iterations =  1.0

     negative rho (up, down):  8.945E-01 0.000E+00

     total cpu time spent up to now is      291.0 secs

     total energy              =   -1276.00004940 Ry
     estimated scf accuracy    <       1.13473924 Ry

     iteration # 78     ecut=    30.00 Ry     beta= 0.70
     Davidson diagonalization with overlap
     ethr =  2.87E-04,  avg # of iterations =  2.0

     negative rho (up, down):  8.945E-01 0.000E+00

     total cpu time spent up to now is      293.1 secs

     total energy              =   -1275.97857321 Ry
     estimated scf accuracy    <       0.96932988 Ry

     iteration # 79     ecut=    30.00 Ry     beta= 0.70
     Davidson diagonalization with overlap
     ethr =  2.87E-04,  avg # of iterations =  1.0

     negative rho (up, down):  8.945E-01 0.000E+00

     total cpu time spent up to now is      295.2 secs

     total energy              =   -1275.96658144 Ry
     estimated scf accuracy    <       0.92500884 Ry

     iteration # 80     ecut=    30.00 Ry     beta= 0.70
     Davidson diagonalization with overlap
     ethr =  2.87E-04,  avg # of iterations =  1.0

     negative rho (up, down):  8.940E-01 0.000E+00

     total cpu time spent up to now is      297.0 secs

     total energy              =   -1275.98464014 Ry
     estimated scf accuracy    <       0.90530062 Ry

     iteration # 81     ecut=    30.00 Ry     beta= 0.70
     Davidson diagonalization with overlap
     ethr =  2.87E-04,  avg # of iterations =  3.0

     negative rho (up, down):  9.071E-01 0.000E+00

     total cpu time spent up to now is      299.5 secs

     total energy              =   -1275.17719186 Ry
     estimated scf accuracy    <       2.22572196 Ry

     iteration # 82     ecut=    30.00 Ry     beta= 0.70
     Davidson diagonalization with overlap
     ethr =  2.87E-04,  avg # of iterations =  9.0

     negative rho (up, down):  8.994E-01 0.000E+00

     total cpu time spent up to now is      302.4 secs

     total energy              =   -1276.31857159 Ry
     estimated scf accuracy    <       5.58712253 Ry

     iteration # 83     ecut=    30.00 Ry     beta= 0.70
     Davidson diagonalization with overlap
     ethr =  2.87E-04,  avg # of iterations =  6.0

     negative rho (up, down):  8.977E-01 0.000E+00

     total cpu time spent up to now is      305.3 secs

     total energy              =   -1276.21264855 Ry
     estimated scf accuracy    <       4.07867392 Ry

     iteration # 84     ecut=    30.00 Ry     beta= 0.70
     Davidson diagonalization with overlap
     ethr =  2.87E-04,  avg # of iterations =  6.0

     negative rho (up, down):  8.962E-01 0.000E+00

     total cpu time spent up to now is      307.7 secs

     total energy              =   -1276.17254023 Ry
     estimated scf accuracy    <       2.19684650 Ry

     iteration # 85     ecut=    30.00 Ry     beta= 0.70
     Davidson diagonalization with overlap
     ethr =  2.87E-04,  avg # of iterations =  2.0

     negative rho (up, down):  8.954E-01 0.000E+00

     total cpu time spent up to now is      309.7 secs

     total energy              =   -1276.04408618 Ry
     estimated scf accuracy    <       1.53625571 Ry

     iteration # 86     ecut=    30.00 Ry     beta= 0.70
     Davidson diagonalization with overlap
     ethr =  2.87E-04,  avg # of iterations =  2.0

     negative rho (up, down):  8.947E-01 0.000E+00

     total cpu time spent up to now is      311.9 secs

     total energy              =   -1275.76321405 Ry
     estimated scf accuracy    <       1.37248380 Ry

     iteration # 87     ecut=    30.00 Ry     beta= 0.70
     Davidson diagonalization with overlap
     ethr =  2.87E-04,  avg # of iterations =  2.0

     negative rho (up, down):  8.947E-01 0.000E+00

     total cpu time spent up to now is      314.0 secs

     total energy              =   -1275.73409491 Ry
     estimated scf accuracy    <       1.28679133 Ry

     iteration # 88     ecut=    30.00 Ry     beta= 0.70
     Davidson diagonalization with overlap
     ethr =  2.87E-04,  avg # of iterations =  1.0

     negative rho (up, down):  8.947E-01 0.000E+00

     total cpu time spent up to now is      315.8 secs

     total energy              =   -1275.72101621 Ry
     estimated scf accuracy    <       0.89695227 Ry

     iteration # 89     ecut=    30.00 Ry     beta= 0.70
     Davidson diagonalization with overlap
     ethr =  2.87E-04,  avg # of iterations =  1.0

     negative rho (up, down):  9.007E-01 0.000E+00

     total cpu time spent up to now is      317.7 secs

     total energy              =   -1275.14248644 Ry
     estimated scf accuracy    <       0.83970808 Ry

     iteration # 90     ecut=    30.00 Ry     beta= 0.70
     Davidson diagonalization with overlap
     ethr =  2.87E-04,  avg # of iterations =  7.0

     negative rho (up, down):  9.157E-01 0.000E+00

     total cpu time spent up to now is      320.7 secs

     total energy              =   -1276.67716794 Ry
     estimated scf accuracy    <       4.77353089 Ry

     iteration # 91     ecut=    30.00 Ry     beta= 0.70
     Davidson diagonalization with overlap
     ethr =  2.87E-04,  avg # of iterations = 17.0

     negative rho (up, down):  8.849E-01 0.000E+00

     total cpu time spent up to now is      324.9 secs

     total energy              =   -1275.43205957 Ry
     estimated scf accuracy    <      15.91254552 Ry

     iteration # 92     ecut=    30.00 Ry     beta= 0.70
     Davidson diagonalization with overlap
     ethr =  2.87E-04,  avg # of iterations = 14.0

     negative rho (up, down):  8.867E-01 0.000E+00

     total cpu time spent up to now is      328.2 secs

     total energy              =   -1276.09347557 Ry
     estimated scf accuracy    <       2.17028570 Ry

     iteration # 93     ecut=    30.00 Ry     beta= 0.70
     Davidson diagonalization with overlap
     ethr =  2.87E-04,  avg # of iterations =  5.0

     negative rho (up, down):  8.882E-01 0.000E+00

     total cpu time spent up to now is      330.4 secs

     total energy              =   -1276.07894340 Ry
     estimated scf accuracy    <       1.40034860 Ry

     iteration # 94     ecut=    30.00 Ry     beta= 0.70
     Davidson diagonalization with overlap
     ethr =  2.87E-04,  avg # of iterations =  1.0

     negative rho (up, down):  8.889E-01 0.000E+00

     total cpu time spent up to now is      332.3 secs

     total energy              =   -1275.96698938 Ry
     estimated scf accuracy    <       1.17699640 Ry

     iteration # 95     ecut=    30.00 Ry     beta= 0.70
     Davidson diagonalization with overlap
     ethr =  2.87E-04,  avg # of iterations =  2.0

     negative rho (up, down):  8.891E-01 0.000E+00

     total cpu time spent up to now is      334.4 secs

     total energy              =   -1275.93626895 Ry
     estimated scf accuracy    <       0.95643142 Ry

     iteration # 96     ecut=    30.00 Ry     beta= 0.70
     Davidson diagonalization with overlap
     ethr =  2.87E-04,  avg # of iterations =  1.0

     negative rho (up, down):  8.900E-01 0.000E+00

     total cpu time spent up to now is      336.4 secs

     total energy              =   -1275.88927471 Ry
     estimated scf accuracy    <       0.87345136 Ry

     iteration # 97     ecut=    30.00 Ry     beta= 0.70
     Davidson diagonalization with overlap
     ethr =  2.87E-04,  avg # of iterations =  1.0

     negative rho (up, down):  8.904E-01 0.000E+00

     total cpu time spent up to now is      338.3 secs

     total energy              =   -1275.88224808 Ry
     estimated scf accuracy    <       0.79358263 Ry

     iteration # 98     ecut=    30.00 Ry     beta= 0.70
     Davidson diagonalization with overlap
     ethr =  2.87E-04,  avg # of iterations =  1.0

     negative rho (up, down):  1.119E+00 0.000E+00

     total cpu time spent up to now is      340.3 secs

     total energy              =   -1275.41102098 Ry
     estimated scf accuracy    <       0.78607538 Ry

     iteration # 99     ecut=    30.00 Ry     beta= 0.70
     Davidson diagonalization with overlap
     ethr =  2.87E-04,  avg # of iterations =  8.0

     negative rho (up, down):  1.017E+00 0.000E+00

     total cpu time spent up to now is      343.8 secs

     total energy              =   -1275.77830879 Ry
     estimated scf accuracy    <       5.17225170 Ry

     iteration #100     ecut=    30.00 Ry     beta= 0.70
     Davidson diagonalization with overlap
     ethr =  2.87E-04,  avg # of iterations =  9.0

     negative rho (up, down):  9.046E-01 0.000E+00

     total cpu time spent up to now is      347.2 secs

     total energy              =   -1275.77709161 Ry
     estimated scf accuracy    <       7.78753220 Ry

     End of self-consistent calculation

     convergence NOT achieved after 100 iterations: stopping

     Writing config to output data dir outdir/pwscf.save/
     Message from routine punch:
     wavefunctions written to file

     init_run     :      2.25s CPU      2.38s WALL (       1 calls)
     electrons    :    328.67s CPU    342.49s WALL (       2 calls)
     update_pot   :      0.39s CPU      0.40s WALL (       1 calls)
     forces       :      1.31s CPU      1.36s WALL (       1 calls)

     Called by init_run:
     wfcinit      :      0.94s CPU      0.97s WALL (       1 calls)
     potinit      :      0.21s CPU      0.23s WALL (       1 calls)
     hinit0       :      0.70s CPU      0.72s WALL (       1 calls)

     Called by electrons:
     c_bands      :    218.99s CPU    222.93s WALL (     149 calls)
     sum_band     :     60.61s CPU     66.27s WALL (     149 calls)
     v_of_rho     :      4.61s CPU      4.83s WALL (     151 calls)
     newd         :     43.61s CPU     47.69s WALL (     151 calls)
     mix_rho      :      1.32s CPU      1.33s WALL (     149 calls)

     Called by c_bands:
     init_us_2    :      0.90s CPU      0.92s WALL (     299 calls)
     init_us_2:cp :      0.90s CPU      0.92s WALL (     299 calls)
     cegterg      :    214.15s CPU    218.05s WALL (     149 calls)

     Called by *egterg:
     cdiaghg      :      7.86s CPU      7.89s WALL (     734 calls)
     h_psi        :    109.36s CPU    112.89s WALL (     736 calls)
     s_psi        :     32.76s CPU     32.87s WALL (     736 calls)
     g_psi        :      0.15s CPU      0.15s WALL (     586 calls)

     Called by h_psi:
     h_psi:calbec :     36.00s CPU     36.20s WALL (     736 calls)
     vloc_psi     :     40.50s CPU     43.75s WALL (     736 calls)
     add_vuspsi   :     32.51s CPU     32.56s WALL (     736 calls)

     General routines
     calbec       :     51.18s CPU     51.44s WALL (     889 calls)
     fft          :      4.42s CPU      4.62s WALL (    1674 calls)
     ffts         :      0.21s CPU      0.22s WALL (     149 calls)
     fftw         :     44.57s CPU     48.14s WALL (   60699 calls)
     davcio       :      0.00s CPU      0.00s WALL (      19 calls)

     Parallel routines

     PWSCF        :   5m33.22s CPU   5m47.30s WALL


   This run was terminated on:   2:50:39  15May2023            

=------------------------------------------------------------------------------=
   JOB DONE.
=------------------------------------------------------------------------------=
