
     Program PWSCF v.7.2 starts on 15May2023 at 14:28:31 

     This program is part of the open-source Quantum ESPRESSO suite
     for quantum simulation of materials; please cite
         "P. Giannozzi et al., J. Phys.:Condens. Matter 21 395502 (2009);
         "P. Giannozzi et al., J. Phys.:Condens. Matter 29 465901 (2017);
         "P. Giannozzi et al., J. Chem. Phys. 152 154105 (2020);
          URL http://www.quantum-espresso.org", 
     in publications or presentations arising from this work. More details at
     http://www.quantum-espresso.org/quote

     Parallel version (MPI), running on    12 processors

     MPI processes distributed on     1 nodes
     73797 MiB available memory on the printing compute node when the environment starts

     Reading input from Ta_3x3x1_MD_velocity_gt0_initialT_300.in
Warning: card &CELL ignored
Warning: card / ignored

     Current dimensions of program PWSCF are:
     Max number of different atomic species (ntypx) = 10
     Max number of k-points (npk) =  40000
     Max angular momentum in pseudopotentials (lmaxx) =  4

     File outdir/pwscf.update deleted, as requested

     File outdir/pwscf.md deleted, as requested

     R & G space division:  proc/nbgrp/npool/nimage =      12
     Subspace diagonalization in iterative solution of the eigenvalue problem:
     a serial algorithm will be used


     Parallelization info
     --------------------
     sticks:   dense  smooth     PW     G-vecs:    dense   smooth      PW
     Min         197     197     49                17359    17359    2165
     Max         198     198     50                17368    17368    2170
     Sum        2375    2375    599               208377   208377   26023

     Using Slab Decomposition



     bravais-lattice index     =            0
     lattice parameter (alat)  =      18.7412  a.u.
     unit-cell volume          =    9386.5802 (a.u.)^3
     number of atoms/cell      =           10
     number of atomic types    =            2
     number of electrons       =       118.00
     number of Kohn-Sham states=           71
     kinetic-energy cutoff     =      30.0000  Ry
     charge density cutoff     =     120.0000  Ry
     scf convergence threshold =      1.0E-06
     mixing beta               =       0.7000
     number of iterations used =            8  plain     mixing
     energy convergence thresh.=      0.0E+00
     force convergence thresh. =      0.0E+00
     Exchange-correlation=  SLA  PW   PBX  PBC
                           (   1   4   3   4   0   0   0)
     nstep                     =            3


     celldm(1)=  18.741170  celldm(2)=   0.000000  celldm(3)=   0.000000
     celldm(4)=   0.000000  celldm(5)=   0.000000  celldm(6)=   0.000000

     crystal axes: (cart. coord. in units of alat)
               a(1) = (   1.000000   0.000000   0.000000 )  
               a(2) = (   0.500000   0.707107   0.000000 )  
               a(3) = (   0.000000   0.000000   2.016658 )  

     reciprocal axes: (cart. coord. in units 2 pi/alat)
               b(1) = (  1.000000 -0.707107  0.000000 )  
               b(2) = (  0.000000  1.414213  0.000000 )  
               b(3) = (  0.000000  0.000000  0.495870 )  


     PseudoPot. # 1 for Ta read from file:
     q-e/pseudo/ta_pbe_v1.uspp.F.UPF
     MD5 check sum: f8bbe9446314a3b8ea5d9f3e3836c939
     Pseudo is Ultrasoft + core correction, Zval = 13.0
     Generated by new atomic code, or converted to UPF format
     Using radial grid of  921 points,  7 beta functions with: 
                l(1) =   0
                l(2) =   0
                l(3) =   1
                l(4) =   1
                l(5) =   2
                l(6) =   2
                l(7) =   3
     Q(r) pseudized with  6 coefficients,  rinner =    1.300   1.300   1.300
                                                       1.300   1.300   1.300
                                                       1.300

     PseudoPot. # 2 for H  read from file:
     q-e/pseudo/h_pbe_v1.4.uspp.F.UPF
     MD5 check sum: 761ae9a214b05c3daf00ab9f6b793d6f
     Pseudo is Ultrasoft, Zval =  1.0
     Generated by new atomic code, or converted to UPF format
     Using radial grid of  615 points,  2 beta functions with: 
                l(1) =   0
                l(2) =   0
     Q(r) pseudized with  8 coefficients,  rinner =    0.700

     atomic species   valence    mass     pseudopotential
        Ta            13.00   180.94788     Ta( 1.00)
        H              1.00     2.01400     H ( 1.00)

     No symmetry found



   Cartesian axes

     site n.     atom                  positions (alat units)
         1           Ta  tau(   1) = (   0.0000000   0.0000000   1.0083288  )
         2           Ta  tau(   2) = (   0.3333333   0.0000000   1.0083288  )
         3           Ta  tau(   3) = (   0.6666667   0.0000000   1.0083288  )
         4           Ta  tau(   4) = (   0.1666667   0.2357023   1.0083288  )
         5           Ta  tau(   5) = (   0.5000000   0.2357023   1.0083288  )
         6           Ta  tau(   6) = (   0.8333333   0.2357023   1.0083288  )
         7           Ta  tau(   7) = (   0.3333333   0.4714045   1.0083288  )
         8           Ta  tau(   8) = (   0.6666667   0.4714045   1.0083288  )
         9           Ta  tau(   9) = (   1.0000000   0.4714045   1.0083288  )
        10           H   tau(  10) = (   0.5041644   0.4033315   1.5124932  )

     number of k points=     1  Gaussian smearing, width (Ry)=  0.0100
                       cart. coord. in units 2pi/alat
        k(    1) = (   0.0000000   0.0000000   0.0000000), wk =   2.0000000

     Dense  grid:   208377 G-vectors     FFT dimensions: (  72,  60, 135)

     Estimated max dynamical RAM per process >     124.58 MB

     Estimated total dynamical RAM >       1.46 GB

     Check: negative core charge=   -0.000002

     Initial potential from superposition of free atoms

     starting charge     117.9900, renormalised to     118.0000

     negative rho (up, down):  8.970E-01 0.000E+00
     Starting wfcs are  118 randomized atomic wfcs

     total cpu time spent up to now is        2.3 secs

     Self-consistent Calculation

     iteration #  1     ecut=    30.00 Ry     beta= 0.70
     Davidson diagonalization with overlap
     ethr =  1.00E-02,  avg # of iterations =  2.0

     Threshold (ethr) on eigenvalues was too large:
     Diagonalizing with lowered threshold

     Davidson diagonalization with overlap
     ethr =  9.46E-04,  avg # of iterations =  1.0

     negative rho (up, down):  8.933E-01 0.000E+00

     total cpu time spent up to now is        6.2 secs

     total energy              =   -1275.29319203 Ry
     estimated scf accuracy    <       1.15640215 Ry

     iteration #  2     ecut=    30.00 Ry     beta= 0.70
     Davidson diagonalization with overlap
     ethr =  9.80E-04,  avg # of iterations =  5.0

     negative rho (up, down):  8.937E-01 0.000E+00

     total cpu time spent up to now is        8.7 secs

     total energy              =   -1275.60888192 Ry
     estimated scf accuracy    <       2.73531545 Ry

     iteration #  3     ecut=    30.00 Ry     beta= 0.70
     Davidson diagonalization with overlap
     ethr =  9.80E-04,  avg # of iterations =  2.0

     negative rho (up, down):  8.937E-01 0.000E+00

     total cpu time spent up to now is       11.0 secs

     total energy              =   -1275.56267513 Ry
     estimated scf accuracy    <       1.79660619 Ry

     iteration #  4     ecut=    30.00 Ry     beta= 0.70
     Davidson diagonalization with overlap
     ethr =  9.80E-04,  avg # of iterations =  2.0

     negative rho (up, down):  8.935E-01 0.000E+00

     total cpu time spent up to now is       13.3 secs

     total energy              =   -1275.53616084 Ry
     estimated scf accuracy    <       0.95368010 Ry

     iteration #  5     ecut=    30.00 Ry     beta= 0.70
     Davidson diagonalization with overlap
     ethr =  8.08E-04,  avg # of iterations =  2.0

     negative rho (up, down):  8.931E-01 0.000E+00

     total cpu time spent up to now is       15.3 secs

     total energy              =   -1275.21539133 Ry
     estimated scf accuracy    <       1.38232086 Ry

     iteration #  6     ecut=    30.00 Ry     beta= 0.70
     Davidson diagonalization with overlap
     ethr =  8.08E-04,  avg # of iterations =  6.0

     negative rho (up, down):  8.935E-01 0.000E+00

     total cpu time spent up to now is       17.7 secs

     total energy              =   -1276.09745811 Ry
     estimated scf accuracy    <       1.98580713 Ry

     iteration #  7     ecut=    30.00 Ry     beta= 0.70
     Davidson diagonalization with overlap
     ethr =  8.08E-04,  avg # of iterations =  2.0

     negative rho (up, down):  8.938E-01 0.000E+00

     total cpu time spent up to now is       19.9 secs

     total energy              =   -1275.94269338 Ry
     estimated scf accuracy    <       1.33141502 Ry

     iteration #  8     ecut=    30.00 Ry     beta= 0.70
     Davidson diagonalization with overlap
     ethr =  8.08E-04,  avg # of iterations =  2.0

     negative rho (up, down):  8.943E-01 0.000E+00

     total cpu time spent up to now is       22.1 secs

     total energy              =   -1275.72919315 Ry
     estimated scf accuracy    <       0.85206599 Ry

     iteration #  9     ecut=    30.00 Ry     beta= 0.70
     Davidson diagonalization with overlap
     ethr =  7.22E-04,  avg # of iterations =  2.0

     negative rho (up, down):  8.948E-01 0.000E+00

     total cpu time spent up to now is       24.2 secs

     total energy              =   -1275.67572725 Ry
     estimated scf accuracy    <       0.55872023 Ry

     iteration # 10     ecut=    30.00 Ry     beta= 0.70
     Davidson diagonalization with overlap
     ethr =  4.73E-04,  avg # of iterations =  2.0

     negative rho (up, down):  8.946E-01 0.000E+00

     total cpu time spent up to now is       26.3 secs

     total energy              =   -1275.84071000 Ry
     estimated scf accuracy    <       0.60327371 Ry

     iteration # 11     ecut=    30.00 Ry     beta= 0.70
     Davidson diagonalization with overlap
     ethr =  4.73E-04,  avg # of iterations =  1.0

     negative rho (up, down):  8.946E-01 0.000E+00

     total cpu time spent up to now is       28.3 secs

     total energy              =   -1275.81872655 Ry
     estimated scf accuracy    <       0.60526620 Ry

     iteration # 12     ecut=    30.00 Ry     beta= 0.70
     Davidson diagonalization with overlap
     ethr =  4.73E-04,  avg # of iterations =  1.0

     negative rho (up, down):  8.946E-01 0.000E+00

     total cpu time spent up to now is       30.3 secs

     total energy              =   -1275.80912059 Ry
     estimated scf accuracy    <       0.56214679 Ry

     iteration # 13     ecut=    30.00 Ry     beta= 0.70
     Davidson diagonalization with overlap
     ethr =  4.73E-04,  avg # of iterations =  1.0

     negative rho (up, down):  8.947E-01 0.000E+00

     total cpu time spent up to now is       32.3 secs

     total energy              =   -1275.78629583 Ry
     estimated scf accuracy    <       0.54929351 Ry

     iteration # 14     ecut=    30.00 Ry     beta= 0.70
     Davidson diagonalization with overlap
     ethr =  4.66E-04,  avg # of iterations =  1.0

     negative rho (up, down):  8.946E-01 0.000E+00

     total cpu time spent up to now is       34.2 secs

     total energy              =   -1275.76719013 Ry
     estimated scf accuracy    <       0.48884092 Ry

     iteration # 15     ecut=    30.00 Ry     beta= 0.70
     Davidson diagonalization with overlap
     ethr =  4.14E-04,  avg # of iterations =  1.0

     negative rho (up, down):  8.946E-01 0.000E+00

     total cpu time spent up to now is       36.1 secs

     total energy              =   -1275.75881562 Ry
     estimated scf accuracy    <       0.36209977 Ry

     iteration # 16     ecut=    30.00 Ry     beta= 0.70
     Davidson diagonalization with overlap
     ethr =  3.07E-04,  avg # of iterations =  1.0

     negative rho (up, down):  8.945E-01 0.000E+00

     total cpu time spent up to now is       38.1 secs

     total energy              =   -1275.75836343 Ry
     estimated scf accuracy    <       0.01719840 Ry

     iteration # 17     ecut=    30.00 Ry     beta= 0.70
     Davidson diagonalization with overlap
     ethr =  1.46E-05,  avg # of iterations =  2.0

     negative rho (up, down):  8.946E-01 0.000E+00

     total cpu time spent up to now is       40.1 secs

     total energy              =   -1275.74840332 Ry
     estimated scf accuracy    <       0.73844100 Ry

     iteration # 18     ecut=    30.00 Ry     beta= 0.70
     Davidson diagonalization with overlap
     ethr =  1.46E-05,  avg # of iterations =  2.0

     negative rho (up, down):  8.945E-01 0.000E+00

     total cpu time spent up to now is       42.7 secs

     total energy              =   -1275.75975962 Ry
     estimated scf accuracy    <       0.08838507 Ry

     iteration # 19     ecut=    30.00 Ry     beta= 0.70
     Davidson diagonalization with overlap
     ethr =  1.46E-05,  avg # of iterations =  1.0

     negative rho (up, down):  8.945E-01 0.000E+00

     total cpu time spent up to now is       44.7 secs

     total energy              =   -1275.76091420 Ry
     estimated scf accuracy    <       0.03341507 Ry

     iteration # 20     ecut=    30.00 Ry     beta= 0.70
     Davidson diagonalization with overlap
     ethr =  1.46E-05,  avg # of iterations =  1.0

     negative rho (up, down):  8.945E-01 0.000E+00

     total cpu time spent up to now is       46.7 secs

     total energy              =   -1275.76161568 Ry
     estimated scf accuracy    <       0.01435036 Ry

     iteration # 21     ecut=    30.00 Ry     beta= 0.70
     Davidson diagonalization with overlap
     ethr =  1.22E-05,  avg # of iterations =  1.0

     negative rho (up, down):  8.945E-01 0.000E+00

     total cpu time spent up to now is       48.6 secs

     total energy              =   -1275.76161430 Ry
     estimated scf accuracy    <       0.00199162 Ry

     iteration # 22     ecut=    30.00 Ry     beta= 0.70
     Davidson diagonalization with overlap
     ethr =  1.69E-06,  avg # of iterations =  1.0

     negative rho (up, down):  8.945E-01 0.000E+00

     total cpu time spent up to now is       50.6 secs

     total energy              =   -1275.76166939 Ry
     estimated scf accuracy    <       0.00103380 Ry

     iteration # 23     ecut=    30.00 Ry     beta= 0.70
     Davidson diagonalization with overlap
     ethr =  8.76E-07,  avg # of iterations =  1.0

     negative rho (up, down):  8.945E-01 0.000E+00

     total cpu time spent up to now is       52.5 secs

     total energy              =   -1275.76166866 Ry
     estimated scf accuracy    <       0.00059132 Ry

     iteration # 24     ecut=    30.00 Ry     beta= 0.70
     Davidson diagonalization with overlap
     ethr =  5.01E-07,  avg # of iterations =  1.0

     negative rho (up, down):  8.945E-01 0.000E+00

     total cpu time spent up to now is       54.5 secs

     total energy              =   -1275.76166651 Ry
     estimated scf accuracy    <       0.00027218 Ry

     iteration # 25     ecut=    30.00 Ry     beta= 0.70
     Davidson diagonalization with overlap
     ethr =  2.31E-07,  avg # of iterations =  1.0

     negative rho (up, down):  8.945E-01 0.000E+00

     total cpu time spent up to now is       56.3 secs

     total energy              =   -1275.76166658 Ry
     estimated scf accuracy    <       0.00005661 Ry

     iteration # 26     ecut=    30.00 Ry     beta= 0.70
     Davidson diagonalization with overlap
     ethr =  4.80E-08,  avg # of iterations =  1.0

     negative rho (up, down):  8.945E-01 0.000E+00

     total cpu time spent up to now is       58.3 secs

     total energy              =   -1275.76166704 Ry
     estimated scf accuracy    <       0.00001237 Ry

     iteration # 27     ecut=    30.00 Ry     beta= 0.70
     Davidson diagonalization with overlap
     ethr =  1.05E-08,  avg # of iterations =  2.0

     negative rho (up, down):  8.945E-01 0.000E+00

     total cpu time spent up to now is       60.4 secs

     total energy              =   -1275.76166721 Ry
     estimated scf accuracy    <       0.00000479 Ry

     iteration # 28     ecut=    30.00 Ry     beta= 0.70
     Davidson diagonalization with overlap
     ethr =  4.06E-09,  avg # of iterations =  2.0

     negative rho (up, down):  8.945E-01 0.000E+00

     total cpu time spent up to now is       62.6 secs

     total energy              =   -1275.76166750 Ry
     estimated scf accuracy    <       0.00000185 Ry

     iteration # 29     ecut=    30.00 Ry     beta= 0.70
     Davidson diagonalization with overlap
     ethr =  1.57E-09,  avg # of iterations =  2.0

     negative rho (up, down):  8.945E-01 0.000E+00

     total cpu time spent up to now is       64.6 secs

     End of self-consistent calculation

          k = 0.0000 0.0000 0.0000 ( 26023 PWs)   bands (ev):

   -70.5771 -70.5376 -70.5371 -70.5351 -70.5346 -70.5066 -70.5050 -70.4999
   -70.4992 -37.2082 -37.1385 -37.1382 -37.1351 -37.1330 -37.1007 -37.1001
   -37.0996 -37.0993 -37.0911 -37.0880 -37.0760 -37.0758 -37.0471 -37.0470
   -37.0397 -37.0391 -37.0335 -37.0332 -36.9005 -36.8996 -36.6047 -36.4654
   -36.4651 -36.4628 -36.4628 -36.3221  -7.9576  -5.5773  -5.5767  -5.5756
    -5.5754  -4.9253  -4.9238  -3.5157  -3.5154  -3.3144  -3.2803  -3.2792
    -3.2787  -3.2787  -3.1059  -3.1057  -2.9280  -2.5541  -2.5415  -2.5415
    -2.5406  -2.4169  -2.4138  -2.4088  -2.3540  -2.3530  -1.9062  -1.9049
    -1.6773  -1.5856  -1.5853  -1.3276  -1.3276  -1.3274  -1.3266

     the Fermi energy is    -2.4010 ev

!    total energy              =   -1275.76166733 Ry
     estimated scf accuracy    <       0.00000042 Ry
     smearing contrib. (-TS)   =      -0.03421086 Ry
     internal energy E=F+TS    =   -1275.72745646 Ry

     convergence has been achieved in  29 iterations

     negative rho (up, down):  8.945E-01 0.000E+00

     Forces acting on atoms (cartesian axes, Ry/au):

     atom    1 type  1   force =    -0.00006086    0.00017379    0.00010849
     atom    2 type  1   force =    -0.00059239   -0.00010927   -0.00040030
     atom    3 type  1   force =     0.00066220   -0.00012022   -0.00040640
     atom    4 type  1   force =     0.00011196   -0.00018612   -0.00004121
     atom    5 type  1   force =     0.00000941   -0.00001951    0.00161254
     atom    6 type  1   force =    -0.00011346   -0.00023497   -0.00004014
     atom    7 type  1   force =    -0.00005402    0.00021467    0.00142078
     atom    8 type  1   force =     0.00000993    0.00017665    0.00151491
     atom    9 type  1   force =     0.00002987    0.00012076   -0.00004046
     atom   10 type  2   force =    -0.00000264   -0.00001578   -0.00372821
     The non-local contrib.  to forces
     atom    1 type  1   force =    -0.00008697   -0.00109497    0.00513067
     atom    2 type  1   force =    -0.00135991    0.00030710    0.00420975
     atom    3 type  1   force =     0.00145035    0.00028093    0.00418106
     atom    4 type  1   force =    -0.00001011   -0.00059250    0.00387665
     atom    5 type  1   force =     0.00007821    0.00122548    0.00634933
     atom    6 type  1   force =    -0.00005912   -0.00072585    0.00391535
     atom    7 type  1   force =     0.00232458    0.00057188    0.00591205
     atom    8 type  1   force =    -0.00243880    0.00047936    0.00597186
     atom    9 type  1   force =     0.00011190   -0.00045569    0.00321444
     atom   10 type  2   force =    -0.00000087   -0.00001337   -0.00101328
     The ionic contribution  to forces
     atom    1 type  1   force =    -0.00032546    0.03601887   -0.32785342
     atom    2 type  1   force =     0.00693534   -0.00797019   -0.30956715
     atom    3 type  1   force =    -0.00661488   -0.00928554   -0.30919148
     atom    4 type  1   force =    -0.02537559   -0.00294585   -0.30858491
     atom    5 type  1   force =    -0.00097561   -0.03795733   -0.37135297
     atom    6 type  1   force =     0.02632860   -0.00390116   -0.31013577
     atom    7 type  1   force =    -0.04017484    0.01343775   -0.36447290
     atom    8 type  1   force =     0.03924175    0.01394934   -0.36716157
     atom    9 type  1   force =     0.00096890   -0.00142386   -0.29151684
     atom   10 type  2   force =    -0.00000822    0.00007798    2.95983701
     The local contribution  to forces
     atom    1 type  1   force =     0.00015811   -0.03567027    0.32310212
     atom    2 type  1   force =    -0.00607033    0.00719592    0.30552141
     atom    3 type  1   force =     0.00591244    0.00843967    0.30514916
     atom    4 type  1   force =     0.02526294    0.00356709    0.30514002
     atom    5 type  1   force =     0.00101236    0.03733536    0.36655536
     atom    6 type  1   force =    -0.02625322    0.00426206    0.30662736
     atom    7 type  1   force =     0.03840622   -0.01327585    0.35986608
     atom    8 type  1   force =    -0.03764955   -0.01393169    0.36258854
     atom    9 type  1   force =    -0.00079431    0.00220140    0.28881045
     atom   10 type  2   force =     0.00000709   -0.00007610   -2.96252540
     The core correction contribution to forces
     atom    1 type  1   force =    -0.00001103    0.00027610    0.00031397
     atom    2 type  1   force =    -0.00020158    0.00006502    0.00017018
     atom    3 type  1   force =     0.00021463    0.00006235    0.00017019
     atom    4 type  1   force =     0.00009772   -0.00025329    0.00023508
     atom    5 type  1   force =    -0.00001734   -0.00045160    0.00056602
     atom    6 type  1   force =    -0.00008206   -0.00025275    0.00024625
     atom    7 type  1   force =    -0.00029497    0.00020007    0.00061701
     atom    8 type  1   force =     0.00030125    0.00020421    0.00062526
     atom    9 type  1   force =    -0.00000785    0.00014816    0.00023636
     atom   10 type  2   force =     0.00000000    0.00000000    0.00000000
     The Hubbard contrib.    to forces
     atom    1 type  1   force =     0.00000000    0.00000000    0.00000000
     atom    2 type  1   force =     0.00000000    0.00000000    0.00000000
     atom    3 type  1   force =     0.00000000    0.00000000    0.00000000
     atom    4 type  1   force =     0.00000000    0.00000000    0.00000000
     atom    5 type  1   force =     0.00000000    0.00000000    0.00000000
     atom    6 type  1   force =     0.00000000    0.00000000    0.00000000
     atom    7 type  1   force =     0.00000000    0.00000000    0.00000000
     atom    8 type  1   force =     0.00000000    0.00000000    0.00000000
     atom    9 type  1   force =     0.00000000    0.00000000    0.00000000
     atom   10 type  2   force =     0.00000000    0.00000000    0.00000000
     The SCF correction term to forces
     atom    1 type  1   force =     0.00000000    0.00000000   -0.00000000
     atom    2 type  1   force =     0.00000000    0.00000000   -0.00000000
     atom    3 type  1   force =    -0.00000000    0.00000000   -0.00000000
     atom    4 type  1   force =     0.00000000    0.00000000   -0.00000000
     atom    5 type  1   force =    -0.00000000   -0.00000000   -0.00000000
     atom    6 type  1   force =    -0.00000000    0.00000000   -0.00000000
     atom    7 type  1   force =    -0.00000000   -0.00000000   -0.00000000
     atom    8 type  1   force =     0.00000000   -0.00000000   -0.00000000
     atom    9 type  1   force =    -0.00000000   -0.00000000   -0.00000000
     atom   10 type  2   force =     0.00000082   -0.00000265    0.00002603

     Total force =     0.003728     Total SCF correction =     0.000026

     Molecular Dynamics Calculation

     Starting temperature  =   300.00 K

     temperature is set once at start

     mass Ta               =   180.95
     mass H                =     2.01
     Time step             =   100.00 a.u.,  4.8378 femto-seconds

     Entering Dynamics:    iteration =     1
                           time      =   0.0048 pico-seconds


ATOMIC_POSITIONS (angstrom)
Ta            0.0000000000        0.0000000000       10.0000000000    0   0   0
Ta            3.3057996767        0.0000000000       10.0000000000    0   0   0
Ta            6.6116003452        0.0000000000       10.0000000000    0   0   0
Ta            1.6529003342        2.3375539952       10.0000000000    0   0   0
Ta            4.9587000109        2.3375539952       10.0000000000    0   0   0
Ta            8.2644996877        2.3375539952       10.0000000000    0   0   0
Ta            3.3057996767        4.6751069986       10.0000000000    0   0   0
Ta            6.6116003452        4.6751069986       10.0000000000    0   0   0
Ta            9.9174000219        4.6751069986       10.0000000000    0   0   0
H             4.9999961998        3.9999772496       13.1615563378


     kinetic energy (Ekin) =           1.10132461 Ry
     temperature           =      115923.60185948 K 
     Ekin + Etot (const)   =       -1274.66034272 Ry

     File outdir/pwscf.msd.dat deleted, as requested

     Writing config-only to output data dir outdir/pwscf.save/
     NEW-OLD atomic charge density approx. for the potential

     Check: negative core charge=   -0.000002

     negative rho (up, down):  8.950E-01 0.000E+00

     total cpu time spent up to now is       66.8 secs

     Self-consistent Calculation

     iteration #  1     ecut=    30.00 Ry     beta= 0.70
     Davidson diagonalization with overlap
     ethr =  1.00E-06,  avg # of iterations =  8.0

     negative rho (up, down):  8.957E-01 0.000E+00

     total cpu time spent up to now is       70.1 secs

     total energy              =   -1275.77051401 Ry
     estimated scf accuracy    <       0.10784452 Ry

     iteration #  2     ecut=    30.00 Ry     beta= 0.70
     Davidson diagonalization with overlap
     ethr =  9.14E-05,  avg # of iterations = 11.0

     negative rho (up, down):  8.960E-01 0.000E+00

     total cpu time spent up to now is       72.7 secs

     total energy              =   -1275.73069596 Ry
     estimated scf accuracy    <       1.30036013 Ry

     iteration #  3     ecut=    30.00 Ry     beta= 0.70
     Davidson diagonalization with overlap
     ethr =  9.14E-05,  avg # of iterations =  8.0

     negative rho (up, down):  8.960E-01 0.000E+00

     total cpu time spent up to now is       75.3 secs

     total energy              =   -1275.81109582 Ry
     estimated scf accuracy    <       0.23928830 Ry

     iteration #  4     ecut=    30.00 Ry     beta= 0.70
     Davidson diagonalization with overlap
     ethr =  9.14E-05,  avg # of iterations =  5.0

     negative rho (up, down):  8.960E-01 0.000E+00

     total cpu time spent up to now is       77.5 secs

     total energy              =   -1275.82690364 Ry
     estimated scf accuracy    <       0.03224486 Ry

     iteration #  5     ecut=    30.00 Ry     beta= 0.70
     Davidson diagonalization with overlap
     ethr =  2.73E-05,  avg # of iterations =  3.0

     negative rho (up, down):  8.961E-01 0.000E+00

     total cpu time spent up to now is       79.8 secs

     total energy              =   -1275.83063243 Ry
     estimated scf accuracy    <       0.01244598 Ry

     iteration #  6     ecut=    30.00 Ry     beta= 0.70
     Davidson diagonalization with overlap
     ethr =  1.05E-05,  avg # of iterations =  7.0

     negative rho (up, down):  8.962E-01 0.000E+00

     total cpu time spent up to now is       82.2 secs

     total energy              =   -1275.83027614 Ry
     estimated scf accuracy    <       0.01856391 Ry

     iteration #  7     ecut=    30.00 Ry     beta= 0.70
     Davidson diagonalization with overlap
     ethr =  1.05E-05,  avg # of iterations =  3.0

     negative rho (up, down):  8.964E-01 0.000E+00

     total cpu time spent up to now is       84.4 secs

     total energy              =   -1275.83212843 Ry
     estimated scf accuracy    <       0.00361891 Ry

     iteration #  8     ecut=    30.00 Ry     beta= 0.70
     Davidson diagonalization with overlap
     ethr =  3.07E-06,  avg # of iterations =  5.0

     negative rho (up, down):  8.964E-01 0.000E+00

     total cpu time spent up to now is       86.6 secs

     total energy              =   -1275.83216428 Ry
     estimated scf accuracy    <       0.00454469 Ry

     iteration #  9     ecut=    30.00 Ry     beta= 0.70
     Davidson diagonalization with overlap
     ethr =  3.07E-06,  avg # of iterations =  3.0

     negative rho (up, down):  8.964E-01 0.000E+00

     total cpu time spent up to now is       88.7 secs

     total energy              =   -1275.83251780 Ry
     estimated scf accuracy    <       0.00036431 Ry

     iteration # 10     ecut=    30.00 Ry     beta= 0.70
     Davidson diagonalization with overlap
     ethr =  3.09E-07,  avg # of iterations =  5.0

     negative rho (up, down):  8.964E-01 0.000E+00

     total cpu time spent up to now is       91.4 secs

     total energy              =   -1275.83252027 Ry
     estimated scf accuracy    <       0.00073277 Ry

     iteration # 11     ecut=    30.00 Ry     beta= 0.70
     Davidson diagonalization with overlap
     ethr =  3.09E-07,  avg # of iterations =  5.0

     negative rho (up, down):  8.964E-01 0.000E+00

     total cpu time spent up to now is       93.7 secs

     total energy              =   -1275.83257831 Ry
     estimated scf accuracy    <       0.00005783 Ry

     iteration # 12     ecut=    30.00 Ry     beta= 0.70
     Davidson diagonalization with overlap
     ethr =  4.90E-08,  avg # of iterations =  5.0

     negative rho (up, down):  8.964E-01 0.000E+00

     total cpu time spent up to now is       96.2 secs

     total energy              =   -1275.83258218 Ry
     estimated scf accuracy    <       0.00003917 Ry

     iteration # 13     ecut=    30.00 Ry     beta= 0.70
     Davidson diagonalization with overlap
     ethr =  3.32E-08,  avg # of iterations =  5.0

     negative rho (up, down):  8.964E-01 0.000E+00

     total cpu time spent up to now is       98.8 secs

     total energy              =   -1275.83258153 Ry
     estimated scf accuracy    <       0.00008621 Ry

     iteration # 14     ecut=    30.00 Ry     beta= 0.70
     Davidson diagonalization with overlap
     ethr =  3.32E-08,  avg # of iterations =  3.0

     negative rho (up, down):  8.964E-01 0.000E+00

     total cpu time spent up to now is      101.0 secs

     total energy              =   -1275.83258608 Ry
     estimated scf accuracy    <       0.00000774 Ry

     iteration # 15     ecut=    30.00 Ry     beta= 0.70
     Davidson diagonalization with overlap
     ethr =  6.56E-09,  avg # of iterations =  6.0

     negative rho (up, down):  8.964E-01 0.000E+00

     total cpu time spent up to now is      103.8 secs

     total energy              =   -1275.83258454 Ry
     estimated scf accuracy    <       0.00005009 Ry

     iteration # 16     ecut=    30.00 Ry     beta= 0.70
     Davidson diagonalization with overlap
     ethr =  6.56E-09,  avg # of iterations =  5.0

     negative rho (up, down):  8.964E-01 0.000E+00

     total cpu time spent up to now is      106.2 secs

     End of self-consistent calculation

          k = 0.0000 0.0000 0.0000 ( 26023 PWs)   bands (ev):

   -70.4826 -70.4465 -70.4413 -70.4175 -70.4075 -70.3870 -70.3754 -70.3731
   -70.3568 -37.1086 -37.0485 -37.0432 -37.0213 -37.0003 -36.9925 -36.9909
   -36.9860 -36.9780 -36.9677 -36.9493 -36.9423 -36.9321 -36.9312 -36.9262
   -36.9215 -36.9177 -36.9142 -36.9019 -36.7943 -36.7740 -36.4930 -36.3778
   -36.3625 -36.3366 -36.3339 -36.2068  -7.8397  -5.4755  -5.4639  -5.4567
    -5.4466  -4.8291  -4.7941  -3.4662  -3.3993  -3.3731  -3.2024  -3.1477
    -3.1448  -3.1338  -3.0325  -2.9736  -2.9158  -2.5872  -2.4157  -2.4073
    -2.4051  -2.2964  -2.2831  -2.2520  -2.2225  -2.1359  -1.7764  -1.7423
    -1.4722  -1.4669  -1.3031  -1.2066  -1.1873  -1.1814  -1.0263

     the Fermi energy is    -2.2588 ev

!    total energy              =   -1275.83258705 Ry
     estimated scf accuracy    <       0.00000072 Ry
     smearing contrib. (-TS)   =      -0.02906692 Ry
     internal energy E=F+TS    =   -1275.80352013 Ry

     convergence has been achieved in  16 iterations

     negative rho (up, down):  8.964E-01 0.000E+00

     Forces acting on atoms (cartesian axes, Ry/au):

     atom    1 type  1   force =    -0.00068376    0.00423517   -0.00256621
     atom    2 type  1   force =    -0.00662430   -0.00053496   -0.00718427
     atom    3 type  1   force =     0.00736124   -0.00059126   -0.00693560
     atom    4 type  1   force =     0.00175562   -0.00267644   -0.00080762
     atom    5 type  1   force =    -0.00026450    0.00151536    0.02530670
     atom    6 type  1   force =    -0.00132725   -0.00286008   -0.00075146
     atom    7 type  1   force =     0.00006241    0.00056543    0.02144298
     atom    8 type  1   force =    -0.00037866    0.00012087    0.02336446
     atom    9 type  1   force =    -0.00001881    0.00137669   -0.00225218
     atom   10 type  2   force =     0.00011802   -0.00115077   -0.04961681
     The non-local contrib.  to forces
     atom    1 type  1   force =    -0.00123317   -0.01825758    0.01692325
     atom    2 type  1   force =    -0.02165741    0.00623541    0.01107170
     atom    3 type  1   force =     0.02299949    0.00597663    0.01083360
     atom    4 type  1   force =     0.00177809   -0.00845433    0.00943535
     atom    5 type  1   force =     0.00069026    0.02117775    0.02720145
     atom    6 type  1   force =    -0.00229212   -0.01015509    0.00955042
     atom    7 type  1   force =     0.03760304    0.00659236    0.03125650
     atom    8 type  1   force =    -0.03857119    0.00569142    0.03027894
     atom    9 type  1   force =     0.00121663   -0.00933736    0.01400973
     atom   10 type  2   force =     0.00002893   -0.00020657   -0.00766870
     The ionic contribution  to forces
     atom    1 type  1   force =    -0.00149604    0.14485583   -0.42721974
     atom    2 type  1   force =     0.02164052   -0.02448874   -0.36139095
     atom    3 type  1   force =    -0.02025216   -0.02922147   -0.36045871
     atom    4 type  1   force =    -0.08947973   -0.01918711   -0.36519308
     atom    5 type  1   force =    -0.00489890   -0.19532692   -0.62791280
     atom    6 type  1   force =     0.09368100   -0.02293028   -0.36997323
     atom    7 type  1   force =    -0.19066644    0.07009533   -0.59645105
     atom    8 type  1   force =     0.18884978    0.07344285   -0.61041214
     atom    9 type  1   force =     0.00320483   -0.00173398   -0.31955271
     atom   10 type  2   force =    -0.00058285    0.00449449    4.03856442
     The local contribution  to forces
     atom    1 type  1   force =     0.00229123   -0.12562024    0.40723318
     atom    2 type  1   force =    -0.00294735    0.01637494    0.34402805
     atom    3 type  1   force =     0.00069646    0.02141591    0.34362096
     atom    4 type  1   force =     0.08642371    0.02926870    0.35518475
     atom    5 type  1   force =     0.00422557    0.18230823    0.62260544
     atom    6 type  1   force =    -0.08997015    0.03451709    0.35977618
     atom    7 type  1   force =     0.15688390   -0.07967785    0.58194010
     atom    8 type  1   force =    -0.15450909   -0.08255886    0.59886852
     atom    9 type  1   force =    -0.00432741    0.01002796    0.30338228
     atom   10 type  2   force =     0.00067482   -0.00545473   -4.08046766
     The core correction contribution to forces
     atom    1 type  1   force =    -0.00023995    0.00336805    0.00082022
     atom    2 type  1   force =    -0.00343606    0.00151872   -0.00048768
     atom    3 type  1   force =     0.00367637    0.00153118   -0.00052158
     atom    4 type  1   force =     0.00267237   -0.00342878    0.00040097
     atom    5 type  1   force =    -0.00022468   -0.00565973    0.00363028
     atom    6 type  1   force =    -0.00244697   -0.00347707    0.00047860
     atom    7 type  1   force =    -0.00343742    0.00249852    0.00506208
     atom    8 type  1   force =     0.00358027    0.00249414    0.00494140
     atom    9 type  1   force =    -0.00013244    0.00128325    0.00076701
     atom   10 type  2   force =     0.00000000    0.00000000    0.00000000
     The Hubbard contrib.    to forces
     atom    1 type  1   force =     0.00000000    0.00000000    0.00000000
     atom    2 type  1   force =     0.00000000    0.00000000    0.00000000
     atom    3 type  1   force =     0.00000000    0.00000000    0.00000000
     atom    4 type  1   force =     0.00000000    0.00000000    0.00000000
     atom    5 type  1   force =     0.00000000    0.00000000    0.00000000
     atom    6 type  1   force =     0.00000000    0.00000000    0.00000000
     atom    7 type  1   force =     0.00000000    0.00000000    0.00000000
     atom    8 type  1   force =     0.00000000    0.00000000    0.00000000
     atom    9 type  1   force =     0.00000000    0.00000000    0.00000000
     atom   10 type  2   force =     0.00000000    0.00000000    0.00000000
     The SCF correction term to forces
     atom    1 type  1   force =    -0.00000000   -0.00000000   -0.00000000
     atom    2 type  1   force =    -0.00000000   -0.00000000   -0.00000000
     atom    3 type  1   force =     0.00000000   -0.00000000   -0.00000000
     atom    4 type  1   force =     0.00000000   -0.00000000   -0.00000000
     atom    5 type  1   force =    -0.00000000   -0.00000000   -0.00000000
     atom    6 type  1   force =    -0.00000000   -0.00000000   -0.00000000
     atom    7 type  1   force =    -0.00000000    0.00000000   -0.00000000
     atom    8 type  1   force =     0.00000000    0.00000000   -0.00000000
     atom    9 type  1   force =     0.00000000    0.00000000   -0.00000000
     atom   10 type  2   force =    -0.00000035    0.00001286    0.00001384

     Total force =     0.049630     Total SCF correction =     0.000019

     Entering Dynamics:    iteration =     2
                           time      =   0.0097 pico-seconds


ATOMIC_POSITIONS (angstrom)
Ta            0.0000000000        0.0000000000       10.0000000000    0   0   0
Ta            3.3057996767        0.0000000000       10.0000000000    0   0   0
Ta            6.6116003452        0.0000000000       10.0000000000    0   0   0
Ta            1.6529003342        2.3375539952       10.0000000000    0   0   0
Ta            4.9587000109        2.3375539952       10.0000000000    0   0   0
Ta            8.2644996877        2.3375539952       10.0000000000    0   0   0
Ta            3.3057996767        4.6751069986       10.0000000000    0   0   0
Ta            6.6116003452        4.6751069986       10.0000000000    0   0   0
Ta            9.9174000219        4.6751069986       10.0000000000    0   0   0
H             5.0003326362        3.9966370918       11.1800783183


     kinetic energy (Ekin) =           1.19565691 Ry
     temperature           =      125852.86316771 K 
     Ekin + Etot (const)   =       -1274.63693014 Ry

     Writing config-only to output data dir outdir/pwscf.save/
     NEW-OLD atomic charge density approx. for the potential

     Check: negative core charge=   -0.000002

     negative rho (up, down):  8.968E-01 0.000E+00

     total cpu time spent up to now is      108.3 secs

     Self-consistent Calculation

     iteration #  1     ecut=    30.00 Ry     beta= 0.70
     Davidson diagonalization with overlap
     ethr =  1.00E-06,  avg # of iterations = 15.0

     negative rho (up, down):  8.977E-01 0.000E+00

     total cpu time spent up to now is      113.2 secs

     total energy              =   -1276.05350574 Ry
     estimated scf accuracy    <       0.07665641 Ry

     iteration #  2     ecut=    30.00 Ry     beta= 0.70
     Davidson diagonalization with overlap
     ethr =  6.50E-05,  avg # of iterations = 13.0

     negative rho (up, down):  8.977E-01 0.000E+00

     total cpu time spent up to now is      116.5 secs

     total energy              =   -1275.95543012 Ry
     estimated scf accuracy    <       1.16737655 Ry

     iteration #  3     ecut=    30.00 Ry     beta= 0.70
     Davidson diagonalization with overlap
     ethr =  6.50E-05,  avg # of iterations = 15.0

     negative rho (up, down):  8.976E-01 0.000E+00

     total cpu time spent up to now is      119.9 secs

     total energy              =   -1276.05439276 Ry
     estimated scf accuracy    <       0.27782919 Ry

     iteration #  4     ecut=    30.00 Ry     beta= 0.70
     Davidson diagonalization with overlap
     ethr =  6.50E-05,  avg # of iterations =  6.0

     negative rho (up, down):  8.976E-01 0.000E+00

     total cpu time spent up to now is      122.4 secs

     total energy              =   -1276.06409463 Ry
     estimated scf accuracy    <       0.15659308 Ry

     iteration #  5     ecut=    30.00 Ry     beta= 0.70
     Davidson diagonalization with overlap
     ethr =  6.50E-05,  avg # of iterations =  3.0

     negative rho (up, down):  8.976E-01 0.000E+00

     total cpu time spent up to now is      124.7 secs

     total energy              =   -1276.07802411 Ry
     estimated scf accuracy    <       0.00733675 Ry

     iteration #  6     ecut=    30.00 Ry     beta= 0.70
     Davidson diagonalization with overlap
     ethr =  6.22E-06,  avg # of iterations =  6.0

     negative rho (up, down):  8.977E-01 0.000E+00

     total cpu time spent up to now is      127.3 secs

     total energy              =   -1276.07870902 Ry
     estimated scf accuracy    <       0.00841354 Ry

     iteration #  7     ecut=    30.00 Ry     beta= 0.70
     Davidson diagonalization with overlap
     ethr =  6.22E-06,  avg # of iterations =  3.0

     negative rho (up, down):  8.977E-01 0.000E+00

     total cpu time spent up to now is      129.5 secs

     total energy              =   -1276.07943850 Ry
     estimated scf accuracy    <       0.00525827 Ry

     iteration #  8     ecut=    30.00 Ry     beta= 0.70
     Davidson diagonalization with overlap
     ethr =  4.46E-06,  avg # of iterations =  2.0

     negative rho (up, down):  8.978E-01 0.000E+00

     total cpu time spent up to now is      131.6 secs

     total energy              =   -1276.07962355 Ry
     estimated scf accuracy    <       0.00246712 Ry

     iteration #  9     ecut=    30.00 Ry     beta= 0.70
     Davidson diagonalization with overlap
     ethr =  2.09E-06,  avg # of iterations =  2.0

     negative rho (up, down):  8.978E-01 0.000E+00

     total cpu time spent up to now is      133.7 secs

     total energy              =   -1276.07981401 Ry
     estimated scf accuracy    <       0.00041846 Ry

     iteration # 10     ecut=    30.00 Ry     beta= 0.70
     Davidson diagonalization with overlap
     ethr =  3.55E-07,  avg # of iterations =  3.0

     negative rho (up, down):  8.978E-01 0.000E+00

     total cpu time spent up to now is      136.1 secs

     total energy              =   -1276.07985991 Ry
     estimated scf accuracy    <       0.00038528 Ry

     iteration # 11     ecut=    30.00 Ry     beta= 0.70
     Davidson diagonalization with overlap
     ethr =  3.27E-07,  avg # of iterations =  2.0

     negative rho (up, down):  8.978E-01 0.000E+00

     total cpu time spent up to now is      138.3 secs

     total energy              =   -1276.07988375 Ry
     estimated scf accuracy    <       0.00019136 Ry

     iteration # 12     ecut=    30.00 Ry     beta= 0.70
     Davidson diagonalization with overlap
     ethr =  1.62E-07,  avg # of iterations =  2.0

     negative rho (up, down):  8.978E-01 0.000E+00

     total cpu time spent up to now is      140.5 secs

     total energy              =   -1276.07989562 Ry
     estimated scf accuracy    <       0.00009652 Ry

     iteration # 13     ecut=    30.00 Ry     beta= 0.70
     Davidson diagonalization with overlap
     ethr =  8.18E-08,  avg # of iterations =  1.0

     negative rho (up, down):  8.978E-01 0.000E+00

     total cpu time spent up to now is      142.5 secs

     total energy              =   -1276.07989639 Ry
     estimated scf accuracy    <       0.00002002 Ry

     iteration # 14     ecut=    30.00 Ry     beta= 0.70
     Davidson diagonalization with overlap
     ethr =  1.70E-08,  avg # of iterations =  6.0

     negative rho (up, down):  8.978E-01 0.000E+00

     total cpu time spent up to now is      145.2 secs

     total energy              =   -1276.07988788 Ry
     estimated scf accuracy    <       0.00022375 Ry

     iteration # 15     ecut=    30.00 Ry     beta= 0.70
     Davidson diagonalization with overlap
     ethr =  1.70E-08,  avg # of iterations =  6.0

     negative rho (up, down):  8.978E-01 0.000E+00

     total cpu time spent up to now is      147.8 secs

     total energy              =   -1276.07990084 Ry
     estimated scf accuracy    <       0.00002113 Ry

     iteration # 16     ecut=    30.00 Ry     beta= 0.70
     Davidson diagonalization with overlap
     ethr =  1.70E-08,  avg # of iterations =  2.0

     negative rho (up, down):  8.978E-01 0.000E+00

     total cpu time spent up to now is      149.9 secs

     total energy              =   -1276.07990208 Ry
     estimated scf accuracy    <       0.00000293 Ry

     iteration # 17     ecut=    30.00 Ry     beta= 0.70
     Davidson diagonalization with overlap
     ethr =  2.49E-09,  avg # of iterations =  6.0

     negative rho (up, down):  8.978E-01 0.000E+00

     total cpu time spent up to now is      152.5 secs

     total energy              =   -1276.07990190 Ry
     estimated scf accuracy    <       0.00001280 Ry

     iteration # 18     ecut=    30.00 Ry     beta= 0.70
     Davidson diagonalization with overlap
     ethr =  2.49E-09,  avg # of iterations =  5.0

     negative rho (up, down):  8.978E-01 0.000E+00

     total cpu time spent up to now is      154.8 secs

     total energy              =   -1276.07990254 Ry
     estimated scf accuracy    <       0.00000103 Ry

     iteration # 19     ecut=    30.00 Ry     beta= 0.70
     Davidson diagonalization with overlap
     ethr =  8.74E-10,  avg # of iterations =  5.0

     negative rho (up, down):  8.978E-01 0.000E+00

     total cpu time spent up to now is      157.1 secs

     total energy              =   -1276.07990256 Ry
     estimated scf accuracy    <       0.00000209 Ry

     iteration # 20     ecut=    30.00 Ry     beta= 0.70
     Davidson diagonalization with overlap
     ethr =  8.74E-10,  avg # of iterations =  5.0

     negative rho (up, down):  8.978E-01 0.000E+00

     total cpu time spent up to now is      159.2 secs

     End of self-consistent calculation

          k = 0.0000 0.0000 0.0000 ( 26023 PWs)   bands (ev):

   -70.1904 -70.1649 -70.1489 -70.1312 -70.1192 -70.0970 -70.0736 -70.0701
   -70.0650 -36.8177 -36.7624 -36.7584 -36.7413 -36.7219 -36.7082 -36.7011
   -36.6999 -36.6898 -36.6849 -36.6723 -36.6538 -36.6504 -36.6474 -36.6402
   -36.6385 -36.6254 -36.6203 -36.6084 -36.5182 -36.4739 -36.1985 -36.0870
   -36.0723 -36.0555 -36.0395 -35.9200  -8.2063  -6.6536  -5.2246  -5.2086
    -5.1851  -4.8768  -4.5225  -4.1534  -3.1356  -3.1119  -2.9518  -2.9105
    -2.9023  -2.8777  -2.8102  -2.7202  -2.6020  -2.3771  -2.1865  -2.1783
    -2.1749  -2.0958  -2.0368  -2.0143  -1.9907  -1.6638  -1.5604  -1.4482
    -1.2479  -1.2026  -0.9972  -0.9872  -0.9514  -0.9283  -0.3395

     the Fermi energy is    -2.0235 ev

!    total energy              =   -1276.07990235 Ry
     estimated scf accuracy    <       0.00000048 Ry
     smearing contrib. (-TS)   =      -0.02532009 Ry
     internal energy E=F+TS    =   -1276.05458227 Ry

     convergence has been achieved in  20 iterations

     negative rho (up, down):  8.978E-01 0.000E+00

     Forces acting on atoms (cartesian axes, Ry/au):

     atom    1 type  1   force =    -0.00091510    0.02211539   -0.01299217
     atom    2 type  1   force =     0.00928308   -0.00820133    0.00335261
     atom    3 type  1   force =    -0.00809253   -0.00887190    0.00248167
     atom    4 type  1   force =    -0.00820837   -0.00652120    0.00349117
     atom    5 type  1   force =     0.00006996    0.00726939   -0.00300680
     atom    6 type  1   force =     0.00854577   -0.00662459    0.00371887
     atom    7 type  1   force =     0.01329815   -0.00467828    0.01157914
     atom    8 type  1   force =    -0.01222240   -0.00608916    0.00996573
     atom    9 type  1   force =     0.00032806    0.01350768   -0.00401780
     atom   10 type  2   force =    -0.00208661   -0.00190599   -0.01457241
     The non-local contrib.  to forces
     atom    1 type  1   force =    -0.00177376   -0.02088811   -0.01133764
     atom    2 type  1   force =    -0.01443864    0.00100143    0.02013077
     atom    3 type  1   force =     0.01563634    0.00102635    0.01879394
     atom    4 type  1   force =     0.00892739    0.00544634    0.00480756
     atom    5 type  1   force =    -0.00062929    0.00913696   -0.03864628
     atom    6 type  1   force =    -0.00904901    0.00402229    0.00491811
     atom    7 type  1   force =     0.05831894    0.00274300    0.00830789
     atom    8 type  1   force =    -0.05028360    0.00430751   -0.00240042
     atom    9 type  1   force =     0.00081715   -0.00537494    0.02629843
     atom   10 type  2   force =     0.00197630   -0.00948696   -0.04273381
     The ionic contribution  to forces
     atom    1 type  1   force =    -0.00562842    0.48134705   -0.32929598
     atom    2 type  1   force =     0.04862665   -0.05743285   -0.21836462
     atom    3 type  1   force =    -0.04418790   -0.07030119   -0.21742099
     atom    4 type  1   force =    -0.24115430   -0.07095614   -0.23058786
     atom    5 type  1   force =    -0.03355382   -1.33534525   -1.07708632
     atom    6 type  1   force =     0.25657019   -0.08292840   -0.23730015
     atom    7 type  1   force =    -1.11822170    0.43766273   -0.89627334
     atom    8 type  1   force =     1.17078935    0.48334342   -0.97456208
     atom    9 type  1   force =     0.00776771    0.00044360   -0.17702013
     atom   10 type  2   force =    -0.04100775    0.21416705    4.35791148
     The local contribution  to forces
     atom    1 type  1   force =     0.00626261   -0.44214267    0.32828765
     atom    2 type  1   force =    -0.02437451    0.04734549    0.19841399
     atom    3 type  1   force =     0.02010181    0.05986711    0.19798077
     atom    4 type  1   force =     0.22228501    0.06001849    0.22718234
     atom    5 type  1   force =     0.03486931    1.33654956    1.11593879
     atom    6 type  1   force =    -0.23760549    0.07336179    0.23393334
     atom    7 type  1   force =     1.07611623   -0.44386427    0.89793805
     atom    8 type  1   force =    -1.13617994   -0.49308312    0.98640175
     atom    9 type  1   force =    -0.00842812    0.02067679    0.14513599
     atom   10 type  2   force =     0.03695346   -0.20661228   -4.32995541
     The core correction contribution to forces
     atom    1 type  1   force =    -0.00008953    0.00327026   -0.00202260
     atom    2 type  1   force =     0.00017834    0.00024099    0.00184768
     atom    3 type  1   force =    -0.00003343    0.00040568    0.00180087
     atom    4 type  1   force =     0.00175885   -0.00041263    0.00079556
     atom    5 type  1   force =    -0.00028172   -0.00293233   -0.00447279
     atom    6 type  1   force =    -0.00172407   -0.00045425    0.00084507
     atom    7 type  1   force =    -0.00278294   -0.00119412    0.00034105
     atom    8 type  1   force =     0.00367941   -0.00104631   -0.00075207
     atom    9 type  1   force =    -0.00018042   -0.00194765    0.00032711
     atom   10 type  2   force =     0.00000000    0.00000000    0.00000000
     The Hubbard contrib.    to forces
     atom    1 type  1   force =     0.00000000    0.00000000    0.00000000
     atom    2 type  1   force =     0.00000000    0.00000000    0.00000000
     atom    3 type  1   force =     0.00000000    0.00000000    0.00000000
     atom    4 type  1   force =     0.00000000    0.00000000    0.00000000
     atom    5 type  1   force =     0.00000000    0.00000000    0.00000000
     atom    6 type  1   force =     0.00000000    0.00000000    0.00000000
     atom    7 type  1   force =     0.00000000    0.00000000    0.00000000
     atom    8 type  1   force =     0.00000000    0.00000000    0.00000000
     atom    9 type  1   force =     0.00000000    0.00000000    0.00000000
     atom   10 type  2   force =     0.00000000    0.00000000    0.00000000
     The SCF correction term to forces
     atom    1 type  1   force =     0.00000000    0.00000000    0.00000000
     atom    2 type  1   force =    -0.00000000    0.00000000    0.00000000
     atom    3 type  1   force =     0.00000000    0.00000000    0.00000000
     atom    4 type  1   force =    -0.00000000   -0.00000000    0.00000000
     atom    5 type  1   force =    -0.00000000   -0.00000000    0.00000000
     atom    6 type  1   force =     0.00000000   -0.00000000    0.00000000
     atom    7 type  1   force =    -0.00000000   -0.00000000    0.00000000
     atom    8 type  1   force =    -0.00000000    0.00000000    0.00000000
     atom    9 type  1   force =     0.00000000   -0.00000000    0.00000000
     atom   10 type  2   force =    -0.00000755    0.00002625    0.00006318

     Total force =     0.014844     Total SCF correction =     0.000069

     Entering Dynamics:    iteration =     3
                           time      =   0.0145 pico-seconds


ATOMIC_POSITIONS (angstrom)
Ta            0.0000000000        0.0000000000       10.0000000000    0   0   0
Ta            3.3057996767        0.0000000000       10.0000000000    0   0   0
Ta            6.6116003452        0.0000000000       10.0000000000    0   0   0
Ta            1.6529003342        2.3375539952       10.0000000000    0   0   0
Ta            4.9587000109        2.3375539952       10.0000000000    0   0   0
Ta            8.2644996877        2.3375539952       10.0000000000    0   0   0
Ta            3.3057996767        4.6751069986       10.0000000000    0   0   0
Ta            6.6116003452        4.6751069986       10.0000000000    0   0   0
Ta            9.9174000219        4.6751069986       10.0000000000    0   0   0
H             4.9946538309        3.9878023821        9.1565912378


     kinetic energy (Ekin) =           1.31431534 Ry
     temperature           =      138342.65325295 K 
     Ekin + Etot (const)   =       -1274.76558701 Ry

     The maximum number of steps has been reached.

     End of molecular dynamics calculation

     diffusion coefficients :
     atom     1   D =       0.00000000 cm^2/s
     atom     2   D =       0.00000000 cm^2/s
     atom     3   D =       0.00000000 cm^2/s
     atom     4   D =       0.00000000 cm^2/s
     atom     5   D =       0.00000000 cm^2/s
     atom     6   D =       0.00000000 cm^2/s
     atom     7   D =       0.00000000 cm^2/s
     atom     8   D =       0.00000000 cm^2/s
     atom     9   D =       0.00000000 cm^2/s
     atom    10   D =       0.03921184 cm^2/s

     < D > =       0.03921184 cm^2/s

     Writing all to output data dir outdir/pwscf.save/

     init_run     :      2.03s CPU      2.10s WALL (       1 calls)
     electrons    :    146.46s CPU    152.70s WALL (       3 calls)
     update_pot   :      0.78s CPU      0.79s WALL (       2 calls)
     forces       :      4.00s CPU      4.11s WALL (       3 calls)

     Called by init_run:
     wfcinit      :      0.91s CPU      0.94s WALL (       1 calls)
     potinit      :      0.19s CPU      0.19s WALL (       1 calls)
     hinit0       :      0.58s CPU      0.59s WALL (       1 calls)

     Called by electrons:
     c_bands      :     97.79s CPU     99.49s WALL (      66 calls)
     sum_band     :     27.17s CPU     29.74s WALL (      66 calls)
     v_of_rho     :      2.12s CPU      2.20s WALL (      68 calls)
     newd         :     19.70s CPU     21.64s WALL (      68 calls)
     mix_rho      :      0.50s CPU      0.52s WALL (      66 calls)

     Called by c_bands:
     init_us_2    :      0.41s CPU      0.43s WALL (     133 calls)
     init_us_2:cp :      0.41s CPU      0.43s WALL (     133 calls)
     cegterg      :     95.63s CPU     97.31s WALL (      66 calls)

     Called by *egterg:
     cdiaghg      :      3.44s CPU      3.44s WALL (     310 calls)
     h_psi        :     49.43s CPU     50.93s WALL (     314 calls)
     s_psi        :     14.69s CPU     14.75s WALL (     314 calls)
     g_psi        :      0.07s CPU      0.07s WALL (     247 calls)

     Called by h_psi:
     h_psi:calbec :     15.88s CPU     15.97s WALL (     314 calls)
     vloc_psi     :     18.83s CPU     20.19s WALL (     314 calls)
     add_vuspsi   :     14.57s CPU     14.59s WALL (     314 calls)

     General routines
     calbec       :     23.65s CPU     23.76s WALL (     392 calls)
     fft          :      2.25s CPU      2.33s WALL (     784 calls)
     ffts         :      0.10s CPU      0.10s WALL (      66 calls)
     fftw         :     20.79s CPU     22.27s WALL (   26822 calls)

     Parallel routines

     PWSCF        :   2m34.05s CPU   2m40.71s WALL


   This run was terminated on:  14:31:12  15May2023            

=------------------------------------------------------------------------------=
   JOB DONE.
=------------------------------------------------------------------------------=
