
     Program PWSCF v.7.2 starts on 15May2023 at  4:32:59 

     This program is part of the open-source Quantum ESPRESSO suite
     for quantum simulation of materials; please cite
         "P. Giannozzi et al., J. Phys.:Condens. Matter 21 395502 (2009);
         "P. Giannozzi et al., J. Phys.:Condens. Matter 29 465901 (2017);
         "P. Giannozzi et al., J. Chem. Phys. 152 154105 (2020);
          URL http://www.quantum-espresso.org", 
     in publications or presentations arising from this work. More details at
     http://www.quantum-espresso.org/quote

     Parallel version (MPI), running on    12 processors

     MPI processes distributed on     1 nodes
     74340 MiB available memory on the printing compute node when the environment starts

     Reading input from Ta_3x3x1_MD_velocity_0.in
Warning: card &CELL ignored
Warning: card / ignored

     Current dimensions of program PWSCF are:
     Max number of different atomic species (ntypx) = 10
     Max number of k-points (npk) =  40000
     Max angular momentum in pseudopotentials (lmaxx) =  4

     File outdir/pwscf.md deleted, as requested

     R & G space division:  proc/nbgrp/npool/nimage =      12
     Subspace diagonalization in iterative solution of the eigenvalue problem:
     a serial algorithm will be used


     Parallelization info
     --------------------
     sticks:   dense  smooth     PW     G-vecs:    dense   smooth      PW
     Min         197     197     49                17359    17359    2165
     Max         198     198     50                17368    17368    2170
     Sum        2375    2375    599               208377   208377   26023

     Using Slab Decomposition



     bravais-lattice index     =            0
     lattice parameter (alat)  =      18.7412  a.u.
     unit-cell volume          =    9386.5802 (a.u.)^3
     number of atoms/cell      =           10
     number of atomic types    =            2
     number of electrons       =       118.00
     number of Kohn-Sham states=           71
     kinetic-energy cutoff     =      30.0000  Ry
     charge density cutoff     =     120.0000  Ry
     scf convergence threshold =      1.0E-06
     mixing beta               =       0.7000
     number of iterations used =            8  plain     mixing
     energy convergence thresh.=      0.0E+00
     force convergence thresh. =      0.0E+00
     Exchange-correlation=  SLA  PW   PBX  PBC
                           (   1   4   3   4   0   0   0)
     nstep                     =            3


     celldm(1)=  18.741170  celldm(2)=   0.000000  celldm(3)=   0.000000
     celldm(4)=   0.000000  celldm(5)=   0.000000  celldm(6)=   0.000000

     crystal axes: (cart. coord. in units of alat)
               a(1) = (   1.000000   0.000000   0.000000 )  
               a(2) = (   0.500000   0.707107   0.000000 )  
               a(3) = (   0.000000   0.000000   2.016658 )  

     reciprocal axes: (cart. coord. in units 2 pi/alat)
               b(1) = (  1.000000 -0.707107  0.000000 )  
               b(2) = (  0.000000  1.414213  0.000000 )  
               b(3) = (  0.000000  0.000000  0.495870 )  


     PseudoPot. # 1 for Ta read from file:
     q-e/pseudo/ta_pbe_v1.uspp.F.UPF
     MD5 check sum: f8bbe9446314a3b8ea5d9f3e3836c939
     Pseudo is Ultrasoft + core correction, Zval = 13.0
     Generated by new atomic code, or converted to UPF format
     Using radial grid of  921 points,  7 beta functions with: 
                l(1) =   0
                l(2) =   0
                l(3) =   1
                l(4) =   1
                l(5) =   2
                l(6) =   2
                l(7) =   3
     Q(r) pseudized with  6 coefficients,  rinner =    1.300   1.300   1.300
                                                       1.300   1.300   1.300
                                                       1.300

     PseudoPot. # 2 for H  read from file:
     q-e/pseudo/h_pbe_v1.4.uspp.F.UPF
     MD5 check sum: 761ae9a214b05c3daf00ab9f6b793d6f
     Pseudo is Ultrasoft, Zval =  1.0
     Generated by new atomic code, or converted to UPF format
     Using radial grid of  615 points,  2 beta functions with: 
                l(1) =   0
                l(2) =   0
     Q(r) pseudized with  8 coefficients,  rinner =    0.700

     atomic species   valence    mass     pseudopotential
        Ta            13.00   180.94788     Ta( 1.00)
        H              1.00     2.01400     H ( 1.00)

     No symmetry found



   Cartesian axes

     site n.     atom                  positions (alat units)
         1           Ta  tau(   1) = (   0.0000000   0.0000000   1.0083288  )
         2           Ta  tau(   2) = (   0.3333333   0.0000000   1.0083288  )
         3           Ta  tau(   3) = (   0.6666667   0.0000000   1.0083288  )
         4           Ta  tau(   4) = (   0.1666667   0.2357023   1.0083288  )
         5           Ta  tau(   5) = (   0.5000000   0.2357023   1.0083288  )
         6           Ta  tau(   6) = (   0.8333333   0.2357023   1.0083288  )
         7           Ta  tau(   7) = (   0.3333333   0.4714045   1.0083288  )
         8           Ta  tau(   8) = (   0.6666667   0.4714045   1.0083288  )
         9           Ta  tau(   9) = (   1.0000000   0.4714045   1.0083288  )
        10           H   tau(  10) = (   0.5041644   0.4033315   1.5124932  )

     number of k points=     1  Gaussian smearing, width (Ry)=  0.0100
                       cart. coord. in units 2pi/alat
        k(    1) = (   0.0000000   0.0000000   0.0000000), wk =   2.0000000

     Dense  grid:   208377 G-vectors     FFT dimensions: (  72,  60, 135)

     Estimated max dynamical RAM per process >     124.58 MB

     Estimated total dynamical RAM >       1.46 GB

     Check: negative core charge=   -0.000002

     Initial potential from superposition of free atoms

     starting charge     117.9900, renormalised to     118.0000

     negative rho (up, down):  8.970E-01 0.000E+00
     Starting wfcs are  118 randomized atomic wfcs

     total cpu time spent up to now is        2.4 secs

     Self-consistent Calculation

     iteration #  1     ecut=    30.00 Ry     beta= 0.70
     Davidson diagonalization with overlap
     ethr =  1.00E-02,  avg # of iterations =  2.0

     Threshold (ethr) on eigenvalues was too large:
     Diagonalizing with lowered threshold

     Davidson diagonalization with overlap
     ethr =  9.46E-04,  avg # of iterations =  1.0

     negative rho (up, down):  8.933E-01 0.000E+00

     total cpu time spent up to now is        6.2 secs

     total energy              =   -1275.29319203 Ry
     estimated scf accuracy    <       1.15640215 Ry

     iteration #  2     ecut=    30.00 Ry     beta= 0.70
     Davidson diagonalization with overlap
     ethr =  9.80E-04,  avg # of iterations =  5.0

     negative rho (up, down):  8.937E-01 0.000E+00

     total cpu time spent up to now is        8.5 secs

     total energy              =   -1275.60888192 Ry
     estimated scf accuracy    <       2.73531545 Ry

     iteration #  3     ecut=    30.00 Ry     beta= 0.70
     Davidson diagonalization with overlap
     ethr =  9.80E-04,  avg # of iterations =  2.0

     negative rho (up, down):  8.937E-01 0.000E+00

     total cpu time spent up to now is       10.9 secs

     total energy              =   -1275.56267513 Ry
     estimated scf accuracy    <       1.79660619 Ry

     iteration #  4     ecut=    30.00 Ry     beta= 0.70
     Davidson diagonalization with overlap
     ethr =  9.80E-04,  avg # of iterations =  2.0

     negative rho (up, down):  8.935E-01 0.000E+00

     total cpu time spent up to now is       13.0 secs

     total energy              =   -1275.53616084 Ry
     estimated scf accuracy    <       0.95368010 Ry

     iteration #  5     ecut=    30.00 Ry     beta= 0.70
     Davidson diagonalization with overlap
     ethr =  8.08E-04,  avg # of iterations =  2.0

     negative rho (up, down):  8.931E-01 0.000E+00

     total cpu time spent up to now is       15.1 secs

     total energy              =   -1275.21539133 Ry
     estimated scf accuracy    <       1.38232086 Ry

     iteration #  6     ecut=    30.00 Ry     beta= 0.70
     Davidson diagonalization with overlap
     ethr =  8.08E-04,  avg # of iterations =  6.0

     negative rho (up, down):  8.935E-01 0.000E+00

     total cpu time spent up to now is       17.6 secs

     total energy              =   -1276.09745811 Ry
     estimated scf accuracy    <       1.98580713 Ry

     iteration #  7     ecut=    30.00 Ry     beta= 0.70
     Davidson diagonalization with overlap
     ethr =  8.08E-04,  avg # of iterations =  2.0

     negative rho (up, down):  8.938E-01 0.000E+00

     total cpu time spent up to now is       19.8 secs

     total energy              =   -1275.94269338 Ry
     estimated scf accuracy    <       1.33141502 Ry

     iteration #  8     ecut=    30.00 Ry     beta= 0.70
     Davidson diagonalization with overlap
     ethr =  8.08E-04,  avg # of iterations =  2.0

     negative rho (up, down):  8.943E-01 0.000E+00

     total cpu time spent up to now is       21.9 secs

     total energy              =   -1275.72919315 Ry
     estimated scf accuracy    <       0.85206599 Ry

     iteration #  9     ecut=    30.00 Ry     beta= 0.70
     Davidson diagonalization with overlap
     ethr =  7.22E-04,  avg # of iterations =  2.0

     negative rho (up, down):  8.948E-01 0.000E+00

     total cpu time spent up to now is       24.0 secs

     total energy              =   -1275.67572725 Ry
     estimated scf accuracy    <       0.55872023 Ry

     iteration # 10     ecut=    30.00 Ry     beta= 0.70
     Davidson diagonalization with overlap
     ethr =  4.73E-04,  avg # of iterations =  2.0

     negative rho (up, down):  8.946E-01 0.000E+00

     total cpu time spent up to now is       26.1 secs

     total energy              =   -1275.84071000 Ry
     estimated scf accuracy    <       0.60327371 Ry

     iteration # 11     ecut=    30.00 Ry     beta= 0.70
     Davidson diagonalization with overlap
     ethr =  4.73E-04,  avg # of iterations =  1.0

     negative rho (up, down):  8.946E-01 0.000E+00

     total cpu time spent up to now is       28.1 secs

     total energy              =   -1275.81872655 Ry
     estimated scf accuracy    <       0.60526620 Ry

     iteration # 12     ecut=    30.00 Ry     beta= 0.70
     Davidson diagonalization with overlap
     ethr =  4.73E-04,  avg # of iterations =  1.0

     negative rho (up, down):  8.946E-01 0.000E+00

     total cpu time spent up to now is       30.0 secs

     total energy              =   -1275.80912059 Ry
     estimated scf accuracy    <       0.56214679 Ry

     iteration # 13     ecut=    30.00 Ry     beta= 0.70
     Davidson diagonalization with overlap
     ethr =  4.73E-04,  avg # of iterations =  1.0

     negative rho (up, down):  8.947E-01 0.000E+00

     total cpu time spent up to now is       31.9 secs

     total energy              =   -1275.78629583 Ry
     estimated scf accuracy    <       0.54929351 Ry

     iteration # 14     ecut=    30.00 Ry     beta= 0.70
     Davidson diagonalization with overlap
     ethr =  4.66E-04,  avg # of iterations =  1.0

     negative rho (up, down):  8.946E-01 0.000E+00

     total cpu time spent up to now is       33.8 secs

     total energy              =   -1275.76719013 Ry
     estimated scf accuracy    <       0.48884092 Ry

     iteration # 15     ecut=    30.00 Ry     beta= 0.70
     Davidson diagonalization with overlap
     ethr =  4.14E-04,  avg # of iterations =  1.0

     negative rho (up, down):  8.946E-01 0.000E+00

     total cpu time spent up to now is       35.8 secs

     total energy              =   -1275.75881562 Ry
     estimated scf accuracy    <       0.36209977 Ry

     iteration # 16     ecut=    30.00 Ry     beta= 0.70
     Davidson diagonalization with overlap
     ethr =  3.07E-04,  avg # of iterations =  1.0

     negative rho (up, down):  8.945E-01 0.000E+00

     total cpu time spent up to now is       37.7 secs

     total energy              =   -1275.75836343 Ry
     estimated scf accuracy    <       0.01719840 Ry

     iteration # 17     ecut=    30.00 Ry     beta= 0.70
     Davidson diagonalization with overlap
     ethr =  1.46E-05,  avg # of iterations =  2.0

     negative rho (up, down):  8.946E-01 0.000E+00

     total cpu time spent up to now is       39.8 secs

     total energy              =   -1275.74840332 Ry
     estimated scf accuracy    <       0.73844100 Ry

     iteration # 18     ecut=    30.00 Ry     beta= 0.70
     Davidson diagonalization with overlap
     ethr =  1.46E-05,  avg # of iterations =  2.0

     negative rho (up, down):  8.945E-01 0.000E+00

     total cpu time spent up to now is       41.9 secs

     total energy              =   -1275.75975962 Ry
     estimated scf accuracy    <       0.08838506 Ry

     iteration # 19     ecut=    30.00 Ry     beta= 0.70
     Davidson diagonalization with overlap
     ethr =  1.46E-05,  avg # of iterations =  1.0

     negative rho (up, down):  8.945E-01 0.000E+00

     total cpu time spent up to now is       43.8 secs

     total energy              =   -1275.76091420 Ry
     estimated scf accuracy    <       0.03341507 Ry

     iteration # 20     ecut=    30.00 Ry     beta= 0.70
     Davidson diagonalization with overlap
     ethr =  1.46E-05,  avg # of iterations =  1.0

     negative rho (up, down):  8.945E-01 0.000E+00

     total cpu time spent up to now is       45.8 secs

     total energy              =   -1275.76161568 Ry
     estimated scf accuracy    <       0.01435036 Ry

     iteration # 21     ecut=    30.00 Ry     beta= 0.70
     Davidson diagonalization with overlap
     ethr =  1.22E-05,  avg # of iterations =  1.0

     negative rho (up, down):  8.945E-01 0.000E+00

     total cpu time spent up to now is       47.8 secs

     total energy              =   -1275.76161430 Ry
     estimated scf accuracy    <       0.00199162 Ry

     iteration # 22     ecut=    30.00 Ry     beta= 0.70
     Davidson diagonalization with overlap
     ethr =  1.69E-06,  avg # of iterations =  1.0

     negative rho (up, down):  8.945E-01 0.000E+00

     total cpu time spent up to now is       49.8 secs

     total energy              =   -1275.76166939 Ry
     estimated scf accuracy    <       0.00103380 Ry

     iteration # 23     ecut=    30.00 Ry     beta= 0.70
     Davidson diagonalization with overlap
     ethr =  8.76E-07,  avg # of iterations =  1.0

     negative rho (up, down):  8.945E-01 0.000E+00

     total cpu time spent up to now is       51.9 secs

     total energy              =   -1275.76166866 Ry
     estimated scf accuracy    <       0.00059132 Ry

     iteration # 24     ecut=    30.00 Ry     beta= 0.70
     Davidson diagonalization with overlap
     ethr =  5.01E-07,  avg # of iterations =  1.0

     negative rho (up, down):  8.945E-01 0.000E+00

     total cpu time spent up to now is       53.8 secs

     total energy              =   -1275.76166651 Ry
     estimated scf accuracy    <       0.00027218 Ry

     iteration # 25     ecut=    30.00 Ry     beta= 0.70
     Davidson diagonalization with overlap
     ethr =  2.31E-07,  avg # of iterations =  1.0

     negative rho (up, down):  8.945E-01 0.000E+00

     total cpu time spent up to now is       55.8 secs

     total energy              =   -1275.76166658 Ry
     estimated scf accuracy    <       0.00005661 Ry

     iteration # 26     ecut=    30.00 Ry     beta= 0.70
     Davidson diagonalization with overlap
     ethr =  4.80E-08,  avg # of iterations =  1.0

     negative rho (up, down):  8.945E-01 0.000E+00

     total cpu time spent up to now is       57.8 secs

     total energy              =   -1275.76166704 Ry
     estimated scf accuracy    <       0.00001237 Ry

     iteration # 27     ecut=    30.00 Ry     beta= 0.70
     Davidson diagonalization with overlap
     ethr =  1.05E-08,  avg # of iterations =  2.0

     negative rho (up, down):  8.945E-01 0.000E+00

     total cpu time spent up to now is       59.9 secs

     total energy              =   -1275.76166721 Ry
     estimated scf accuracy    <       0.00000479 Ry

     iteration # 28     ecut=    30.00 Ry     beta= 0.70
     Davidson diagonalization with overlap
     ethr =  4.06E-09,  avg # of iterations =  2.0

     negative rho (up, down):  8.945E-01 0.000E+00

     total cpu time spent up to now is       62.0 secs

     total energy              =   -1275.76166750 Ry
     estimated scf accuracy    <       0.00000185 Ry

     iteration # 29     ecut=    30.00 Ry     beta= 0.70
     Davidson diagonalization with overlap
     ethr =  1.57E-09,  avg # of iterations =  2.0

     negative rho (up, down):  8.945E-01 0.000E+00

     total cpu time spent up to now is       64.0 secs

     End of self-consistent calculation

          k = 0.0000 0.0000 0.0000 ( 26023 PWs)   bands (ev):

   -70.5771 -70.5376 -70.5371 -70.5351 -70.5346 -70.5066 -70.5050 -70.4999
   -70.4992 -37.2082 -37.1385 -37.1382 -37.1351 -37.1330 -37.1007 -37.1001
   -37.0996 -37.0993 -37.0911 -37.0880 -37.0760 -37.0758 -37.0471 -37.0470
   -37.0397 -37.0391 -37.0335 -37.0332 -36.9005 -36.8996 -36.6047 -36.4654
   -36.4651 -36.4628 -36.4628 -36.3221  -7.9576  -5.5773  -5.5767  -5.5756
    -5.5754  -4.9253  -4.9238  -3.5157  -3.5154  -3.3144  -3.2803  -3.2792
    -3.2787  -3.2787  -3.1059  -3.1057  -2.9280  -2.5541  -2.5415  -2.5415
    -2.5406  -2.4169  -2.4138  -2.4088  -2.3540  -2.3530  -1.9062  -1.9049
    -1.6773  -1.5856  -1.5853  -1.3276  -1.3276  -1.3274  -1.3266

     the Fermi energy is    -2.4010 ev

!    total energy              =   -1275.76166733 Ry
     estimated scf accuracy    <       0.00000042 Ry
     smearing contrib. (-TS)   =      -0.03421086 Ry
     internal energy E=F+TS    =   -1275.72745646 Ry

     convergence has been achieved in  29 iterations

     negative rho (up, down):  8.945E-01 0.000E+00

     Forces acting on atoms (cartesian axes, Ry/au):

     atom    1 type  1   force =    -0.00006086    0.00017379    0.00010849
     atom    2 type  1   force =    -0.00059239   -0.00010927   -0.00040030
     atom    3 type  1   force =     0.00066220   -0.00012022   -0.00040640
     atom    4 type  1   force =     0.00011196   -0.00018612   -0.00004121
     atom    5 type  1   force =     0.00000941   -0.00001951    0.00161254
     atom    6 type  1   force =    -0.00011346   -0.00023497   -0.00004014
     atom    7 type  1   force =    -0.00005402    0.00021467    0.00142078
     atom    8 type  1   force =     0.00000993    0.00017665    0.00151491
     atom    9 type  1   force =     0.00002987    0.00012076   -0.00004046
     atom   10 type  2   force =    -0.00000264   -0.00001578   -0.00372821
     The non-local contrib.  to forces
     atom    1 type  1   force =    -0.00008697   -0.00109497    0.00513067
     atom    2 type  1   force =    -0.00135991    0.00030710    0.00420975
     atom    3 type  1   force =     0.00145035    0.00028093    0.00418106
     atom    4 type  1   force =    -0.00001011   -0.00059250    0.00387665
     atom    5 type  1   force =     0.00007821    0.00122548    0.00634933
     atom    6 type  1   force =    -0.00005912   -0.00072585    0.00391535
     atom    7 type  1   force =     0.00232458    0.00057188    0.00591205
     atom    8 type  1   force =    -0.00243880    0.00047936    0.00597186
     atom    9 type  1   force =     0.00011190   -0.00045569    0.00321444
     atom   10 type  2   force =    -0.00000087   -0.00001337   -0.00101328
     The ionic contribution  to forces
     atom    1 type  1   force =    -0.00032546    0.03601887   -0.32785342
     atom    2 type  1   force =     0.00693534   -0.00797019   -0.30956715
     atom    3 type  1   force =    -0.00661488   -0.00928554   -0.30919148
     atom    4 type  1   force =    -0.02537559   -0.00294585   -0.30858491
     atom    5 type  1   force =    -0.00097561   -0.03795733   -0.37135297
     atom    6 type  1   force =     0.02632860   -0.00390116   -0.31013577
     atom    7 type  1   force =    -0.04017484    0.01343775   -0.36447290
     atom    8 type  1   force =     0.03924175    0.01394934   -0.36716157
     atom    9 type  1   force =     0.00096890   -0.00142386   -0.29151684
     atom   10 type  2   force =    -0.00000822    0.00007798    2.95983701
     The local contribution  to forces
     atom    1 type  1   force =     0.00015811   -0.03567027    0.32310212
     atom    2 type  1   force =    -0.00607033    0.00719592    0.30552141
     atom    3 type  1   force =     0.00591244    0.00843967    0.30514916
     atom    4 type  1   force =     0.02526294    0.00356709    0.30514002
     atom    5 type  1   force =     0.00101236    0.03733536    0.36655536
     atom    6 type  1   force =    -0.02625322    0.00426205    0.30662736
     atom    7 type  1   force =     0.03840622   -0.01327585    0.35986608
     atom    8 type  1   force =    -0.03764955   -0.01393169    0.36258854
     atom    9 type  1   force =    -0.00079431    0.00220140    0.28881045
     atom   10 type  2   force =     0.00000709   -0.00007610   -2.96252540
     The core correction contribution to forces
     atom    1 type  1   force =    -0.00001103    0.00027610    0.00031397
     atom    2 type  1   force =    -0.00020158    0.00006502    0.00017018
     atom    3 type  1   force =     0.00021463    0.00006235    0.00017019
     atom    4 type  1   force =     0.00009772   -0.00025329    0.00023508
     atom    5 type  1   force =    -0.00001734   -0.00045160    0.00056602
     atom    6 type  1   force =    -0.00008206   -0.00025275    0.00024625
     atom    7 type  1   force =    -0.00029497    0.00020007    0.00061701
     atom    8 type  1   force =     0.00030125    0.00020421    0.00062526
     atom    9 type  1   force =    -0.00000785    0.00014816    0.00023636
     atom   10 type  2   force =     0.00000000    0.00000000    0.00000000
     The Hubbard contrib.    to forces
     atom    1 type  1   force =     0.00000000    0.00000000    0.00000000
     atom    2 type  1   force =     0.00000000    0.00000000    0.00000000
     atom    3 type  1   force =     0.00000000    0.00000000    0.00000000
     atom    4 type  1   force =     0.00000000    0.00000000    0.00000000
     atom    5 type  1   force =     0.00000000    0.00000000    0.00000000
     atom    6 type  1   force =     0.00000000    0.00000000    0.00000000
     atom    7 type  1   force =     0.00000000    0.00000000    0.00000000
     atom    8 type  1   force =     0.00000000    0.00000000    0.00000000
     atom    9 type  1   force =     0.00000000    0.00000000    0.00000000
     atom   10 type  2   force =     0.00000000    0.00000000    0.00000000
     The SCF correction term to forces
     atom    1 type  1   force =     0.00000000    0.00000000   -0.00000000
     atom    2 type  1   force =     0.00000000    0.00000000   -0.00000000
     atom    3 type  1   force =    -0.00000000    0.00000000   -0.00000000
     atom    4 type  1   force =     0.00000000    0.00000000   -0.00000000
     atom    5 type  1   force =    -0.00000000   -0.00000000   -0.00000000
     atom    6 type  1   force =    -0.00000000    0.00000000   -0.00000000
     atom    7 type  1   force =    -0.00000000   -0.00000000   -0.00000000
     atom    8 type  1   force =     0.00000000   -0.00000000   -0.00000000
     atom    9 type  1   force =    -0.00000000   -0.00000000   -0.00000000
     atom   10 type  2   force =     0.00000082   -0.00000265    0.00002603

     Total force =     0.003728     Total SCF correction =     0.000026

     Molecular Dynamics Calculation
     mass Ta               =   180.95
     mass H                =     2.01
     Time step             =   100.00 a.u.,  4.8378 femto-seconds

     Entering Dynamics:    iteration =     1
                           time      =   0.0048 pico-seconds


ATOMIC_POSITIONS (angstrom)
Ta            0.0000000000        0.0000000000       10.0000000000    0   0   0
Ta            3.3057996767        0.0000000000       10.0000000000    0   0   0
Ta            6.6116003452        0.0000000000       10.0000000000    0   0   0
Ta            1.6529003342        2.3375539952       10.0000000000    0   0   0
Ta            4.9587000109        2.3375539952       10.0000000000    0   0   0
Ta            8.2644996877        2.3375539952       10.0000000000    0   0   0
Ta            3.3057996767        4.6751069986       10.0000000000    0   0   0
Ta            6.6116003452        4.6751069986       10.0000000000    0   0   0
Ta            9.9174000219        4.6751069986       10.0000000000    0   0   0
H             4.9999961998        3.9999772496       14.9946261963


     kinetic energy (Ekin) =           0.00000000 Ry
     temperature           =           0.00000000 K 
     Ekin + Etot (const)   =       -1275.76166733 Ry

     File outdir/pwscf.msd.dat deleted, as requested

     Writing config-only to output data dir outdir/pwscf.save/
     NEW-OLD atomic charge density approx. for the potential

     Check: negative core charge=   -0.000002

     negative rho (up, down):  8.945E-01 0.000E+00

     total cpu time spent up to now is       66.1 secs

     Self-consistent Calculation

     iteration #  1     ecut=    30.00 Ry     beta= 0.70
     Davidson diagonalization with overlap
     ethr =  1.00E-06,  avg # of iterations =  2.0

     negative rho (up, down):  8.945E-01 0.000E+00

     total cpu time spent up to now is       68.6 secs

     total energy              =   -1275.76104281 Ry
     estimated scf accuracy    <       0.00085271 Ry

     iteration #  2     ecut=    30.00 Ry     beta= 0.70
     Davidson diagonalization with overlap
     ethr =  7.23E-07,  avg # of iterations =  3.0

     negative rho (up, down):  8.945E-01 0.000E+00

     total cpu time spent up to now is       70.9 secs

     total energy              =   -1275.75326318 Ry
     estimated scf accuracy    <       0.81128308 Ry

     iteration #  3     ecut=    30.00 Ry     beta= 0.70
     Davidson diagonalization with overlap
     ethr =  7.23E-07,  avg # of iterations =  3.0

     negative rho (up, down):  8.945E-01 0.000E+00

     total cpu time spent up to now is       73.2 secs

     total energy              =   -1275.76163385 Ry
     estimated scf accuracy    <       0.00133849 Ry

     iteration #  4     ecut=    30.00 Ry     beta= 0.70
     Davidson diagonalization with overlap
     ethr =  7.23E-07,  avg # of iterations =  2.0

     negative rho (up, down):  8.945E-01 0.000E+00

     total cpu time spent up to now is       75.3 secs

     total energy              =   -1275.76169696 Ry
     estimated scf accuracy    <       0.00053341 Ry

     iteration #  5     ecut=    30.00 Ry     beta= 0.70
     Davidson diagonalization with overlap
     ethr =  4.52E-07,  avg # of iterations =  1.0

     negative rho (up, down):  8.945E-01 0.000E+00

     total cpu time spent up to now is       77.3 secs

     total energy              =   -1275.76170168 Ry
     estimated scf accuracy    <       0.00028516 Ry

     iteration #  6     ecut=    30.00 Ry     beta= 0.70
     Davidson diagonalization with overlap
     ethr =  2.42E-07,  avg # of iterations =  1.0

     negative rho (up, down):  8.945E-01 0.000E+00

     total cpu time spent up to now is       79.3 secs

     total energy              =   -1275.76170229 Ry
     estimated scf accuracy    <       0.00015374 Ry

     iteration #  7     ecut=    30.00 Ry     beta= 0.70
     Davidson diagonalization with overlap
     ethr =  1.30E-07,  avg # of iterations =  1.0

     negative rho (up, down):  8.945E-01 0.000E+00

     total cpu time spent up to now is       81.3 secs

     total energy              =   -1275.76170368 Ry
     estimated scf accuracy    <       0.00002179 Ry

     iteration #  8     ecut=    30.00 Ry     beta= 0.70
     Davidson diagonalization with overlap
     ethr =  1.85E-08,  avg # of iterations =  5.0

     negative rho (up, down):  8.945E-01 0.000E+00

     total cpu time spent up to now is       83.5 secs

     total energy              =   -1275.76170513 Ry
     estimated scf accuracy    <       0.00000283 Ry

     iteration #  9     ecut=    30.00 Ry     beta= 0.70
     Davidson diagonalization with overlap
     ethr =  2.40E-09,  avg # of iterations =  5.0

     negative rho (up, down):  8.945E-01 0.000E+00

     total cpu time spent up to now is       85.9 secs

     total energy              =   -1275.76170551 Ry
     estimated scf accuracy    <       0.00001275 Ry

     iteration # 10     ecut=    30.00 Ry     beta= 0.70
     Davidson diagonalization with overlap
     ethr =  2.40E-09,  avg # of iterations =  1.0

     negative rho (up, down):  8.945E-01 0.000E+00

     total cpu time spent up to now is       87.9 secs

     total energy              =   -1275.76170498 Ry
     estimated scf accuracy    <       0.00002931 Ry

     iteration # 11     ecut=    30.00 Ry     beta= 0.70
     Davidson diagonalization with overlap
     ethr =  2.40E-09,  avg # of iterations =  2.0

     negative rho (up, down):  8.945E-01 0.000E+00

     total cpu time spent up to now is       89.9 secs

     total energy              =   -1275.76170590 Ry
     estimated scf accuracy    <       0.00002204 Ry

     iteration # 12     ecut=    30.00 Ry     beta= 0.70
     Davidson diagonalization with overlap
     ethr =  2.40E-09,  avg # of iterations =  1.0

     negative rho (up, down):  8.945E-01 0.000E+00

     total cpu time spent up to now is       91.8 secs

     total energy              =   -1275.76170647 Ry
     estimated scf accuracy    <       0.00001128 Ry

     iteration # 13     ecut=    30.00 Ry     beta= 0.70
     Davidson diagonalization with overlap
     ethr =  2.40E-09,  avg # of iterations =  1.0

     negative rho (up, down):  8.945E-01 0.000E+00

     total cpu time spent up to now is       93.9 secs

     total energy              =   -1275.76170620 Ry
     estimated scf accuracy    <       0.00001501 Ry

     iteration # 14     ecut=    30.00 Ry     beta= 0.70
     Davidson diagonalization with overlap
     ethr =  2.40E-09,  avg # of iterations =  1.0

     negative rho (up, down):  8.945E-01 0.000E+00

     total cpu time spent up to now is       95.9 secs

     total energy              =   -1275.76170638 Ry
     estimated scf accuracy    <       0.00001302 Ry

     iteration # 15     ecut=    30.00 Ry     beta= 0.70
     Davidson diagonalization with overlap
     ethr =  2.40E-09,  avg # of iterations =  2.0

     negative rho (up, down):  8.945E-01 0.000E+00

     total cpu time spent up to now is       98.0 secs

     total energy              =   -1275.76170502 Ry
     estimated scf accuracy    <       0.00001684 Ry

     iteration # 16     ecut=    30.00 Ry     beta= 0.70
     Davidson diagonalization with overlap
     ethr =  2.40E-09,  avg # of iterations =  2.0

     negative rho (up, down):  8.945E-01 0.000E+00

     total cpu time spent up to now is      100.1 secs

     total energy              =   -1275.76170464 Ry
     estimated scf accuracy    <       0.00000505 Ry

     iteration # 17     ecut=    30.00 Ry     beta= 0.70
     Davidson diagonalization with overlap
     ethr =  2.40E-09,  avg # of iterations =  6.0

     negative rho (up, down):  8.945E-01 0.000E+00

     total cpu time spent up to now is      102.7 secs

     total energy              =   -1275.76170465 Ry
     estimated scf accuracy    <       0.00001055 Ry

     iteration # 18     ecut=    30.00 Ry     beta= 0.70
     Davidson diagonalization with overlap
     ethr =  2.40E-09,  avg # of iterations =  5.0

     negative rho (up, down):  8.945E-01 0.000E+00

     total cpu time spent up to now is      105.1 secs

     total energy              =   -1275.76170513 Ry
     estimated scf accuracy    <       0.00000209 Ry

     iteration # 19     ecut=    30.00 Ry     beta= 0.70
     Davidson diagonalization with overlap
     ethr =  1.77E-09,  avg # of iterations =  2.0

     negative rho (up, down):  8.945E-01 0.000E+00

     total cpu time spent up to now is      107.2 secs

     End of self-consistent calculation

          k = 0.0000 0.0000 0.0000 ( 26023 PWs)   bands (ev):

   -70.5768 -70.5372 -70.5367 -70.5350 -70.5344 -70.5061 -70.5050 -70.4996
   -70.4990 -37.2079 -37.1381 -37.1378 -37.1350 -37.1329 -37.1004 -37.0998
   -37.0994 -37.0991 -37.0907 -37.0880 -37.0758 -37.0756 -37.0470 -37.0466
   -37.0394 -37.0388 -37.0333 -37.0330 -36.9001 -36.8995 -36.6044 -36.4651
   -36.4648 -36.4626 -36.4625 -36.3219  -7.9574  -5.5771  -5.5765  -5.5754
    -5.5752  -4.9250  -4.9236  -3.5155  -3.5152  -3.3142  -3.2800  -3.2790
    -3.2785  -3.2784  -3.1058  -3.1054  -2.9278  -2.5541  -2.5413  -2.5413
    -2.5403  -2.4167  -2.4136  -2.4086  -2.3538  -2.3527  -1.9060  -1.9047
    -1.6769  -1.5854  -1.5851  -1.3275  -1.3274  -1.3270  -1.3265

     the Fermi energy is    -2.4008 ev

!    total energy              =   -1275.76170470 Ry
     estimated scf accuracy    <       0.00000058 Ry
     smearing contrib. (-TS)   =      -0.03420690 Ry
     internal energy E=F+TS    =   -1275.72749781 Ry

     convergence has been achieved in  19 iterations

     negative rho (up, down):  8.945E-01 0.000E+00

     Forces acting on atoms (cartesian axes, Ry/au):

     atom    1 type  1   force =    -0.00009274    0.00018381    0.00009500
     atom    2 type  1   force =    -0.00063337   -0.00012278   -0.00040333
     atom    3 type  1   force =     0.00070777   -0.00017876   -0.00039858
     atom    4 type  1   force =     0.00006401   -0.00025803   -0.00006136
     atom    5 type  1   force =    -0.00002153   -0.00005130    0.00163487
     atom    6 type  1   force =    -0.00005451   -0.00034494   -0.00004803
     atom    7 type  1   force =    -0.00010238    0.00034162    0.00142194
     atom    8 type  1   force =     0.00007558    0.00028792    0.00152565
     atom    9 type  1   force =     0.00005821    0.00015519   -0.00003764
     atom   10 type  2   force =    -0.00000102   -0.00001272   -0.00372849
     The non-local contrib.  to forces
     atom    1 type  1   force =    -0.00011194   -0.00105365    0.00508708
     atom    2 type  1   force =    -0.00140914    0.00031024    0.00414569
     atom    3 type  1   force =     0.00150410    0.00024982    0.00412418
     atom    4 type  1   force =    -0.00006378   -0.00064437    0.00379701
     atom    5 type  1   force =     0.00005220    0.00124057    0.00632926
     atom    6 type  1   force =     0.00001171   -0.00080438    0.00384300
     atom    7 type  1   force =     0.00230204    0.00062102    0.00588431
     atom    8 type  1   force =    -0.00240715    0.00052628    0.00594793
     atom    9 type  1   force =     0.00013048   -0.00048878    0.00315286
     atom   10 type  2   force =    -0.00000093   -0.00001507   -0.00101900
     The ionic contribution  to forces
     atom    1 type  1   force =    -0.00032690    0.03616945   -0.32819255
     atom    2 type  1   force =     0.00696015   -0.00799865   -0.30983243
     atom    3 type  1   force =    -0.00663830   -0.00931910   -0.30945560
     atom    4 type  1   force =    -0.02547487   -0.00296483   -0.30885324
     atom    5 type  1   force =    -0.00097994   -0.03813248   -0.37188762
     atom    6 type  1   force =     0.02643199   -0.00392397   -0.31040973
     atom    7 type  1   force =    -0.04035156    0.01350151   -0.36497846
     atom    8 type  1   force =     0.03941529    0.01401556   -0.36767919
     atom    9 type  1   force =     0.00097247   -0.00142642   -0.29172778
     atom   10 type  2   force =    -0.00000832    0.00007893    2.96301660
     The local contribution  to forces
     atom    1 type  1   force =     0.00007522   -0.03548999    0.32295140
     atom    2 type  1   force =    -0.00627104    0.00698067    0.30519723
     atom    3 type  1   force =     0.00616911    0.00818776    0.30486474
     atom    4 type  1   force =     0.02497932    0.00315842    0.30482435
     atom    5 type  1   force =     0.00101320    0.03717406    0.36671794
     atom    6 type  1   force =    -0.02598400    0.00375862    0.30635798
     atom    7 type  1   force =     0.03827033   -0.01271845    0.35997882
     atom    8 type  1   force =    -0.03750501   -0.01345276    0.36272556
     atom    9 type  1   force =    -0.00076918    0.00251185    0.28839314
     atom   10 type  2   force =     0.00000725   -0.00007522   -2.96571129
     The core correction contribution to forces
     atom    1 type  1   force =    -0.00001325    0.00027511    0.00031917
     atom    2 type  1   force =    -0.00020568    0.00007329    0.00017430
     atom    3 type  1   force =     0.00022093    0.00006428    0.00017585
     atom    4 type  1   force =     0.00010218   -0.00025576    0.00023806
     atom    5 type  1   force =    -0.00002047   -0.00044946    0.00057429
     atom    6 type  1   force =    -0.00008213   -0.00025719    0.00025045
     atom    7 type  1   force =    -0.00029864    0.00019443    0.00062344
     atom    8 type  1   force =     0.00030344    0.00020338    0.00063136
     atom    9 type  1   force =    -0.00000552    0.00014157    0.00024141
     atom   10 type  2   force =     0.00000000    0.00000000    0.00000000
     The Hubbard contrib.    to forces
     atom    1 type  1   force =     0.00000000    0.00000000    0.00000000
     atom    2 type  1   force =     0.00000000    0.00000000    0.00000000
     atom    3 type  1   force =     0.00000000    0.00000000    0.00000000
     atom    4 type  1   force =     0.00000000    0.00000000    0.00000000
     atom    5 type  1   force =     0.00000000    0.00000000    0.00000000
     atom    6 type  1   force =     0.00000000    0.00000000    0.00000000
     atom    7 type  1   force =     0.00000000    0.00000000    0.00000000
     atom    8 type  1   force =     0.00000000    0.00000000    0.00000000
     atom    9 type  1   force =     0.00000000    0.00000000    0.00000000
     atom   10 type  2   force =     0.00000000    0.00000000    0.00000000
     The SCF correction term to forces
     atom    1 type  1   force =     0.00000000    0.00000000   -0.00000000
     atom    2 type  1   force =     0.00000000    0.00000000   -0.00000000
     atom    3 type  1   force =    -0.00000000    0.00000000   -0.00000000
     atom    4 type  1   force =     0.00000000    0.00000000   -0.00000000
     atom    5 type  1   force =    -0.00000000    0.00000000   -0.00000000
     atom    6 type  1   force =    -0.00000000    0.00000000   -0.00000000
     atom    7 type  1   force =    -0.00000000   -0.00000000   -0.00000000
     atom    8 type  1   force =     0.00000000   -0.00000000   -0.00000000
     atom    9 type  1   force =    -0.00000000   -0.00000000   -0.00000000
     atom   10 type  2   force =     0.00000096   -0.00000465   -0.00000068

     Total force =     0.003729     Total SCF correction =     0.000005

     Entering Dynamics:    iteration =     2
                           time      =   0.0097 pico-seconds


ATOMIC_POSITIONS (angstrom)
Ta            0.0000000000        0.0000000000       10.0000000000    0   0   0
Ta            3.3057996767        0.0000000000       10.0000000000    0   0   0
Ta            6.6116003452        0.0000000000       10.0000000000    0   0   0
Ta            1.6529003342        2.3375539952       10.0000000000    0   0   0
Ta            4.9587000109        2.3375539952       10.0000000000    0   0   0
Ta            8.2644996877        2.3375539952       10.0000000000    0   0   0
Ta            3.3057996767        4.6751069986       10.0000000000    0   0   0
Ta            6.6116003452        4.6751069986       10.0000000000    0   0   0
Ta            9.9174000219        4.6751069986       10.0000000000    0   0   0
H             4.9999894588        3.9999178422       14.9785039660


     kinetic energy (Ekin) =           0.00003786 Ry
     temperature           =           3.98544639 K 
     Ekin + Etot (const)   =       -1275.76166684 Ry

     Writing config-only to output data dir outdir/pwscf.save/
     NEW-OLD atomic charge density approx. for the potential

     Check: negative core charge=   -0.000002

     negative rho (up, down):  8.945E-01 0.000E+00

     total cpu time spent up to now is      109.3 secs

     Self-consistent Calculation

     iteration #  1     ecut=    30.00 Ry     beta= 0.70
     Davidson diagonalization with overlap
     ethr =  1.00E-06,  avg # of iterations =  3.0

     Threshold (ethr) on eigenvalues was too large:
     Diagonalizing with lowered threshold

     Davidson diagonalization with overlap
     ethr =  6.06E-08,  avg # of iterations =  1.0

     negative rho (up, down):  8.945E-01 0.000E+00

     total cpu time spent up to now is      113.6 secs

     total energy              =   -1275.76175990 Ry
     estimated scf accuracy    <       0.00007855 Ry

     iteration #  2     ecut=    30.00 Ry     beta= 0.70
     Davidson diagonalization with overlap
     ethr =  6.66E-08,  avg # of iterations =  8.0

     negative rho (up, down):  8.945E-01 0.000E+00

     total cpu time spent up to now is      117.2 secs

     total energy              =   -1275.76140134 Ry
     estimated scf accuracy    <       0.00785402 Ry

     iteration #  3     ecut=    30.00 Ry     beta= 0.70
     Davidson diagonalization with overlap
     ethr =  6.66E-08,  avg # of iterations =  8.0

     negative rho (up, down):  8.945E-01 0.000E+00

     total cpu time spent up to now is      120.4 secs

     total energy              =   -1275.76155596 Ry
     estimated scf accuracy    <       0.02722306 Ry

     iteration #  4     ecut=    30.00 Ry     beta= 0.70
     Davidson diagonalization with overlap
     ethr =  6.66E-08,  avg # of iterations =  2.0

     negative rho (up, down):  8.945E-01 0.000E+00

     total cpu time spent up to now is      122.6 secs

     total energy              =   -1275.76181513 Ry
     estimated scf accuracy    <       0.00004644 Ry

     iteration #  5     ecut=    30.00 Ry     beta= 0.70
     Davidson diagonalization with overlap
     ethr =  3.94E-08,  avg # of iterations =  2.0

     negative rho (up, down):  8.945E-01 0.000E+00

     total cpu time spent up to now is      124.7 secs

     End of self-consistent calculation

          k = 0.0000 0.0000 0.0000 ( 26023 PWs)   bands (ev):

   -70.5770 -70.5377 -70.5374 -70.5350 -70.5340 -70.5069 -70.5043 -70.5000
   -70.4987 -37.2080 -37.1387 -37.1383 -37.1340 -37.1332 -37.1006 -37.1001
   -37.0997 -37.0988 -37.0913 -37.0874 -37.0759 -37.0755 -37.0477 -37.0462
   -37.0398 -37.0387 -37.0336 -37.0328 -36.9007 -36.8992 -36.6046 -36.4656
   -36.4648 -36.4629 -36.4623 -36.3220  -7.9574  -5.5772  -5.5765  -5.5754
    -5.5753  -4.9252  -4.9235  -3.5155  -3.5153  -3.3143  -3.2801  -3.2788
    -3.2784  -3.2784  -3.1060  -3.1050  -2.9279  -2.5546  -2.5413  -2.5411
    -2.5402  -2.4166  -2.4137  -2.4083  -2.3537  -2.3527  -1.9061  -1.9043
    -1.6760  -1.5855  -1.5851  -1.3276  -1.3270  -1.3269  -1.3266

     the Fermi energy is    -2.4007 ev

!    total energy              =   -1275.76181864 Ry
     estimated scf accuracy    <       0.00000052 Ry
     smearing contrib. (-TS)   =      -0.03419300 Ry
     internal energy E=F+TS    =   -1275.72762564 Ry

     convergence has been achieved in   5 iterations

     negative rho (up, down):  8.945E-01 0.000E+00

     Forces acting on atoms (cartesian axes, Ry/au):

     atom    1 type  1   force =     0.00001130    0.00019343    0.00010127
     atom    2 type  1   force =    -0.00071930   -0.00001635   -0.00039214
     atom    3 type  1   force =     0.00073148   -0.00008061   -0.00040989
     atom    4 type  1   force =     0.00011073   -0.00034145   -0.00005170
     atom    5 type  1   force =    -0.00012352   -0.00019295    0.00162098
     atom    6 type  1   force =    -0.00005172   -0.00031238   -0.00004158
     atom    7 type  1   force =    -0.00009550    0.00033189    0.00143789
     atom    8 type  1   force =     0.00010630    0.00032468    0.00155044
     atom    9 type  1   force =     0.00003633    0.00010527   -0.00000814
     atom   10 type  2   force =    -0.00000609   -0.00001153   -0.00380712
     The non-local contrib.  to forces
     atom    1 type  1   force =    -0.00002556   -0.00112881    0.00515987
     atom    2 type  1   force =    -0.00153964    0.00037563    0.00421740
     atom    3 type  1   force =     0.00162047    0.00030287    0.00418282
     atom    4 type  1   force =    -0.00006932   -0.00075301    0.00384799
     atom    5 type  1   force =    -0.00002733    0.00118782    0.00632870
     atom    6 type  1   force =     0.00005284   -0.00088597    0.00390717
     atom    7 type  1   force =     0.00241829    0.00072474    0.00591699
     atom    8 type  1   force =    -0.00247591    0.00062842    0.00598423
     atom    9 type  1   force =     0.00014736   -0.00051014    0.00323637
     atom   10 type  2   force =    -0.00000170   -0.00001842   -0.00103384
     The ionic contribution  to forces
     atom    1 type  1   force =    -0.00033129    0.03662503   -0.32920955
     atom    2 type  1   force =     0.00703523   -0.00808442   -0.31062590
     atom    3 type  1   force =    -0.00670913   -0.00942043   -0.31024552
     atom    4 type  1   force =    -0.02577480   -0.00302229   -0.30965600
     atom    5 type  1   force =    -0.00099316   -0.03866309   -0.37349601
     atom    6 type  1   force =     0.02674443   -0.00399314   -0.31122966
     atom    7 type  1   force =    -0.04088672    0.01369447   -0.36649900
     atom    8 type  1   force =     0.03994071    0.01421607   -0.36923656
     atom    9 type  1   force =     0.00098337   -0.00143405   -0.29235752
     atom   10 type  2   force =    -0.00000864    0.00008185    2.97255573
     The local contribution  to forces
     atom    1 type  1   force =     0.00029987   -0.03552369    0.32382886
     atom    2 type  1   force =    -0.00659797    0.00763606    0.30597843
     atom    3 type  1   force =     0.00627909    0.00882990    0.30561538
     atom    4 type  1   force =     0.02555064    0.00290820    0.30562005
     atom    5 type  1   force =     0.00079323    0.03751131    0.36793734
     atom    6 type  1   force =    -0.02635736    0.00419403    0.30715927
     atom    7 type  1   force =     0.03885365   -0.01352953    0.36116067
     atom    8 type  1   force =    -0.03787828   -0.01399439    0.36396564
     atom    9 type  1   force =    -0.00105491    0.00200249    0.28920686
     atom   10 type  2   force =     0.00000903   -0.00008042   -2.97537511
     The core correction contribution to forces
     atom    1 type  1   force =     0.00000040    0.00027426    0.00032570
     atom    2 type  1   force =    -0.00021246    0.00007884    0.00017199
     atom    3 type  1   force =     0.00022741    0.00006214    0.00017115
     atom    4 type  1   force =     0.00010096   -0.00025401    0.00023884
     atom    5 type  1   force =    -0.00002206   -0.00047359    0.00058290
     atom    6 type  1   force =    -0.00008548   -0.00027290    0.00025454
     atom    7 type  1   force =    -0.00030634    0.00021789    0.00063532
     atom    8 type  1   force =     0.00031905    0.00022054    0.00064503
     atom    9 type  1   force =     0.00000126    0.00015533    0.00024105
     atom   10 type  2   force =     0.00000000    0.00000000    0.00000000
     The Hubbard contrib.    to forces
     atom    1 type  1   force =     0.00000000    0.00000000    0.00000000
     atom    2 type  1   force =     0.00000000    0.00000000    0.00000000
     atom    3 type  1   force =     0.00000000    0.00000000    0.00000000
     atom    4 type  1   force =     0.00000000    0.00000000    0.00000000
     atom    5 type  1   force =     0.00000000    0.00000000    0.00000000
     atom    6 type  1   force =     0.00000000    0.00000000    0.00000000
     atom    7 type  1   force =     0.00000000    0.00000000    0.00000000
     atom    8 type  1   force =     0.00000000    0.00000000    0.00000000
     atom    9 type  1   force =     0.00000000    0.00000000    0.00000000
     atom   10 type  2   force =     0.00000000    0.00000000    0.00000000
     The SCF correction term to forces
     atom    1 type  1   force =     0.00000000   -0.00000000   -0.00000000
     atom    2 type  1   force =     0.00000000   -0.00000000   -0.00000000
     atom    3 type  1   force =    -0.00000000    0.00000000   -0.00000000
     atom    4 type  1   force =     0.00000000    0.00000000   -0.00000000
     atom    5 type  1   force =     0.00000000    0.00000000    0.00000000
     atom    6 type  1   force =    -0.00000000    0.00000000   -0.00000000
     atom    7 type  1   force =    -0.00000000   -0.00000000    0.00000000
     atom    8 type  1   force =     0.00000000   -0.00000000    0.00000000
     atom    9 type  1   force =    -0.00000000   -0.00000000   -0.00000000
     atom   10 type  2   force =     0.00000011   -0.00000299    0.00003889

     Total force =     0.003807     Total SCF correction =     0.000039

     Entering Dynamics:    iteration =     3
                           time      =   0.0145 pico-seconds


ATOMIC_POSITIONS (angstrom)
Ta            0.0000000000        0.0000000000       10.0000000000    0   0   0
Ta            3.3057996767        0.0000000000       10.0000000000    0   0   0
Ta            6.6116003452        0.0000000000       10.0000000000    0   0   0
Ta            1.6529003342        2.3375539952       10.0000000000    0   0   0
Ta            4.9587000109        2.3375539952       10.0000000000    0   0   0
Ta            8.2644996877        2.3375539952       10.0000000000    0   0   0
Ta            3.3057996767        4.6751069986       10.0000000000    0   0   0
Ta            6.6116003452        4.6751069986       10.0000000000    0   0   0
Ta            9.9174000219        4.6751069986       10.0000000000    0   0   0
H             4.9999651639        3.9998251986       14.9514066394


     kinetic energy (Ekin) =           0.00015306 Ry
     temperature           =          16.11090963 K 
     Ekin + Etot (const)   =       -1275.76166557 Ry

     The maximum number of steps has been reached.

     End of molecular dynamics calculation

     diffusion coefficients :
     atom     1   D =       0.00000000 cm^2/s
     atom     2   D =       0.00000000 cm^2/s
     atom     3   D =       0.00000000 cm^2/s
     atom     4   D =       0.00000000 cm^2/s
     atom     5   D =       0.00000000 cm^2/s
     atom     6   D =       0.00000000 cm^2/s
     atom     7   D =       0.00000000 cm^2/s
     atom     8   D =       0.00000000 cm^2/s
     atom     9   D =       0.00000000 cm^2/s
     atom    10   D =       0.00000271 cm^2/s

     < D > =       0.00000271 cm^2/s

     Writing all to output data dir outdir/pwscf.save/

     init_run     :      2.03s CPU      2.11s WALL (       1 calls)
     electrons    :    113.09s CPU    118.23s WALL (       3 calls)
     update_pot   :      0.76s CPU      0.76s WALL (       2 calls)
     forces       :      3.97s CPU      4.05s WALL (       3 calls)

     Called by init_run:
     wfcinit      :      0.93s CPU      0.96s WALL (       1 calls)
     potinit      :      0.18s CPU      0.19s WALL (       1 calls)
     hinit0       :      0.59s CPU      0.60s WALL (       1 calls)

     Called by electrons:
     c_bands      :     72.85s CPU     74.34s WALL (      55 calls)
     sum_band     :     22.64s CPU     24.79s WALL (      55 calls)
     v_of_rho     :      1.75s CPU      1.82s WALL (      56 calls)
     newd         :     16.29s CPU     17.79s WALL (      56 calls)
     mix_rho      :      0.40s CPU      0.41s WALL (      55 calls)

     Called by c_bands:
     init_us_2    :      0.33s CPU      0.36s WALL (     111 calls)
     init_us_2:cp :      0.33s CPU      0.36s WALL (     111 calls)
     cegterg      :     71.05s CPU     72.52s WALL (      55 calls)

     Called by *egterg:
     cdiaghg      :      1.88s CPU      1.89s WALL (     173 calls)
     h_psi        :     37.50s CPU     38.79s WALL (     178 calls)
     s_psi        :     11.05s CPU     11.11s WALL (     178 calls)
     g_psi        :      0.05s CPU      0.05s WALL (     122 calls)

     Called by h_psi:
     h_psi:calbec :     12.44s CPU     12.49s WALL (     178 calls)
     vloc_psi     :     13.85s CPU     15.03s WALL (     178 calls)
     add_vuspsi   :     11.09s CPU     11.11s WALL (     178 calls)

     General routines
     calbec       :     19.16s CPU     19.25s WALL (     245 calls)
     fft          :      1.73s CPU      1.79s WALL (     653 calls)
     ffts         :      0.08s CPU      0.08s WALL (      55 calls)
     fftw         :     15.51s CPU     16.80s WALL (   21193 calls)

     Parallel routines

     PWSCF        :   2m 0.69s CPU   2m 6.18s WALL


   This run was terminated on:   4:35: 5  15May2023            

=------------------------------------------------------------------------------=
   JOB DONE.
=------------------------------------------------------------------------------=
