
     Program PWSCF v.7.2 starts on 15May2023 at  4:29:53 

     This program is part of the open-source Quantum ESPRESSO suite
     for quantum simulation of materials; please cite
         "P. Giannozzi et al., J. Phys.:Condens. Matter 21 395502 (2009);
         "P. Giannozzi et al., J. Phys.:Condens. Matter 29 465901 (2017);
         "P. Giannozzi et al., J. Chem. Phys. 152 154105 (2020);
          URL http://www.quantum-espresso.org", 
     in publications or presentations arising from this work. More details at
     http://www.quantum-espresso.org/quote

     Parallel version (MPI), running on    12 processors

     MPI processes distributed on     1 nodes
     74323 MiB available memory on the printing compute node when the environment starts

     Reading input from Ta_3x3x1_MD_velocity_0.in
Warning: card &CELL ignored
Warning: card / ignored

     Current dimensions of program PWSCF are:
     Max number of different atomic species (ntypx) = 10
     Max number of k-points (npk) =  40000
     Max angular momentum in pseudopotentials (lmaxx) =  4

     File outdir/pwscf.md deleted, as requested

     R & G space division:  proc/nbgrp/npool/nimage =      12
     Subspace diagonalization in iterative solution of the eigenvalue problem:
     a serial algorithm will be used


     Parallelization info
     --------------------
     sticks:   dense  smooth     PW     G-vecs:    dense   smooth      PW
     Min         197     197     49                17359    17359    2165
     Max         198     198     50                17368    17368    2170
     Sum        2375    2375    599               208377   208377   26023

     Using Slab Decomposition



     bravais-lattice index     =            0
     lattice parameter (alat)  =      18.7412  a.u.
     unit-cell volume          =    9386.5802 (a.u.)^3
     number of atoms/cell      =           10
     number of atomic types    =            2
     number of electrons       =       118.00
     number of Kohn-Sham states=           71
     kinetic-energy cutoff     =      30.0000  Ry
     charge density cutoff     =     120.0000  Ry
     scf convergence threshold =      1.0E-06
     mixing beta               =       0.7000
     number of iterations used =            8  plain     mixing
     energy convergence thresh.=      0.0E+00
     force convergence thresh. =      0.0E+00
     Exchange-correlation=  SLA  PW   PBX  PBC
                           (   1   4   3   4   0   0   0)
     nstep                     =            3


     celldm(1)=  18.741170  celldm(2)=   0.000000  celldm(3)=   0.000000
     celldm(4)=   0.000000  celldm(5)=   0.000000  celldm(6)=   0.000000

     crystal axes: (cart. coord. in units of alat)
               a(1) = (   1.000000   0.000000   0.000000 )  
               a(2) = (   0.500000   0.707107   0.000000 )  
               a(3) = (   0.000000   0.000000   2.016658 )  

     reciprocal axes: (cart. coord. in units 2 pi/alat)
               b(1) = (  1.000000 -0.707107  0.000000 )  
               b(2) = (  0.000000  1.414213  0.000000 )  
               b(3) = (  0.000000  0.000000  0.495870 )  


     PseudoPot. # 1 for Ta read from file:
     q-e/pseudo/ta_pbe_v1.uspp.F.UPF
     MD5 check sum: f8bbe9446314a3b8ea5d9f3e3836c939
     Pseudo is Ultrasoft + core correction, Zval = 13.0
     Generated by new atomic code, or converted to UPF format
     Using radial grid of  921 points,  7 beta functions with: 
                l(1) =   0
                l(2) =   0
                l(3) =   1
                l(4) =   1
                l(5) =   2
                l(6) =   2
                l(7) =   3
     Q(r) pseudized with  6 coefficients,  rinner =    1.300   1.300   1.300
                                                       1.300   1.300   1.300
                                                       1.300

     PseudoPot. # 2 for H  read from file:
     q-e/pseudo/h_pbe_v1.4.uspp.F.UPF
     MD5 check sum: 761ae9a214b05c3daf00ab9f6b793d6f
     Pseudo is Ultrasoft, Zval =  1.0
     Generated by new atomic code, or converted to UPF format
     Using radial grid of  615 points,  2 beta functions with: 
                l(1) =   0
                l(2) =   0
     Q(r) pseudized with  8 coefficients,  rinner =    0.700

     atomic species   valence    mass     pseudopotential
        Ta            13.00   180.94788     Ta( 1.00)
        H              1.00     2.01400     H ( 1.00)

     No symmetry found



   Cartesian axes

     site n.     atom                  positions (alat units)
         1           Ta  tau(   1) = (   0.0000000   0.0000000   1.0083288  )
         2           Ta  tau(   2) = (   0.3333333   0.0000000   1.0083288  )
         3           Ta  tau(   3) = (   0.6666667   0.0000000   1.0083288  )
         4           Ta  tau(   4) = (   0.1666667   0.2357023   1.0083288  )
         5           Ta  tau(   5) = (   0.5000000   0.2357023   1.0083288  )
         6           Ta  tau(   6) = (   0.8333333   0.2357023   1.0083288  )
         7           Ta  tau(   7) = (   0.3333333   0.4714045   1.0083288  )
         8           Ta  tau(   8) = (   0.6666667   0.4714045   1.0083288  )
         9           Ta  tau(   9) = (   1.0000000   0.4714045   1.0083288  )
        10           H   tau(  10) = (   0.5041644   0.4033315   1.5124932  )

     number of k points=     1  Gaussian smearing, width (Ry)=  0.0100
                       cart. coord. in units 2pi/alat
        k(    1) = (   0.0000000   0.0000000   0.0000000), wk =   2.0000000

     Dense  grid:   208377 G-vectors     FFT dimensions: (  72,  60, 135)

     Estimated max dynamical RAM per process >     124.58 MB

     Estimated total dynamical RAM >       1.46 GB

     Check: negative core charge=   -0.000002

     Initial potential from superposition of free atoms

     starting charge     117.9900, renormalised to     118.0000

     negative rho (up, down):  8.970E-01 0.000E+00
     Starting wfcs are  118 randomized atomic wfcs

     total cpu time spent up to now is        2.4 secs

     Self-consistent Calculation

     iteration #  1     ecut=    30.00 Ry     beta= 0.70
     Davidson diagonalization with overlap
     ethr =  1.00E-02,  avg # of iterations =  2.0

     Threshold (ethr) on eigenvalues was too large:
     Diagonalizing with lowered threshold

     Davidson diagonalization with overlap
     ethr =  9.46E-04,  avg # of iterations =  1.0

     negative rho (up, down):  8.933E-01 0.000E+00

     total cpu time spent up to now is        6.2 secs

     total energy              =   -1275.29319203 Ry
     estimated scf accuracy    <       1.15640215 Ry

     iteration #  2     ecut=    30.00 Ry     beta= 0.70
     Davidson diagonalization with overlap
     ethr =  9.80E-04,  avg # of iterations =  5.0

     negative rho (up, down):  8.937E-01 0.000E+00

     total cpu time spent up to now is        8.7 secs

     total energy              =   -1275.60888192 Ry
     estimated scf accuracy    <       2.73531545 Ry

     iteration #  3     ecut=    30.00 Ry     beta= 0.70
     Davidson diagonalization with overlap
     ethr =  9.80E-04,  avg # of iterations =  2.0

     negative rho (up, down):  8.937E-01 0.000E+00

     total cpu time spent up to now is       11.2 secs

     total energy              =   -1275.56267513 Ry
     estimated scf accuracy    <       1.79660619 Ry

     iteration #  4     ecut=    30.00 Ry     beta= 0.70
     Davidson diagonalization with overlap
     ethr =  9.80E-04,  avg # of iterations =  2.0

     negative rho (up, down):  8.935E-01 0.000E+00

     total cpu time spent up to now is       13.4 secs

     total energy              =   -1275.53616084 Ry
     estimated scf accuracy    <       0.95368010 Ry

     iteration #  5     ecut=    30.00 Ry     beta= 0.70
     Davidson diagonalization with overlap
     ethr =  8.08E-04,  avg # of iterations =  2.0

     negative rho (up, down):  8.931E-01 0.000E+00

     total cpu time spent up to now is       15.5 secs

     total energy              =   -1275.21539133 Ry
     estimated scf accuracy    <       1.38232086 Ry

     iteration #  6     ecut=    30.00 Ry     beta= 0.70
     Davidson diagonalization with overlap
     ethr =  8.08E-04,  avg # of iterations =  6.0

     negative rho (up, down):  8.935E-01 0.000E+00

     total cpu time spent up to now is       18.0 secs

     total energy              =   -1276.09745811 Ry
     estimated scf accuracy    <       1.98580713 Ry

     iteration #  7     ecut=    30.00 Ry     beta= 0.70
     Davidson diagonalization with overlap
     ethr =  8.08E-04,  avg # of iterations =  2.0

     negative rho (up, down):  8.938E-01 0.000E+00

     total cpu time spent up to now is       20.1 secs

     total energy              =   -1275.94269338 Ry
     estimated scf accuracy    <       1.33141502 Ry

     iteration #  8     ecut=    30.00 Ry     beta= 0.70
     Davidson diagonalization with overlap
     ethr =  8.08E-04,  avg # of iterations =  2.0

     negative rho (up, down):  8.943E-01 0.000E+00

     total cpu time spent up to now is       22.2 secs

     total energy              =   -1275.72919315 Ry
     estimated scf accuracy    <       0.85206599 Ry

     iteration #  9     ecut=    30.00 Ry     beta= 0.70
     Davidson diagonalization with overlap
     ethr =  7.22E-04,  avg # of iterations =  2.0

     negative rho (up, down):  8.948E-01 0.000E+00

     total cpu time spent up to now is       24.4 secs

     total energy              =   -1275.67572725 Ry
     estimated scf accuracy    <       0.55872023 Ry

     iteration # 10     ecut=    30.00 Ry     beta= 0.70
     Davidson diagonalization with overlap
     ethr =  4.73E-04,  avg # of iterations =  2.0

     negative rho (up, down):  8.946E-01 0.000E+00

     total cpu time spent up to now is       26.6 secs

     total energy              =   -1275.84071000 Ry
     estimated scf accuracy    <       0.60327371 Ry

     iteration # 11     ecut=    30.00 Ry     beta= 0.70
     Davidson diagonalization with overlap
     ethr =  4.73E-04,  avg # of iterations =  1.0

     negative rho (up, down):  8.946E-01 0.000E+00

     total cpu time spent up to now is       28.6 secs

     total energy              =   -1275.81872655 Ry
     estimated scf accuracy    <       0.60526620 Ry

     iteration # 12     ecut=    30.00 Ry     beta= 0.70
     Davidson diagonalization with overlap
     ethr =  4.73E-04,  avg # of iterations =  1.0

     negative rho (up, down):  8.946E-01 0.000E+00

     total cpu time spent up to now is       30.6 secs

     total energy              =   -1275.80912059 Ry
     estimated scf accuracy    <       0.56214679 Ry

     iteration # 13     ecut=    30.00 Ry     beta= 0.70
     Davidson diagonalization with overlap
     ethr =  4.73E-04,  avg # of iterations =  1.0

     negative rho (up, down):  8.947E-01 0.000E+00

     total cpu time spent up to now is       32.6 secs

     total energy              =   -1275.78629583 Ry
     estimated scf accuracy    <       0.54929351 Ry

     iteration # 14     ecut=    30.00 Ry     beta= 0.70
     Davidson diagonalization with overlap
     ethr =  4.66E-04,  avg # of iterations =  1.0

     negative rho (up, down):  8.946E-01 0.000E+00

     total cpu time spent up to now is       34.7 secs

     total energy              =   -1275.76719013 Ry
     estimated scf accuracy    <       0.48884092 Ry

     iteration # 15     ecut=    30.00 Ry     beta= 0.70
     Davidson diagonalization with overlap
     ethr =  4.14E-04,  avg # of iterations =  1.0

     negative rho (up, down):  8.946E-01 0.000E+00

     total cpu time spent up to now is       36.7 secs

     total energy              =   -1275.75881562 Ry
     estimated scf accuracy    <       0.36209977 Ry

     iteration # 16     ecut=    30.00 Ry     beta= 0.70
     Davidson diagonalization with overlap
     ethr =  3.07E-04,  avg # of iterations =  1.0

     negative rho (up, down):  8.945E-01 0.000E+00

     total cpu time spent up to now is       38.7 secs

     total energy              =   -1275.75836343 Ry
     estimated scf accuracy    <       0.01719840 Ry

     iteration # 17     ecut=    30.00 Ry     beta= 0.70
     Davidson diagonalization with overlap
     ethr =  1.46E-05,  avg # of iterations =  2.0

     negative rho (up, down):  8.946E-01 0.000E+00

     total cpu time spent up to now is       40.9 secs

     total energy              =   -1275.74840332 Ry
     estimated scf accuracy    <       0.73844100 Ry

     iteration # 18     ecut=    30.00 Ry     beta= 0.70
     Davidson diagonalization with overlap
     ethr =  1.46E-05,  avg # of iterations =  2.0

     negative rho (up, down):  8.945E-01 0.000E+00

     total cpu time spent up to now is       43.1 secs

     total energy              =   -1275.75975962 Ry
     estimated scf accuracy    <       0.08838506 Ry

     iteration # 19     ecut=    30.00 Ry     beta= 0.70
     Davidson diagonalization with overlap
     ethr =  1.46E-05,  avg # of iterations =  1.0

     negative rho (up, down):  8.945E-01 0.000E+00

     total cpu time spent up to now is       45.0 secs

     total energy              =   -1275.76091420 Ry
     estimated scf accuracy    <       0.03341507 Ry

     iteration # 20     ecut=    30.00 Ry     beta= 0.70
     Davidson diagonalization with overlap
     ethr =  1.46E-05,  avg # of iterations =  1.0

     negative rho (up, down):  8.945E-01 0.000E+00

     total cpu time spent up to now is       47.0 secs

     total energy              =   -1275.76161568 Ry
     estimated scf accuracy    <       0.01435036 Ry

     iteration # 21     ecut=    30.00 Ry     beta= 0.70
     Davidson diagonalization with overlap
     ethr =  1.22E-05,  avg # of iterations =  1.0

     negative rho (up, down):  8.945E-01 0.000E+00

     total cpu time spent up to now is       49.0 secs

     total energy              =   -1275.76161430 Ry
     estimated scf accuracy    <       0.00199162 Ry

     iteration # 22     ecut=    30.00 Ry     beta= 0.70
     Davidson diagonalization with overlap
     ethr =  1.69E-06,  avg # of iterations =  1.0

     negative rho (up, down):  8.945E-01 0.000E+00

     total cpu time spent up to now is       51.0 secs

     total energy              =   -1275.76166939 Ry
     estimated scf accuracy    <       0.00103380 Ry

     iteration # 23     ecut=    30.00 Ry     beta= 0.70
     Davidson diagonalization with overlap
     ethr =  8.76E-07,  avg # of iterations =  1.0

     negative rho (up, down):  8.945E-01 0.000E+00

     total cpu time spent up to now is       53.1 secs

     total energy              =   -1275.76166866 Ry
     estimated scf accuracy    <       0.00059132 Ry

     iteration # 24     ecut=    30.00 Ry     beta= 0.70
     Davidson diagonalization with overlap
     ethr =  5.01E-07,  avg # of iterations =  1.0

     negative rho (up, down):  8.945E-01 0.000E+00

     total cpu time spent up to now is       55.0 secs

     total energy              =   -1275.76166651 Ry
     estimated scf accuracy    <       0.00027218 Ry

     iteration # 25     ecut=    30.00 Ry     beta= 0.70
     Davidson diagonalization with overlap
     ethr =  2.31E-07,  avg # of iterations =  1.0

     negative rho (up, down):  8.945E-01 0.000E+00

     total cpu time spent up to now is       57.2 secs

     total energy              =   -1275.76166658 Ry
     estimated scf accuracy    <       0.00005661 Ry

     iteration # 26     ecut=    30.00 Ry     beta= 0.70
     Davidson diagonalization with overlap
     ethr =  4.80E-08,  avg # of iterations =  1.0

     negative rho (up, down):  8.945E-01 0.000E+00

     total cpu time spent up to now is       59.4 secs

     total energy              =   -1275.76166704 Ry
     estimated scf accuracy    <       0.00001237 Ry

     iteration # 27     ecut=    30.00 Ry     beta= 0.70
     Davidson diagonalization with overlap
     ethr =  1.05E-08,  avg # of iterations =  2.0

     negative rho (up, down):  8.945E-01 0.000E+00

     total cpu time spent up to now is       61.8 secs

     total energy              =   -1275.76166721 Ry
     estimated scf accuracy    <       0.00000479 Ry

     iteration # 28     ecut=    30.00 Ry     beta= 0.70
     Davidson diagonalization with overlap
     ethr =  4.06E-09,  avg # of iterations =  2.0

     negative rho (up, down):  8.945E-01 0.000E+00

     total cpu time spent up to now is       63.9 secs

     total energy              =   -1275.76166750 Ry
     estimated scf accuracy    <       0.00000185 Ry

     iteration # 29     ecut=    30.00 Ry     beta= 0.70
     Davidson diagonalization with overlap
     ethr =  1.57E-09,  avg # of iterations =  2.0

     negative rho (up, down):  8.945E-01 0.000E+00

     total cpu time spent up to now is       66.1 secs

     End of self-consistent calculation

          k = 0.0000 0.0000 0.0000 ( 26023 PWs)   bands (ev):

   -70.5771 -70.5376 -70.5371 -70.5351 -70.5346 -70.5066 -70.5050 -70.4999
   -70.4992 -37.2082 -37.1385 -37.1382 -37.1351 -37.1330 -37.1007 -37.1001
   -37.0996 -37.0993 -37.0911 -37.0880 -37.0760 -37.0758 -37.0471 -37.0470
   -37.0397 -37.0391 -37.0335 -37.0332 -36.9005 -36.8996 -36.6047 -36.4654
   -36.4651 -36.4628 -36.4628 -36.3221  -7.9576  -5.5773  -5.5767  -5.5756
    -5.5754  -4.9253  -4.9238  -3.5157  -3.5154  -3.3144  -3.2803  -3.2792
    -3.2787  -3.2787  -3.1059  -3.1057  -2.9280  -2.5541  -2.5415  -2.5415
    -2.5406  -2.4169  -2.4138  -2.4088  -2.3540  -2.3530  -1.9062  -1.9049
    -1.6773  -1.5856  -1.5853  -1.3276  -1.3276  -1.3274  -1.3266

     the Fermi energy is    -2.4010 ev

!    total energy              =   -1275.76166733 Ry
     estimated scf accuracy    <       0.00000042 Ry
     smearing contrib. (-TS)   =      -0.03421086 Ry
     internal energy E=F+TS    =   -1275.72745646 Ry

     convergence has been achieved in  29 iterations

     negative rho (up, down):  8.945E-01 0.000E+00

     Forces acting on atoms (cartesian axes, Ry/au):

     atom    1 type  1   force =    -0.00006086    0.00017379    0.00010849
     atom    2 type  1   force =    -0.00059239   -0.00010927   -0.00040030
     atom    3 type  1   force =     0.00066220   -0.00012022   -0.00040640
     atom    4 type  1   force =     0.00011196   -0.00018612   -0.00004121
     atom    5 type  1   force =     0.00000941   -0.00001951    0.00161254
     atom    6 type  1   force =    -0.00011346   -0.00023497   -0.00004014
     atom    7 type  1   force =    -0.00005402    0.00021467    0.00142078
     atom    8 type  1   force =     0.00000993    0.00017665    0.00151491
     atom    9 type  1   force =     0.00002987    0.00012076   -0.00004046
     atom   10 type  2   force =    -0.00000264   -0.00001578   -0.00372821
     The non-local contrib.  to forces
     atom    1 type  1   force =    -0.00008697   -0.00109497    0.00513067
     atom    2 type  1   force =    -0.00135991    0.00030710    0.00420975
     atom    3 type  1   force =     0.00145035    0.00028093    0.00418106
     atom    4 type  1   force =    -0.00001011   -0.00059250    0.00387665
     atom    5 type  1   force =     0.00007821    0.00122548    0.00634933
     atom    6 type  1   force =    -0.00005912   -0.00072585    0.00391535
     atom    7 type  1   force =     0.00232458    0.00057188    0.00591205
     atom    8 type  1   force =    -0.00243880    0.00047936    0.00597186
     atom    9 type  1   force =     0.00011190   -0.00045569    0.00321444
     atom   10 type  2   force =    -0.00000087   -0.00001337   -0.00101328
     The ionic contribution  to forces
     atom    1 type  1   force =    -0.00032546    0.03601887   -0.32785342
     atom    2 type  1   force =     0.00693534   -0.00797019   -0.30956715
     atom    3 type  1   force =    -0.00661488   -0.00928554   -0.30919148
     atom    4 type  1   force =    -0.02537559   -0.00294585   -0.30858491
     atom    5 type  1   force =    -0.00097561   -0.03795733   -0.37135297
     atom    6 type  1   force =     0.02632860   -0.00390116   -0.31013577
     atom    7 type  1   force =    -0.04017484    0.01343775   -0.36447290
     atom    8 type  1   force =     0.03924175    0.01394934   -0.36716157
     atom    9 type  1   force =     0.00096890   -0.00142386   -0.29151684
     atom   10 type  2   force =    -0.00000822    0.00007798    2.95983701
     The local contribution  to forces
     atom    1 type  1   force =     0.00015811   -0.03567027    0.32310212
     atom    2 type  1   force =    -0.00607033    0.00719592    0.30552141
     atom    3 type  1   force =     0.00591244    0.00843967    0.30514916
     atom    4 type  1   force =     0.02526294    0.00356709    0.30514002
     atom    5 type  1   force =     0.00101236    0.03733536    0.36655536
     atom    6 type  1   force =    -0.02625322    0.00426205    0.30662736
     atom    7 type  1   force =     0.03840622   -0.01327585    0.35986608
     atom    8 type  1   force =    -0.03764955   -0.01393169    0.36258854
     atom    9 type  1   force =    -0.00079431    0.00220140    0.28881045
     atom   10 type  2   force =     0.00000709   -0.00007610   -2.96252540
     The core correction contribution to forces
     atom    1 type  1   force =    -0.00001103    0.00027610    0.00031397
     atom    2 type  1   force =    -0.00020158    0.00006502    0.00017018
     atom    3 type  1   force =     0.00021463    0.00006235    0.00017019
     atom    4 type  1   force =     0.00009772   -0.00025329    0.00023508
     atom    5 type  1   force =    -0.00001734   -0.00045160    0.00056602
     atom    6 type  1   force =    -0.00008206   -0.00025275    0.00024625
     atom    7 type  1   force =    -0.00029497    0.00020007    0.00061701
     atom    8 type  1   force =     0.00030125    0.00020421    0.00062526
     atom    9 type  1   force =    -0.00000785    0.00014816    0.00023636
     atom   10 type  2   force =     0.00000000    0.00000000    0.00000000
     The Hubbard contrib.    to forces
     atom    1 type  1   force =     0.00000000    0.00000000    0.00000000
     atom    2 type  1   force =     0.00000000    0.00000000    0.00000000
     atom    3 type  1   force =     0.00000000    0.00000000    0.00000000
     atom    4 type  1   force =     0.00000000    0.00000000    0.00000000
     atom    5 type  1   force =     0.00000000    0.00000000    0.00000000
     atom    6 type  1   force =     0.00000000    0.00000000    0.00000000
     atom    7 type  1   force =     0.00000000    0.00000000    0.00000000
     atom    8 type  1   force =     0.00000000    0.00000000    0.00000000
     atom    9 type  1   force =     0.00000000    0.00000000    0.00000000
     atom   10 type  2   force =     0.00000000    0.00000000    0.00000000
     The SCF correction term to forces
     atom    1 type  1   force =     0.00000000    0.00000000   -0.00000000
     atom    2 type  1   force =     0.00000000    0.00000000   -0.00000000
     atom    3 type  1   force =    -0.00000000    0.00000000   -0.00000000
     atom    4 type  1   force =     0.00000000    0.00000000   -0.00000000
     atom    5 type  1   force =    -0.00000000   -0.00000000   -0.00000000
     atom    6 type  1   force =    -0.00000000    0.00000000   -0.00000000
     atom    7 type  1   force =    -0.00000000   -0.00000000   -0.00000000
     atom    8 type  1   force =     0.00000000   -0.00000000   -0.00000000
     atom    9 type  1   force =    -0.00000000   -0.00000000   -0.00000000
     atom   10 type  2   force =     0.00000082   -0.00000265    0.00002603

     Total force =     0.003728     Total SCF correction =     0.000026

     Molecular Dynamics Calculation

     Starting temperature  =   300.00 K

     temperature is set once at start

     mass Ta               =   180.95
     mass H                =     2.01
     Time step             =   100.00 a.u.,  4.8378 femto-seconds

     Entering Dynamics:    iteration =     1
                           time      =   0.0048 pico-seconds


ATOMIC_POSITIONS (angstrom)
Ta            0.0000000000        0.0000000000       10.0000000000    0   0   0
Ta            3.3057996767        0.0000000000       10.0000000000    0   0   0
Ta            6.6116003452        0.0000000000       10.0000000000    0   0   0
Ta            1.6529003342        2.3375539952       10.0000000000    0   0   0
Ta            4.9587000109        2.3375539952       10.0000000000    0   0   0
Ta            8.2644996877        2.3375539952       10.0000000000    0   0   0
Ta            3.3057996767        4.6751069986       10.0000000000    0   0   0
Ta            6.6116003452        4.6751069986       10.0000000000    0   0   0
Ta            9.9174000219        4.6751069986       10.0000000000    0   0   0
H             5.0449657739        4.0653391013       14.9456228978


     kinetic energy (Ekin) =           0.00285013 Ry
     temperature           =         300.00000000 K 
     Ekin + Etot (const)   =       -1275.75881720 Ry

     File outdir/pwscf.msd.dat deleted, as requested

     Writing config-only to output data dir outdir/pwscf.save/
     NEW-OLD atomic charge density approx. for the potential

     Check: negative core charge=   -0.000002

     negative rho (up, down):  8.946E-01 0.000E+00

     total cpu time spent up to now is       68.3 secs

     Self-consistent Calculation

     iteration #  1     ecut=    30.00 Ry     beta= 0.70
     Davidson diagonalization with overlap
     ethr =  1.00E-06,  avg # of iterations =  5.0

     negative rho (up, down):  8.945E-01 0.000E+00

     total cpu time spent up to now is       71.3 secs

     total energy              =   -1275.75982976 Ry
     estimated scf accuracy    <       0.00289948 Ry

     iteration #  2     ecut=    30.00 Ry     beta= 0.70
     Davidson diagonalization with overlap
     ethr =  2.46E-06,  avg # of iterations =  2.0

     negative rho (up, down):  8.946E-01 0.000E+00

     total cpu time spent up to now is       74.0 secs

     total energy              =   -1275.75408979 Ry
     estimated scf accuracy    <       0.87772064 Ry

     iteration #  3     ecut=    30.00 Ry     beta= 0.70
     Davidson diagonalization with overlap
     ethr =  2.46E-06,  avg # of iterations =  3.0

     negative rho (up, down):  8.946E-01 0.000E+00

     total cpu time spent up to now is       76.4 secs

     total energy              =   -1275.76198978 Ry
     estimated scf accuracy    <       0.01367404 Ry

     iteration #  4     ecut=    30.00 Ry     beta= 0.70
     Davidson diagonalization with overlap
     ethr =  2.46E-06,  avg # of iterations =  1.0

     negative rho (up, down):  8.946E-01 0.000E+00

     total cpu time spent up to now is       78.4 secs

     total energy              =   -1275.76199782 Ry
     estimated scf accuracy    <       0.00420286 Ry

     iteration #  5     ecut=    30.00 Ry     beta= 0.70
     Davidson diagonalization with overlap
     ethr =  2.46E-06,  avg # of iterations =  1.0

     negative rho (up, down):  8.946E-01 0.000E+00

     total cpu time spent up to now is       80.4 secs

     total energy              =   -1275.76205915 Ry
     estimated scf accuracy    <       0.00013374 Ry

     iteration #  6     ecut=    30.00 Ry     beta= 0.70
     Davidson diagonalization with overlap
     ethr =  1.13E-07,  avg # of iterations =  5.0

     negative rho (up, down):  8.946E-01 0.000E+00

     total cpu time spent up to now is       82.9 secs

     total energy              =   -1275.76209176 Ry
     estimated scf accuracy    <       0.00996824 Ry

     iteration #  7     ecut=    30.00 Ry     beta= 0.70
     Davidson diagonalization with overlap
     ethr =  1.13E-07,  avg # of iterations =  2.0

     negative rho (up, down):  8.946E-01 0.000E+00

     total cpu time spent up to now is       85.1 secs

     total energy              =   -1275.76203444 Ry
     estimated scf accuracy    <       0.00472651 Ry

     iteration #  8     ecut=    30.00 Ry     beta= 0.70
     Davidson diagonalization with overlap
     ethr =  1.13E-07,  avg # of iterations =  1.0

     negative rho (up, down):  8.946E-01 0.000E+00

     total cpu time spent up to now is       87.2 secs

     total energy              =   -1275.76206350 Ry
     estimated scf accuracy    <       0.00024055 Ry

     iteration #  9     ecut=    30.00 Ry     beta= 0.70
     Davidson diagonalization with overlap
     ethr =  1.13E-07,  avg # of iterations =  1.0

     negative rho (up, down):  8.946E-01 0.000E+00

     total cpu time spent up to now is       89.4 secs

     total energy              =   -1275.76206398 Ry
     estimated scf accuracy    <       0.00031916 Ry

     iteration # 10     ecut=    30.00 Ry     beta= 0.70
     Davidson diagonalization with overlap
     ethr =  1.13E-07,  avg # of iterations =  1.0

     negative rho (up, down):  8.946E-01 0.000E+00

     total cpu time spent up to now is       91.4 secs

     total energy              =   -1275.76205685 Ry
     estimated scf accuracy    <       0.00037233 Ry

     iteration # 11     ecut=    30.00 Ry     beta= 0.70
     Davidson diagonalization with overlap
     ethr =  1.13E-07,  avg # of iterations =  1.0

     negative rho (up, down):  8.946E-01 0.000E+00

     total cpu time spent up to now is       93.6 secs

     total energy              =   -1275.76205956 Ry
     estimated scf accuracy    <       0.00000846 Ry

     iteration # 12     ecut=    30.00 Ry     beta= 0.70
     Davidson diagonalization with overlap
     ethr =  7.17E-09,  avg # of iterations =  5.0

     negative rho (up, down):  8.946E-01 0.000E+00

     total cpu time spent up to now is       95.8 secs

     End of self-consistent calculation

          k = 0.0000 0.0000 0.0000 ( 26023 PWs)   bands (ev):

   -70.5763 -70.5371 -70.5360 -70.5345 -70.5335 -70.5058 -70.5043 -70.4990
   -70.4982 -37.2073 -37.1379 -37.1371 -37.1344 -37.1318 -37.1001 -37.0992
   -37.0987 -37.0984 -37.0903 -37.0871 -37.0750 -37.0749 -37.0465 -37.0460
   -37.0389 -37.0382 -37.0327 -37.0324 -36.8998 -36.8987 -36.6039 -36.4647
   -36.4644 -36.4620 -36.4617 -36.3213  -7.9566  -5.5764  -5.5758  -5.5746
    -5.5743  -4.9245  -4.9228  -3.5149  -3.5145  -3.3136  -3.2794  -3.2780
    -3.2775  -3.2774  -3.1048  -3.1045  -2.9273  -2.5548  -2.5403  -2.5403
    -2.5394  -2.4157  -2.4127  -2.4073  -2.3529  -2.3516  -1.9049  -1.9035
    -1.6735  -1.5848  -1.5843  -1.3265  -1.3264  -1.3261  -1.3255

     the Fermi energy is    -2.3998 ev

!    total energy              =   -1275.76205971 Ry
     estimated scf accuracy    <       0.00000034 Ry
     smearing contrib. (-TS)   =      -0.03416708 Ry
     internal energy E=F+TS    =   -1275.72789263 Ry

     convergence has been achieved in  12 iterations

     negative rho (up, down):  8.946E-01 0.000E+00

     Forces acting on atoms (cartesian axes, Ry/au):

     atom    1 type  1   force =    -0.00015301    0.00018431    0.00021876
     atom    2 type  1   force =    -0.00054585   -0.00007802   -0.00048563
     atom    3 type  1   force =     0.00070186   -0.00016375   -0.00049058
     atom    4 type  1   force =     0.00027508   -0.00019872   -0.00011848
     atom    5 type  1   force =    -0.00008588   -0.00006697    0.00171865
     atom    6 type  1   force =    -0.00019442   -0.00028530   -0.00007422
     atom    7 type  1   force =    -0.00002750    0.00024612    0.00156220
     atom    8 type  1   force =    -0.00003537    0.00018202    0.00181911
     atom    9 type  1   force =     0.00005497    0.00020653   -0.00014115
     atom   10 type  2   force =     0.00001012   -0.00002623   -0.00400864
     The non-local contrib.  to forces
     atom    1 type  1   force =    -0.00021514   -0.00129073    0.00546175
     atom    2 type  1   force =    -0.00141877    0.00042571    0.00423996
     atom    3 type  1   force =     0.00162286    0.00032546    0.00416707
     atom    4 type  1   force =     0.00018288   -0.00059387    0.00389123
     atom    5 type  1   force =     0.00005237    0.00142647    0.00660471
     atom    6 type  1   force =    -0.00025842   -0.00090100    0.00402436
     atom    7 type  1   force =     0.00264383    0.00061785    0.00611910
     atom    8 type  1   force =    -0.00288031    0.00044564    0.00628581
     atom    9 type  1   force =     0.00024477   -0.00042245    0.00315038
     atom   10 type  2   force =     0.00001062   -0.00001674   -0.00102021
     The ionic contribution  to forces
     atom    1 type  1   force =    -0.00078374    0.03823533   -0.33319529
     atom    2 type  1   force =     0.00848645   -0.00664881   -0.31215994
     atom    3 type  1   force =    -0.00771577   -0.00948775   -0.31121241
     atom    4 type  1   force =    -0.02506042   -0.00231048   -0.31022583
     atom    5 type  1   force =    -0.00207110   -0.04036756   -0.37448726
     atom    6 type  1   force =     0.02708165   -0.00444759   -0.31348290
     atom    7 type  1   force =    -0.04288590    0.01258641   -0.36882157
     atom    8 type  1   force =     0.04084803    0.01360652   -0.37476466
     atom    9 type  1   force =     0.00212234   -0.00124485   -0.29364950
     atom   10 type  2   force =    -0.00002152    0.00007877    2.99199935
     The local contribution  to forces
     atom    1 type  1   force =     0.00055811   -0.03794940    0.32793544
     atom    2 type  1   force =    -0.00718672    0.00582453    0.30720921
     atom    3 type  1   force =     0.00667774    0.00844604    0.30617155
     atom    4 type  1   force =     0.02534999    0.00283842    0.30590776
     atom    5 type  1   force =     0.00192013    0.03941270    0.36932154
     atom    6 type  1   force =    -0.02723315    0.00468318    0.30916097
     atom    7 type  1   force =     0.04087359   -0.01237242    0.36383592
     atom    8 type  1   force =    -0.03903587   -0.01352371    0.37011489
     atom    9 type  1   force =    -0.00195367    0.00277171    0.28966536
     atom   10 type  2   force =     0.00002125   -0.00007764   -2.99498718
     The core correction contribution to forces
     atom    1 type  1   force =    -0.00003295    0.00033377    0.00036163
     atom    2 type  1   force =    -0.00021472    0.00010132    0.00016653
     atom    3 type  1   force =     0.00025058    0.00008751    0.00016865
     atom    4 type  1   force =     0.00014157   -0.00027800    0.00023536
     atom    5 type  1   force =    -0.00003670   -0.00050825    0.00060274
     atom    6 type  1   force =    -0.00010001   -0.00028469    0.00026164
     atom    7 type  1   force =    -0.00032059    0.00019526    0.00066570
     atom    8 type  1   force =     0.00033815    0.00020706    0.00068567
     atom    9 type  1   force =    -0.00001729    0.00014385    0.00024587
     atom   10 type  2   force =     0.00000000    0.00000000    0.00000000
     The Hubbard contrib.    to forces
     atom    1 type  1   force =     0.00000000    0.00000000    0.00000000
     atom    2 type  1   force =     0.00000000    0.00000000    0.00000000
     atom    3 type  1   force =     0.00000000    0.00000000    0.00000000
     atom    4 type  1   force =     0.00000000    0.00000000    0.00000000
     atom    5 type  1   force =     0.00000000    0.00000000    0.00000000
     atom    6 type  1   force =     0.00000000    0.00000000    0.00000000
     atom    7 type  1   force =     0.00000000    0.00000000    0.00000000
     atom    8 type  1   force =     0.00000000    0.00000000    0.00000000
     atom    9 type  1   force =     0.00000000    0.00000000    0.00000000
     atom   10 type  2   force =     0.00000000    0.00000000    0.00000000
     The SCF correction term to forces
     atom    1 type  1   force =     0.00000000    0.00000000   -0.00000000
     atom    2 type  1   force =    -0.00000000    0.00000000    0.00000000
     atom    3 type  1   force =    -0.00000000    0.00000000    0.00000000
     atom    4 type  1   force =    -0.00000000    0.00000000    0.00000000
     atom    5 type  1   force =     0.00000000   -0.00000000   -0.00000000
     atom    6 type  1   force =     0.00000000    0.00000000   -0.00000000
     atom    7 type  1   force =    -0.00000000   -0.00000000   -0.00000000
     atom    8 type  1   force =     0.00000000   -0.00000000   -0.00000000
     atom    9 type  1   force =    -0.00000000   -0.00000000    0.00000000
     atom   10 type  2   force =    -0.00000037   -0.00000452    0.00001021

     Total force =     0.004009     Total SCF correction =     0.000011

     Entering Dynamics:    iteration =     2
                           time      =   0.0097 pico-seconds


ATOMIC_POSITIONS (angstrom)
Ta            0.0000000000        0.0000000000       10.0000000000    0   0   0
Ta            3.3057996767        0.0000000000       10.0000000000    0   0   0
Ta            6.6116003452        0.0000000000       10.0000000000    0   0   0
Ta            1.6529003342        2.3375539952       10.0000000000    0   0   0
Ta            4.9587000109        2.3375539952       10.0000000000    0   0   0
Ta            8.2644996877        2.3375539952       10.0000000000    0   0   0
Ta            3.3057996767        4.6751069986       10.0000000000    0   0   0
Ta            6.6116003452        4.6751069986       10.0000000000    0   0   0
Ta            9.9174000219        4.6751069986       10.0000000000    0   0   0
H             5.0899607209        4.1306025853       14.8796897716


     kinetic energy (Ekin) =           0.00324684 Ry
     temperature           =         341.75732473 K 
     Ekin + Etot (const)   =       -1275.75881287 Ry

     Writing config-only to output data dir outdir/pwscf.save/
     NEW-OLD atomic charge density approx. for the potential

     Check: negative core charge=   -0.000002

     negative rho (up, down):  8.946E-01 0.000E+00

     total cpu time spent up to now is       97.9 secs

     Self-consistent Calculation

     iteration #  1     ecut=    30.00 Ry     beta= 0.70
     Davidson diagonalization with overlap
     ethr =  1.00E-06,  avg # of iterations =  4.0

     negative rho (up, down):  8.946E-01 0.000E+00

     total cpu time spent up to now is      101.1 secs

     total energy              =   -1275.76180534 Ry
     estimated scf accuracy    <       0.00104198 Ry

     iteration #  2     ecut=    30.00 Ry     beta= 0.70
     Davidson diagonalization with overlap
     ethr =  8.83E-07,  avg # of iterations =  3.0

     negative rho (up, down):  8.946E-01 0.000E+00

     total cpu time spent up to now is      103.5 secs

     total energy              =   -1275.75383816 Ry
     estimated scf accuracy    <       0.80833410 Ry

     iteration #  3     ecut=    30.00 Ry     beta= 0.70
     Davidson diagonalization with overlap
     ethr =  8.83E-07,  avg # of iterations =  3.0

     negative rho (up, down):  8.946E-01 0.000E+00

     total cpu time spent up to now is      105.7 secs

     total energy              =   -1275.76248012 Ry
     estimated scf accuracy    <       0.00158787 Ry

     iteration #  4     ecut=    30.00 Ry     beta= 0.70
     Davidson diagonalization with overlap
     ethr =  8.83E-07,  avg # of iterations =  2.0

     negative rho (up, down):  8.946E-01 0.000E+00

     total cpu time spent up to now is      107.8 secs

     total energy              =   -1275.76255625 Ry
     estimated scf accuracy    <       0.00064076 Ry

     iteration #  5     ecut=    30.00 Ry     beta= 0.70
     Davidson diagonalization with overlap
     ethr =  5.43E-07,  avg # of iterations =  2.0

     negative rho (up, down):  8.946E-01 0.000E+00

     total cpu time spent up to now is      109.8 secs

     total energy              =   -1275.76256436 Ry
     estimated scf accuracy    <       0.00027161 Ry

     iteration #  6     ecut=    30.00 Ry     beta= 0.70
     Davidson diagonalization with overlap
     ethr =  2.30E-07,  avg # of iterations =  2.0

     negative rho (up, down):  8.946E-01 0.000E+00

     total cpu time spent up to now is      111.9 secs

     total energy              =   -1275.76258527 Ry
     estimated scf accuracy    <       0.00074993 Ry

     iteration #  7     ecut=    30.00 Ry     beta= 0.70
     Davidson diagonalization with overlap
     ethr =  2.30E-07,  avg # of iterations =  1.0

     negative rho (up, down):  8.947E-01 0.000E+00

     total cpu time spent up to now is      113.8 secs

     total energy              =   -1275.76258656 Ry
     estimated scf accuracy    <       0.00034645 Ry

     iteration #  8     ecut=    30.00 Ry     beta= 0.70
     Davidson diagonalization with overlap
     ethr =  2.30E-07,  avg # of iterations =  1.0

     negative rho (up, down):  8.947E-01 0.000E+00

     total cpu time spent up to now is      115.7 secs

     total energy              =   -1275.76258764 Ry
     estimated scf accuracy    <       0.00011258 Ry

     iteration #  9     ecut=    30.00 Ry     beta= 0.70
     Davidson diagonalization with overlap
     ethr =  9.54E-08,  avg # of iterations =  1.0

     negative rho (up, down):  8.947E-01 0.000E+00

     total cpu time spent up to now is      117.7 secs

     total energy              =   -1275.76258724 Ry
     estimated scf accuracy    <       0.00008630 Ry

     iteration # 10     ecut=    30.00 Ry     beta= 0.70
     Davidson diagonalization with overlap
     ethr =  7.31E-08,  avg # of iterations =  1.0

     negative rho (up, down):  8.947E-01 0.000E+00

     total cpu time spent up to now is      119.7 secs

     total energy              =   -1275.76258471 Ry
     estimated scf accuracy    <       0.00008327 Ry

     iteration # 11     ecut=    30.00 Ry     beta= 0.70
     Davidson diagonalization with overlap
     ethr =  7.06E-08,  avg # of iterations =  1.0

     negative rho (up, down):  8.947E-01 0.000E+00

     total cpu time spent up to now is      121.6 secs

     total energy              =   -1275.76258547 Ry
     estimated scf accuracy    <       0.00001202 Ry

     iteration # 12     ecut=    30.00 Ry     beta= 0.70
     Davidson diagonalization with overlap
     ethr =  1.02E-08,  avg # of iterations =  2.0

     negative rho (up, down):  8.947E-01 0.000E+00

     total cpu time spent up to now is      123.6 secs

     End of self-consistent calculation

          k = 0.0000 0.0000 0.0000 ( 26023 PWs)   bands (ev):

   -70.5754 -70.5362 -70.5353 -70.5336 -70.5326 -70.5048 -70.5036 -70.4981
   -70.4972 -37.2063 -37.1370 -37.1363 -37.1334 -37.1305 -37.0993 -37.0984
   -37.0979 -37.0975 -37.0894 -37.0861 -37.0740 -37.0736 -37.0458 -37.0451
   -37.0381 -37.0373 -37.0319 -37.0314 -36.8988 -36.8979 -36.6030 -36.4641
   -36.4636 -36.4610 -36.4608 -36.3205  -7.9554  -5.5755  -5.5747  -5.5734
    -5.5732  -4.9235  -4.9215  -3.5138  -3.5134  -3.3127  -3.2783  -3.2766
    -3.2761  -3.2759  -3.1036  -3.1031  -2.9266  -2.5558  -2.5389  -2.5388
    -2.5379  -2.4142  -2.4114  -2.4053  -2.3517  -2.3499  -1.9033  -1.9017
    -1.6686  -1.5837  -1.5833  -1.3251  -1.3249  -1.3246  -1.3240

     the Fermi energy is    -2.3984 ev

!    total energy              =   -1275.76258550 Ry
     estimated scf accuracy    <       0.00000039 Ry
     smearing contrib. (-TS)   =      -0.03410490 Ry
     internal energy E=F+TS    =   -1275.72848061 Ry

     convergence has been achieved in  12 iterations

     negative rho (up, down):  8.947E-01 0.000E+00

     Forces acting on atoms (cartesian axes, Ry/au):

     atom    1 type  1   force =    -0.00032144    0.00023267    0.00023305
     atom    2 type  1   force =    -0.00048798    0.00002199   -0.00053763
     atom    3 type  1   force =     0.00079371   -0.00007986   -0.00049467
     atom    4 type  1   force =     0.00037216   -0.00017224   -0.00017501
     atom    5 type  1   force =    -0.00012200   -0.00015669    0.00185347
     atom    6 type  1   force =    -0.00021338   -0.00032159   -0.00010934
     atom    7 type  1   force =    -0.00009567    0.00022037    0.00172489
     atom    8 type  1   force =     0.00004587    0.00010518    0.00209015
     atom    9 type  1   force =     0.00001944    0.00016180   -0.00012708
     atom   10 type  2   force =     0.00000929   -0.00001162   -0.00445784
     The non-local contrib.  to forces
     atom    1 type  1   force =    -0.00037430   -0.00151486    0.00573688
     atom    2 type  1   force =    -0.00148506    0.00062484    0.00439121
     atom    3 type  1   force =     0.00186041    0.00042406    0.00433744
     atom    4 type  1   force =     0.00030683   -0.00059101    0.00398412
     atom    5 type  1   force =     0.00011341    0.00157650    0.00692903
     atom    6 type  1   force =    -0.00039808   -0.00108460    0.00416612
     atom    7 type  1   force =     0.00290880    0.00061072    0.00637669
     atom    8 type  1   force =    -0.00330391    0.00035114    0.00651769
     atom    9 type  1   force =     0.00042991   -0.00051349    0.00327740
     atom   10 type  2   force =     0.00001419   -0.00001180   -0.00107173
     The ionic contribution  to forces
     atom    1 type  1   force =    -0.00137477    0.04089036   -0.33947178
     atom    2 type  1   force =     0.01025763   -0.00524601   -0.31539072
     atom    3 type  1   force =    -0.00890786   -0.00974330   -0.31367389
     atom    4 type  1   force =    -0.02487139   -0.00159052   -0.31237397
     atom    5 type  1   force =    -0.00322758   -0.04321851   -0.37854961
     atom    6 type  1   force =     0.02801744   -0.00509602   -0.31738453
     atom    7 type  1   force =    -0.04611361    0.01175732   -0.37414610
     atom    8 type  1   force =     0.04285176    0.01323733   -0.38379961
     atom    9 type  1   force =     0.00340976   -0.00107029   -0.29620547
     atom   10 type  2   force =    -0.00004137    0.00007964    3.03099569
     The local contribution  to forces
     atom    1 type  1   force =     0.00067905   -0.03984446    0.33333981
     atom    2 type  1   force =    -0.00823705    0.00466239    0.31012672
     atom    3 type  1   force =     0.00758508    0.00895673    0.30859456
     atom    4 type  1   force =     0.02514082    0.00232118    0.30773800
     atom    5 type  1   force =     0.00297262    0.04158607    0.37315734
     atom    6 type  1   force =    -0.02802493    0.00549594    0.31244956
     atom    7 type  1   force =     0.04348535   -0.01178131    0.36897843
     atom    8 type  1   force =    -0.04010122   -0.01373748    0.37863703
     atom    9 type  1   force =    -0.00358889    0.00243704    0.29206859
     atom   10 type  2   force =     0.00003703   -0.00008660   -3.03440429
     The core correction contribution to forces
     atom    1 type  1   force =    -0.00005485    0.00041506    0.00038515
     atom    2 type  1   force =    -0.00023696    0.00013954    0.00016895
     atom    3 type  1   force =     0.00030340    0.00012411    0.00015039
     atom    4 type  1   force =     0.00018397   -0.00032952    0.00022723
     atom    5 type  1   force =    -0.00005516   -0.00058515    0.00064360
     atom    6 type  1   force =    -0.00011844   -0.00032267    0.00027098
     atom    7 type  1   force =    -0.00036591    0.00019671    0.00073106
     atom    8 type  1   force =     0.00039008    0.00021234    0.00075237
     atom    9 type  1   force =    -0.00002153    0.00014172    0.00024986
     atom   10 type  2   force =     0.00000000    0.00000000    0.00000000
     The Hubbard contrib.    to forces
     atom    1 type  1   force =     0.00000000    0.00000000    0.00000000
     atom    2 type  1   force =     0.00000000    0.00000000    0.00000000
     atom    3 type  1   force =     0.00000000    0.00000000    0.00000000
     atom    4 type  1   force =     0.00000000    0.00000000    0.00000000
     atom    5 type  1   force =     0.00000000    0.00000000    0.00000000
     atom    6 type  1   force =     0.00000000    0.00000000    0.00000000
     atom    7 type  1   force =     0.00000000    0.00000000    0.00000000
     atom    8 type  1   force =     0.00000000    0.00000000    0.00000000
     atom    9 type  1   force =     0.00000000    0.00000000    0.00000000
     atom   10 type  2   force =     0.00000000    0.00000000    0.00000000
     The SCF correction term to forces
     atom    1 type  1   force =     0.00000000    0.00000000    0.00000000
     atom    2 type  1   force =    -0.00000000   -0.00000000    0.00000000
     atom    3 type  1   force =    -0.00000000    0.00000000    0.00000000
     atom    4 type  1   force =    -0.00000000    0.00000000    0.00000000
     atom    5 type  1   force =     0.00000000    0.00000000   -0.00000000
     atom    6 type  1   force =     0.00000000    0.00000000    0.00000000
     atom    7 type  1   force =    -0.00000000   -0.00000000   -0.00000000
     atom    8 type  1   force =     0.00000000    0.00000000   -0.00000000
     atom    9 type  1   force =    -0.00000000   -0.00000000    0.00000000
     atom   10 type  2   force =     0.00000237   -0.00000001   -0.00000046

     Total force =     0.004458     Total SCF correction =     0.000002

     Entering Dynamics:    iteration =     3
                           time      =   0.0145 pico-seconds


ATOMIC_POSITIONS (angstrom)
Ta            0.0000000000        0.0000000000       10.0000000000    0   0   0
Ta            3.3057996767        0.0000000000       10.0000000000    0   0   0
Ta            6.6116003452        0.0000000000       10.0000000000    0   0   0
Ta            1.6529003342        2.3375539952       10.0000000000    0   0   0
Ta            4.9587000109        2.3375539952       10.0000000000    0   0   0
Ta            8.2644996877        2.3375539952       10.0000000000    0   0   0
Ta            3.3057996767        4.6751069986       10.0000000000    0   0   0
Ta            6.6116003452        4.6751069986       10.0000000000    0   0   0
Ta            9.9174000219        4.6751069986       10.0000000000    0   0   0
H             5.1349824595        4.1958325786       14.8009056694


     kinetic energy (Ekin) =           0.00377537 Ry
     temperature           =         397.38884815 K 
     Ekin + Etot (const)   =       -1275.75881014 Ry

     The maximum number of steps has been reached.

     End of molecular dynamics calculation

     diffusion coefficients :
     atom     1   D =       0.00000000 cm^2/s
     atom     2   D =       0.00000000 cm^2/s
     atom     3   D =       0.00000000 cm^2/s
     atom     4   D =       0.00000000 cm^2/s
     atom     5   D =       0.00000000 cm^2/s
     atom     6   D =       0.00000000 cm^2/s
     atom     7   D =       0.00000000 cm^2/s
     atom     8   D =       0.00000000 cm^2/s
     atom     9   D =       0.00000000 cm^2/s
     atom    10   D =       0.00011048 cm^2/s

     < D > =       0.00011048 cm^2/s

     Writing all to output data dir outdir/pwscf.save/

     init_run     :      2.09s CPU      2.18s WALL (       1 calls)
     electrons    :    111.69s CPU    117.03s WALL (       3 calls)
     update_pot   :      0.76s CPU      0.77s WALL (       2 calls)
     forces       :      4.00s CPU      4.10s WALL (       3 calls)

     Called by init_run:
     wfcinit      :      0.91s CPU      0.93s WALL (       1 calls)
     potinit      :      0.22s CPU      0.23s WALL (       1 calls)
     hinit0       :      0.64s CPU      0.64s WALL (       1 calls)

     Called by electrons:
     c_bands      :     71.23s CPU     72.72s WALL (      54 calls)
     sum_band     :     22.72s CPU     24.94s WALL (      54 calls)
     v_of_rho     :      1.79s CPU      1.86s WALL (      56 calls)
     newd         :     16.38s CPU     17.96s WALL (      56 calls)
     mix_rho      :      0.43s CPU      0.44s WALL (      54 calls)

     Called by c_bands:
     init_us_2    :      0.35s CPU      0.37s WALL (     109 calls)
     init_us_2:cp :      0.35s CPU      0.37s WALL (     109 calls)
     cegterg      :     69.42s CPU     70.88s WALL (      54 calls)

     Called by *egterg:
     cdiaghg      :      1.67s CPU      1.67s WALL (     154 calls)
     h_psi        :     37.46s CPU     38.74s WALL (     158 calls)
     s_psi        :     11.10s CPU     11.16s WALL (     158 calls)
     g_psi        :      0.05s CPU      0.05s WALL (     103 calls)

     Called by h_psi:
     h_psi:calbec :     12.26s CPU     12.32s WALL (     158 calls)
     vloc_psi     :     14.00s CPU     15.15s WALL (     158 calls)
     add_vuspsi   :     11.10s CPU     11.12s WALL (     158 calls)

     General routines
     calbec       :     19.14s CPU     19.23s WALL (     224 calls)
     fft          :      2.08s CPU      2.15s WALL (     652 calls)
     ffts         :      0.08s CPU      0.09s WALL (      54 calls)
     fftw         :     15.71s CPU     16.98s WALL (   20252 calls)

     Parallel routines

     PWSCF        :   1m59.38s CPU   2m 5.05s WALL


   This run was terminated on:   4:31:58  15May2023            

=------------------------------------------------------------------------------=
   JOB DONE.
=------------------------------------------------------------------------------=
