
     Program PWSCF v.7.2 starts on 14Jun2023 at  3:49:56 

     This program is part of the open-source Quantum ESPRESSO suite
     for quantum simulation of materials; please cite
         "P. Giannozzi et al., J. Phys.:Condens. Matter 21 395502 (2009);
         "P. Giannozzi et al., J. Phys.:Condens. Matter 29 465901 (2017);
         "P. Giannozzi et al., J. Chem. Phys. 152 154105 (2020);
          URL http://www.quantum-espresso.org", 
     in publications or presentations arising from this work. More details at
     http://www.quantum-espresso.org/quote

     Parallel version (MPI), running on    12 processors

     MPI processes distributed on     1 nodes
     178078 MiB available memory on the printing compute node when the environment starts

     Reading input from md_data/md_Be30W8H_20steps_2000eV_incident0_polar0.in
Warning: card &CELL ignored
Warning: card / ignored

     Current dimensions of program PWSCF are:
     Max number of different atomic species (ntypx) = 10
     Max number of k-points (npk) =  40000
     Max angular momentum in pseudopotentials (lmaxx) =  4

     File outdir/pwscf.md deleted, as requested

     gamma-point specific algorithms are used

     R & G space division:  proc/nbgrp/npool/nimage =      12
     Subspace diagonalization in iterative solution of the eigenvalue problem:
     a serial algorithm will be used


     Parallelization info
     --------------------
     sticks:   dense  smooth     PW     G-vecs:    dense   smooth      PW
     Min        1912    1912    477               223932   223932   28002
     Max        1914    1914    480               223938   223938   28008
     Sum       22965   22965   5749              2687239  2687239  336055

     Using Slab Decomposition



     bravais-lattice index     =            0
     lattice parameter (alat)  =      32.3337  a.u.
     unit-cell volume          =   15132.7767 (a.u.)^3
     number of atoms/cell      =           39
     number of atomic types    =            3
     number of electrons       =       233.00
     number of Kohn-Sham states=          140
     kinetic-energy cutoff     =     120.0000  Ry
     charge density cutoff     =     480.0000  Ry
     scf convergence threshold =      1.0E-03
     mixing beta               =       0.7000
     number of iterations used =            8  TF        mixing
     energy convergence thresh.=      0.0E+00
     force convergence thresh. =      0.0E+00
     Exchange-correlation=  SLA  PW   PBX  PBC
                           (   1   4   3   4   0   0   0)
     nstep                     =           20


     celldm(1)=  32.333659  celldm(2)=   0.000000  celldm(3)=   0.000000
     celldm(4)=   0.000000  celldm(5)=   0.000000  celldm(6)=   0.000000

     crystal axes: (cart. coord. in units of alat)
               a(1) = (   1.000000   0.000000   0.000000 )  
               a(2) = (   0.000000   0.575603   0.000000 )  
               a(3) = (   0.000000   0.000000   0.777734 )  

     reciprocal axes: (cart. coord. in units 2 pi/alat)
               b(1) = (  1.000000  0.000000  0.000000 )  
               b(2) = (  0.000000  1.737309  0.000000 )  
               b(3) = (  0.000000  0.000000  1.285786 )  


     PseudoPot. # 1 for Be read from file:
     q-e/pseudo/be_pbe_v1.4.uspp.F.UPF
     MD5 check sum: 5ecff1440924c7c98ad504bef30f5264
     Pseudo is Ultrasoft, Zval =  4.0
     Generated by new atomic code, or converted to UPF format
     Using radial grid of  769 points,  6 beta functions with: 
                l(1) =   0
                l(2) =   0
                l(3) =   0
                l(4) =   1
                l(5) =   1
                l(6) =   2
     Q(r) pseudized with 10 coefficients,  rinner =    1.000   1.000   1.000
                                                       1.000   1.000

     PseudoPot. # 2 for W  read from file:
     q-e/pseudo/w_pbe_v1.2.uspp.F.UPF
     MD5 check sum: 9c083fa34c2a2ea0f02f1f893e16e1c8
     Pseudo is Ultrasoft + core correction, Zval = 14.0
     Generated by new atomic code, or converted to UPF format
     Using radial grid of  923 points,  8 beta functions with: 
                l(1) =   0
                l(2) =   0
                l(3) =   0
                l(4) =   1
                l(5) =   1
                l(6) =   2
                l(7) =   2
                l(8) =   3
     Q(r) pseudized with  6 coefficients,  rinner =    1.350   1.350   1.350
                                                       1.350   1.350   1.350
                                                       1.350

     PseudoPot. # 3 for H  read from file:
     q-e/pseudo/h_pbe_v1.4.uspp.F.UPF
     MD5 check sum: 761ae9a214b05c3daf00ab9f6b793d6f
     Pseudo is Ultrasoft, Zval =  1.0
     Generated by new atomic code, or converted to UPF format
     Using radial grid of  615 points,  2 beta functions with: 
                l(1) =   0
                l(2) =   0
     Q(r) pseudized with  8 coefficients,  rinner =    0.700

     atomic species   valence    mass     pseudopotential
        Be             4.00     9.01218     Be( 1.00)
        W             14.00   183.84000     W ( 1.00)
        H              1.00     2.01400     H ( 1.00)

     Starting magnetic structure 
     atomic species   magnetization
        Be           0.000
        W            0.000
        H            0.000

     No symmetry found



   Cartesian axes

     site n.     atom                  positions (alat units)
         1           Be  tau(   1) = (   0.3052002   0.1753336   0.1753336  )
         2           Be  tau(   2) = (   0.3052002   0.1753336   0.6024006  )
         3           Be  tau(   3) = (   0.1753336   0.4002691   0.1753336  )
         4           Be  tau(   4) = (   0.1753336   0.4002691   0.6024006  )
         5           Be  tau(   5) = (   0.5649333   0.1753336   0.1753336  )
         6           Be  tau(   6) = (   0.5649333   0.1753336   0.6024006  )
         7           Be  tau(   7) = (   0.4350667   0.4002691   0.1753336  )
         8           Be  tau(   8) = (   0.4350667   0.4002691   0.6024006  )
         9           Be  tau(   9) = (   0.8246664   0.1753336   0.1753336  )
        10           Be  tau(  10) = (   0.8246664   0.1753336   0.6024006  )
        11           Be  tau(  11) = (   0.6947998   0.4002691   0.1753336  )
        12           Be  tau(  12) = (   0.6947998   0.4002691   0.6024006  )
        13           Be  tau(  13) = (   0.3052002   0.1753336   0.3888671  )
        14           Be  tau(  14) = (   0.1753336   0.4002691   0.3888671  )
        15           Be  tau(  15) = (   0.5649333   0.1753336   0.3888671  )
        16           Be  tau(  16) = (   0.4350667   0.4002691   0.3888671  )
        17           Be  tau(  17) = (   0.8246664   0.1753336   0.3888671  )
        18           Be  tau(  18) = (   0.6947998   0.4002691   0.3888671  )
        19           Be  tau(  19) = (   0.4350667   0.3237532   0.2821004  )
        20           Be  tau(  20) = (   0.6947998   0.3237532   0.2821004  )
        21           Be  tau(  21) = (   0.2415983   0.3620112   0.4956338  )
        22           Be  tau(  22) = (   0.5013314   0.3620112   0.4956338  )
        23           Be  tau(  23) = (   0.3688021   0.3620112   0.4956338  )
        24           Be  tau(  24) = (   0.6285351   0.3620112   0.4956338  )
        25           Be  tau(  25) = (   0.3714649   0.2135916   0.2821004  )
        26           Be  tau(  26) = (   0.6311979   0.2135916   0.2821004  )
        27           Be  tau(  27) = (   0.4986686   0.2135916   0.2821004  )
        28           Be  tau(  28) = (   0.7584017   0.2135916   0.2821004  )
        29           Be  tau(  29) = (   0.3052002   0.2518495   0.4956338  )
        30           Be  tau(  30) = (   0.5649333   0.2518495   0.4956338  )
        31           W   tau(  31) = (   0.3052002   0.3252906   0.2023523  )
        32           W   tau(  32) = (   0.5649333   0.3252906   0.2023523  )
        33           W   tau(  33) = (   0.4350667   0.2503121   0.4158858  )
        34           W   tau(  34) = (   0.6947998   0.2503121   0.4158858  )
        35           W   tau(  35) = (   0.4350667   0.2503121   0.5753819  )
        36           W   tau(  36) = (   0.6947998   0.2503121   0.5753819  )
        37           W   tau(  37) = (   0.3052002   0.3252906   0.3618484  )
        38           W   tau(  38) = (   0.5649333   0.3252906   0.3618484  )
        39           H   tau(  39) = (   0.4350667   0.5727566   0.3574413  )

     number of k points=     1  Gaussian smearing, width (Ry)=  0.0220
                       cart. coord. in units 2pi/alat
        k(    1) = (   0.0000000   0.0000000   0.0000000), wk =   1.0000000

     Dense  grid:  1343620 G-vectors     FFT dimensions: ( 225, 135, 180)

     Estimated max dynamical RAM per process >       1.14 GB

     Estimated total dynamical RAM >      13.73 GB
