
     Program PWSCF v.7.2 starts on 14Jun2023 at 19:30: 6 

     This program is part of the open-source Quantum ESPRESSO suite
     for quantum simulation of materials; please cite
         "P. Giannozzi et al., J. Phys.:Condens. Matter 21 395502 (2009);
         "P. Giannozzi et al., J. Phys.:Condens. Matter 29 465901 (2017);
         "P. Giannozzi et al., J. Chem. Phys. 152 154105 (2020);
          URL http://www.quantum-espresso.org", 
     in publications or presentations arising from this work. More details at
     http://www.quantum-espresso.org/quote

     Parallel version (MPI), running on    42 processors

     MPI processes distributed on     1 nodes
     175325 MiB available memory on the printing compute node when the environment starts

     Reading input from md_data/md_Be18W4H_15steps_1000eV_incident0_polar0.in
Warning: card &CELL ignored
Warning: card / ignored

     Current dimensions of program PWSCF are:
     Max number of different atomic species (ntypx) = 10
     Max number of k-points (npk) =  40000
     Max angular momentum in pseudopotentials (lmaxx) =  4

     File outdir/pwscf.md deleted, as requested

     gamma-point specific algorithms are used

     R & G space division:  proc/nbgrp/npool/nimage =      42
     Subspace diagonalization in iterative solution of the eigenvalue problem:
     a serial algorithm will be used


     Parallelization info
     --------------------
     sticks:   dense  smooth     PW     G-vecs:    dense   smooth      PW
     Min         380     380     93                37920    37920    4735
     Max         382     382     96                37934    37934    4744
     Sum       16037   16037   4019              1593089  1593089  199133

     Using Slab Decomposition



     bravais-lattice index     =            0
     lattice parameter (alat)  =      20.1561  a.u.
     unit-cell volume          =    8970.6078 (a.u.)^3
     number of atoms/cell      =           23
     number of atomic types    =            3
     number of electrons       =       129.00
     number of Kohn-Sham states=           78
     kinetic-energy cutoff     =     120.0000  Ry
     charge density cutoff     =     480.0000  Ry
     scf convergence threshold =      1.0E-03
     mixing beta               =       0.7000
     number of iterations used =            8  TF        mixing
     energy convergence thresh.=      0.0E+00
     force convergence thresh. =      0.0E+00
     Exchange-correlation=  SLA  PW   PBX  PBC
                           (   1   4   3   4   0   0   0)
     nstep                     =           15


     celldm(1)=  20.156086  celldm(2)=   0.000000  celldm(3)=   0.000000
     celldm(4)=   0.000000  celldm(5)=   0.000000  celldm(6)=   0.000000

     crystal axes: (cart. coord. in units of alat)
               a(1) = (   1.000000   0.000000   0.000000 )  
               a(2) = (   0.000000   1.033368   0.000000 )  
               a(3) = (   0.000000   0.000000   1.060104 )  

     reciprocal axes: (cart. coord. in units 2 pi/alat)
               b(1) = (  1.000000  0.000000  0.000000 )  
               b(2) = (  0.000000  0.967710  0.000000 )  
               b(3) = (  0.000000  0.000000  0.943304 )  


     PseudoPot. # 1 for Be read from file:
     q-e/pseudo/be_pbe_v1.4.uspp.F.UPF
     MD5 check sum: 5ecff1440924c7c98ad504bef30f5264
     Pseudo is Ultrasoft, Zval =  4.0
     Generated by new atomic code, or converted to UPF format
     Using radial grid of  769 points,  6 beta functions with: 
                l(1) =   0
                l(2) =   0
                l(3) =   0
                l(4) =   1
                l(5) =   1
                l(6) =   2
     Q(r) pseudized with 10 coefficients,  rinner =    1.000   1.000   1.000
                                                       1.000   1.000

     PseudoPot. # 2 for W  read from file:
     q-e/pseudo/w_pbe_v1.2.uspp.F.UPF
     MD5 check sum: 9c083fa34c2a2ea0f02f1f893e16e1c8
     Pseudo is Ultrasoft + core correction, Zval = 14.0
     Generated by new atomic code, or converted to UPF format
     Using radial grid of  923 points,  8 beta functions with: 
                l(1) =   0
                l(2) =   0
                l(3) =   0
                l(4) =   1
                l(5) =   1
                l(6) =   2
                l(7) =   2
                l(8) =   3
     Q(r) pseudized with  6 coefficients,  rinner =    1.350   1.350   1.350
                                                       1.350   1.350   1.350
                                                       1.350

     PseudoPot. # 3 for H  read from file:
     q-e/pseudo/h_pbe_v1.4.uspp.F.UPF
     MD5 check sum: 761ae9a214b05c3daf00ab9f6b793d6f
     Pseudo is Ultrasoft, Zval =  1.0
     Generated by new atomic code, or converted to UPF format
     Using radial grid of  615 points,  2 beta functions with: 
                l(1) =   0
                l(2) =   0
     Q(r) pseudized with  8 coefficients,  rinner =    0.700

     atomic species   valence    mass     pseudopotential
        Be             4.00     9.01218     Be( 1.00)
        W             14.00   183.84000     W ( 1.00)
        H              1.00     2.01400     H ( 1.00)

     Starting magnetic structure 
     atomic species   magnetization
        Be           0.000
        W            0.000
        H            0.000

     No symmetry found



   Cartesian axes

     site n.     atom                  positions (alat units)
         1           Be  tau(   1) = (   0.3958364   0.1875092   0.1875092  )
         2           Be  tau(   2) = (   0.3958364   0.1875092   0.8725945  )
         3           Be  tau(   3) = (   0.1875092   0.5483425   0.1875092  )
         4           Be  tau(   4) = (   0.1875092   0.5483425   0.8725945  )
         5           Be  tau(   5) = (   0.8124908   0.1875092   0.1875092  )
         6           Be  tau(   6) = (   0.8124908   0.1875092   0.8725945  )
         7           Be  tau(   7) = (   0.6041636   0.5483425   0.1875092  )
         8           Be  tau(   8) = (   0.6041636   0.5483425   0.8725945  )
         9           Be  tau(   9) = (   0.3958364   0.1875092   0.5300518  )
        10           Be  tau(  10) = (   0.1875092   0.5483425   0.5300518  )
        11           Be  tau(  11) = (   0.8124908   0.1875092   0.5300518  )
        12           Be  tau(  12) = (   0.6041636   0.5483425   0.5300518  )
        13           Be  tau(  13) = (   0.6041636   0.4255985   0.3587805  )
        14           Be  tau(  14) = (   0.2938086   0.4869705   0.7013231  )
        15           Be  tau(  15) = (   0.4978642   0.4869705   0.7013231  )
        16           Be  tau(  16) = (   0.5021358   0.2488812   0.3587805  )
        17           Be  tau(  17) = (   0.7061914   0.2488812   0.3587805  )
        18           Be  tau(  18) = (   0.3958364   0.3102532   0.7013231  )
        19           W   tau(  19) = (   0.3958364   0.4280647   0.2308516  )
        20           W   tau(  20) = (   0.6041636   0.3077870   0.5733943  )
        21           W   tau(  21) = (   0.6041636   0.3077870   0.8292520  )
        22           W   tau(  22) = (   0.3958364   0.4280647   0.4867094  )
        23           H   tau(  23) = (   0.6041636   0.8458586   0.5300518  )

     number of k points=     1  Gaussian smearing, width (Ry)=  0.0220
                       cart. coord. in units 2pi/alat
        k(    1) = (   0.0000000   0.0000000   0.0000000), wk =   1.0000000

     Dense  grid:   796545 G-vectors     FFT dimensions: ( 144, 150, 150)

     Estimated max dynamical RAM per process >     183.11 MB

     Estimated total dynamical RAM >       7.51 GB
     Generating pointlists ...
     new r_m :   0.0842 (alat units)  1.6966 (a.u.) for type    1
     new r_m :   0.1008 (alat units)  2.0323 (a.u.) for type    2
     new r_m :   0.1227 (alat units)  2.4737 (a.u.) for type    3

     Initial potential from superposition of free atoms

     starting charge     128.5958, renormalised to     129.0000

     negative rho (up, down):  1.276E-01 1.276E-01
     Starting wfcs are  143 randomized atomic wfcs

     total cpu time spent up to now is        9.0 secs

     Self-consistent Calculation

     iteration #  1     ecut=   120.00 Ry     beta= 0.70
     Davidson diagonalization with overlap
     ethr =  1.00E-02,  avg # of iterations =  2.0

     negative rho (up, down):  1.368E-01 1.369E-01

     total cpu time spent up to now is       21.4 secs

     total energy              =   -1141.98874067 Ry
     estimated scf accuracy    <       7.62105877 Ry

     total magnetization       =     0.00 Bohr mag/cell
     absolute magnetization    =     0.05 Bohr mag/cell

     iteration #  2     ecut=   120.00 Ry     beta= 0.70
     Davidson diagonalization with overlap
     ethr =  5.91E-03,  avg # of iterations =  2.0

     negative rho (up, down):  1.328E-01 1.329E-01

     total cpu time spent up to now is       31.7 secs

     total energy              =   -1141.98565940 Ry
     estimated scf accuracy    <       1.89579845 Ry

     total magnetization       =     0.00 Bohr mag/cell
     absolute magnetization    =     0.11 Bohr mag/cell

     iteration #  3     ecut=   120.00 Ry     beta= 0.70
     Davidson diagonalization with overlap
     ethr =  1.47E-03,  avg # of iterations =  5.0

     negative rho (up, down):  1.323E-01 1.324E-01

     total cpu time spent up to now is       43.5 secs

     total energy              =   -1142.20895962 Ry
     estimated scf accuracy    <       1.66454935 Ry

     total magnetization       =     0.00 Bohr mag/cell
     absolute magnetization    =     0.11 Bohr mag/cell

     iteration #  4     ecut=   120.00 Ry     beta= 0.70
     Davidson diagonalization with overlap
     ethr =  1.29E-03,  avg # of iterations =  2.0

     negative rho (up, down):  1.340E-01 1.341E-01

     total cpu time spent up to now is       54.6 secs

     total energy              =   -1142.32034184 Ry
     estimated scf accuracy    <       0.87444387 Ry

     total magnetization       =     0.00 Bohr mag/cell
     absolute magnetization    =     0.11 Bohr mag/cell

     iteration #  5     ecut=   120.00 Ry     beta= 0.70
     Davidson diagonalization with overlap
     ethr =  6.78E-04,  avg # of iterations =  1.0

     negative rho (up, down):  1.347E-01 1.346E-01

     total cpu time spent up to now is       64.3 secs

     total energy              =   -1142.33773288 Ry
     estimated scf accuracy    <       0.14265245 Ry

     total magnetization       =     0.00 Bohr mag/cell
     absolute magnetization    =     0.09 Bohr mag/cell

     iteration #  6     ecut=   120.00 Ry     beta= 0.70
     Davidson diagonalization with overlap
     ethr =  1.11E-04,  avg # of iterations = 11.5

     negative rho (up, down):  1.346E-01 1.346E-01

     total cpu time spent up to now is       83.1 secs

     total energy              =   -1142.36290952 Ry
     estimated scf accuracy    <       0.25834713 Ry

     total magnetization       =    -0.00 Bohr mag/cell
     absolute magnetization    =     0.06 Bohr mag/cell

     iteration #  7     ecut=   120.00 Ry     beta= 0.70
     Davidson diagonalization with overlap
     ethr =  1.11E-04,  avg # of iterations =  2.0

     negative rho (up, down):  1.341E-01 1.341E-01

     total cpu time spent up to now is      106.4 secs

     total energy              =   -1142.36557470 Ry
     estimated scf accuracy    <       0.02931075 Ry

     total magnetization       =    -0.00 Bohr mag/cell
     absolute magnetization    =     0.06 Bohr mag/cell

     iteration #  8     ecut=   120.00 Ry     beta= 0.70
     Davidson diagonalization with overlap
     c_bands:  1 eigenvalues not converged
     ethr =  2.27E-05,  avg # of iterations = 13.0

     negative rho (up, down):  1.344E-01 1.343E-01

     total cpu time spent up to now is      135.0 secs

     total energy              =   -1142.36732030 Ry
     estimated scf accuracy    <       0.07192616 Ry

     total magnetization       =    -0.01 Bohr mag/cell
     absolute magnetization    =     0.05 Bohr mag/cell

     iteration #  9     ecut=   120.00 Ry     beta= 0.70
     Davidson diagonalization with overlap
     ethr =  2.27E-05,  avg # of iterations =  2.0

     negative rho (up, down):  1.344E-01 1.343E-01

     total cpu time spent up to now is      157.7 secs

     total energy              =   -1142.36934478 Ry
     estimated scf accuracy    <       0.01344275 Ry

     total magnetization       =    -0.01 Bohr mag/cell
     absolute magnetization    =     0.06 Bohr mag/cell

     iteration # 10     ecut=   120.00 Ry     beta= 0.70
     Davidson diagonalization with overlap
     ethr =  1.04E-05,  avg # of iterations =  2.0

     negative rho (up, down):  1.342E-01 1.343E-01

     total cpu time spent up to now is      168.1 secs

     total energy              =   -1142.37046718 Ry
     estimated scf accuracy    <       0.00899958 Ry

     total magnetization       =    -0.02 Bohr mag/cell
     absolute magnetization    =     0.07 Bohr mag/cell

     iteration # 11     ecut=   120.00 Ry     beta= 0.70
     Davidson diagonalization with overlap
     ethr =  6.98E-06,  avg # of iterations =  2.5

     negative rho (up, down):  1.341E-01 1.341E-01

     total cpu time spent up to now is      179.5 secs

     total energy              =   -1142.37196995 Ry
     estimated scf accuracy    <       0.00420535 Ry

     total magnetization       =    -0.05 Bohr mag/cell
     absolute magnetization    =     0.11 Bohr mag/cell

     iteration # 12     ecut=   120.00 Ry     beta= 0.70
     Davidson diagonalization with overlap
     c_bands:  1 eigenvalues not converged
     ethr =  3.26E-06,  avg # of iterations = 15.5

     negative rho (up, down):  1.341E-01 1.341E-01

     total cpu time spent up to now is      191.9 secs

     total energy              =   -1142.37291411 Ry
     estimated scf accuracy    <       0.00288880 Ry

     total magnetization       =    -0.11 Bohr mag/cell
     absolute magnetization    =     0.17 Bohr mag/cell

     iteration # 13     ecut=   120.00 Ry     beta= 0.70
     Davidson diagonalization with overlap
     ethr =  2.24E-06,  avg # of iterations =  4.0

     negative rho (up, down):  1.341E-01 1.341E-01

     total cpu time spent up to now is      203.5 secs

     total energy              =   -1142.37532289 Ry
     estimated scf accuracy    <       0.00231644 Ry

     total magnetization       =    -0.23 Bohr mag/cell
     absolute magnetization    =     0.33 Bohr mag/cell

     iteration # 14     ecut=   120.00 Ry     beta= 0.70
     Davidson diagonalization with overlap
     ethr =  1.80E-06,  avg # of iterations =  6.0

     negative rho (up, down):  1.340E-01 1.341E-01

     total cpu time spent up to now is      215.3 secs

     total energy              =   -1142.37675181 Ry
     estimated scf accuracy    <       0.00980496 Ry

     total magnetization       =    -0.50 Bohr mag/cell
     absolute magnetization    =     0.67 Bohr mag/cell

     iteration # 15     ecut=   120.00 Ry     beta= 0.70
     Davidson diagonalization with overlap
     ethr =  1.80E-06,  avg # of iterations =  1.5

     negative rho (up, down):  1.341E-01 1.341E-01

     total cpu time spent up to now is      225.3 secs

     total energy              =   -1142.37322098 Ry
     estimated scf accuracy    <       0.00739252 Ry

     total magnetization       =    -0.46 Bohr mag/cell
     absolute magnetization    =     0.62 Bohr mag/cell

     iteration # 16     ecut=   120.00 Ry     beta= 0.70
     Davidson diagonalization with overlap
     ethr =  1.80E-06,  avg # of iterations =  4.5

     negative rho (up, down):  1.340E-01 1.340E-01

     total cpu time spent up to now is      236.6 secs

     total energy              =   -1142.37550662 Ry
     estimated scf accuracy    <       0.00176355 Ry

     total magnetization       =    -0.28 Bohr mag/cell
     absolute magnetization    =     0.40 Bohr mag/cell

     iteration # 17     ecut=   120.00 Ry     beta= 0.70
     Davidson diagonalization with overlap
     ethr =  1.37E-06,  avg # of iterations =  3.5

     negative rho (up, down):  1.340E-01 1.340E-01

     total cpu time spent up to now is      258.6 secs

     total energy              =   -1142.37149746 Ry
     estimated scf accuracy    <       0.00575828 Ry

     total magnetization       =    -0.39 Bohr mag/cell
     absolute magnetization    =     0.53 Bohr mag/cell

     iteration # 18     ecut=   120.00 Ry     beta= 0.70
     Davidson diagonalization with overlap
     ethr =  1.37E-06,  avg # of iterations =  6.0

     negative rho (up, down):  1.340E-01 1.340E-01

     total cpu time spent up to now is      284.4 secs

     total energy              =   -1142.37261847 Ry
     estimated scf accuracy    <       0.00564678 Ry

     total magnetization       =    -0.07 Bohr mag/cell
     absolute magnetization    =     0.12 Bohr mag/cell

     iteration # 19     ecut=   120.00 Ry     beta= 0.70
     Davidson diagonalization with overlap
     ethr =  1.37E-06,  avg # of iterations =  6.5

     negative rho (up, down):  1.340E-01 1.340E-01

     total cpu time spent up to now is      310.1 secs

     total energy              =   -1142.37475372 Ry
     estimated scf accuracy    <       0.01460376 Ry

     total magnetization       =     0.31 Bohr mag/cell
     absolute magnetization    =     0.41 Bohr mag/cell

     iteration # 20     ecut=   120.00 Ry     beta= 0.70
     Davidson diagonalization with overlap
     ethr =  1.37E-06,  avg # of iterations =  2.0

     negative rho (up, down):  1.340E-01 1.340E-01

     total cpu time spent up to now is      324.6 secs

     total energy              =   -1142.37512461 Ry
     estimated scf accuracy    <       0.01248071 Ry

     total magnetization       =     0.18 Bohr mag/cell
     absolute magnetization    =     0.26 Bohr mag/cell

     iteration # 21     ecut=   120.00 Ry     beta= 0.70
     Davidson diagonalization with overlap
     ethr =  1.37E-06,  avg # of iterations =  1.0

     negative rho (up, down):  1.340E-01 1.340E-01

     total cpu time spent up to now is      334.9 secs

     total energy              =   -1142.37492413 Ry
     estimated scf accuracy    <       0.01335538 Ry

     total magnetization       =     0.17 Bohr mag/cell
     absolute magnetization    =     0.25 Bohr mag/cell

     iteration # 22     ecut=   120.00 Ry     beta= 0.70
     Davidson diagonalization with overlap
     ethr =  1.37E-06,  avg # of iterations =  2.0

     negative rho (up, down):  1.340E-01 1.340E-01

     total cpu time spent up to now is      345.8 secs

     total energy              =   -1142.37534689 Ry
     estimated scf accuracy    <       0.01316303 Ry

     total magnetization       =     0.12 Bohr mag/cell
     absolute magnetization    =     0.19 Bohr mag/cell

     iteration # 23     ecut=   120.00 Ry     beta= 0.70
     Davidson diagonalization with overlap
     ethr =  1.37E-06,  avg # of iterations =  1.5

     negative rho (up, down):  1.340E-01 1.340E-01

     total cpu time spent up to now is      356.0 secs

     total energy              =   -1142.37363988 Ry
     estimated scf accuracy    <       0.02445321 Ry

     total magnetization       =     0.09 Bohr mag/cell
     absolute magnetization    =     0.16 Bohr mag/cell

     iteration # 24     ecut=   120.00 Ry     beta= 0.70
     Davidson diagonalization with overlap
     ethr =  1.37E-06,  avg # of iterations =  4.0

     negative rho (up, down):  1.341E-01 1.341E-01

     total cpu time spent up to now is      367.1 secs

     total energy              =   -1142.37457650 Ry
     estimated scf accuracy    <       0.00318119 Ry

     total magnetization       =    -0.01 Bohr mag/cell
     absolute magnetization    =     0.05 Bohr mag/cell

     iteration # 25     ecut=   120.00 Ry     beta= 0.70
     Davidson diagonalization with overlap
     ethr =  1.37E-06,  avg # of iterations =  1.5

     negative rho (up, down):  1.341E-01 1.341E-01

     total cpu time spent up to now is      377.3 secs

     total energy              =   -1142.37419739 Ry
     estimated scf accuracy    <       0.00596000 Ry

     total magnetization       =     0.02 Bohr mag/cell
     absolute magnetization    =     0.09 Bohr mag/cell

     iteration # 26     ecut=   120.00 Ry     beta= 0.70
     Davidson diagonalization with overlap
     ethr =  1.37E-06,  avg # of iterations =  1.0

     negative rho (up, down):  1.341E-01 1.341E-01

     Magnetic moment per site  (integrated on atomic sphere of radius R)
     atom   1 (R=0.084)  charge=  2.6244  magn= -0.0001
     atom   2 (R=0.084)  charge=  2.6240  magn= -0.0002
     atom   3 (R=0.084)  charge=  2.5875  magn= -0.0005
     atom   4 (R=0.084)  charge=  2.5719  magn=  0.0020
     atom   5 (R=0.084)  charge=  2.5715  magn=  0.0006
     atom   6 (R=0.084)  charge=  2.5869  magn= -0.0004
     atom   7 (R=0.084)  charge=  2.6217  magn=  0.0005
     atom   8 (R=0.084)  charge=  2.6219  magn= -0.0010
     atom   9 (R=0.084)  charge=  2.6876  magn=  0.0000
     atom  10 (R=0.084)  charge=  2.6126  magn= -0.0014
     atom  11 (R=0.084)  charge=  2.6100  magn=  0.0001
     atom  12 (R=0.084)  charge=  2.6760  magn= -0.0005
     atom  13 (R=0.084)  charge=  2.8768  magn=  0.0002
     atom  14 (R=0.084)  charge=  2.8096  magn=  0.0005
     atom  15 (R=0.084)  charge=  2.8748  magn=  0.0001
     atom  16 (R=0.084)  charge=  2.8755  magn=  0.0000
     atom  17 (R=0.084)  charge=  2.8089  magn=  0.0001
     atom  18 (R=0.084)  charge=  2.8766  magn=  0.0001
     atom  19 (R=0.101)  charge= 10.9057  magn= -0.0016
     atom  20 (R=0.101)  charge= 10.9176  magn= -0.0001
     atom  21 (R=0.101)  charge= 10.9046  magn= -0.0075
     atom  22 (R=0.101)  charge= 10.9207  magn= -0.0004
     atom  23 (R=0.123)  charge=  1.0688  magn=  0.0318

     total cpu time spent up to now is      387.1 secs

     End of self-consistent calculation

 ------ SPIN UP ------------


          k = 0.0000 0.0000 0.0000 ( 99567 PWs)   bands (ev):

  -103.9130-103.9071-103.5077-103.4808-103.3314-103.3307-103.0198-102.9985
  -102.9772-102.9645-102.6105-102.5469-101.2212-101.2048-100.7208-100.7047
  -100.6992-100.6991 -75.2802 -75.2513 -75.2159 -75.2039 -39.7444 -39.5896
   -39.5408 -39.4691 -39.4192 -39.3598 -39.3503 -39.3401 -39.3365 -39.2691
   -39.1340 -39.1135  -8.2057  -6.8711  -6.0093  -5.8119  -5.5019  -5.2314
    -4.8893  -4.8783  -4.4029  -4.1907  -4.1446  -3.9433  -3.7811  -3.4863
    -3.4029  -3.1854  -3.0556  -2.7697  -2.7428  -2.5227  -2.4389  -2.4304
    -2.3033  -2.0960  -2.0657  -1.7940  -1.7454  -1.6805  -1.6219  -1.5224
    -1.3467  -1.3349  -1.2650  -1.1811  -1.0205  -0.8008  -0.7960  -0.6694
    -0.5927  -0.4369  -0.4089  -0.3795  -0.1709  -0.1151

 ------ SPIN DOWN ----------


          k = 0.0000 0.0000 0.0000 ( 99567 PWs)   bands (ev):

  -103.9126-103.9054-103.5076-103.4821-103.3317-103.3312-103.0206-102.9980
  -102.9771-102.9645-102.6105-102.5476-101.2211-101.2045-100.7207-100.7046
  -100.6991-100.6991 -75.2806 -75.2519 -75.2191 -75.2047 -39.7450 -39.5914
   -39.5423 -39.4699 -39.4201 -39.3643 -39.3535 -39.3436 -39.3369 -39.2699
   -39.1354 -39.1146  -8.2059  -6.8712  -6.0096  -5.8123  -5.5027  -5.2315
    -4.8898  -4.8789  -4.4040  -4.1910  -4.1453  -3.9416  -3.7825  -3.4853
    -3.4043  -3.1862  -3.0564  -2.7704  -2.7432  -2.5241  -2.4390  -2.4312
    -2.3041  -2.0964  -2.0630  -1.7946  -1.7412  -1.6795  -1.6093  -1.5241
    -1.3473  -1.3326  -1.2647  -1.1800  -1.0213  -0.7985  -0.7953  -0.6690
    -0.5943  -0.4375  -0.4114  -0.3789  -0.1722  -0.1164

     the Fermi energy is    -1.4107 ev

!    total energy              =   -1142.37434973 Ry
     estimated scf accuracy    <       0.00019592 Ry
     smearing contrib. (-TS)   =      -0.07307902 Ry
     internal energy E=F+TS    =   -1142.30127072 Ry

     total magnetization       =     0.02 Bohr mag/cell
     absolute magnetization    =     0.09 Bohr mag/cell

     convergence has been achieved in  26 iterations

     negative rho (up, down):  1.341E-01 1.341E-01

     Forces acting on atoms (cartesian axes, Ry/au):

     atom    1 type  1   force =     0.00136253    0.04953260    0.01532718
     atom    2 type  1   force =     0.04166644    0.02628731   -0.01512797
     atom    3 type  1   force =     0.03450129   -0.02041227    0.01027657
     atom    4 type  1   force =     0.01267241   -0.00781223   -0.00991811
     atom    5 type  1   force =    -0.01277807    0.00729523    0.00996600
     atom    6 type  1   force =    -0.03466889    0.02085774   -0.01044590
     atom    7 type  1   force =    -0.04121241   -0.02555473    0.01489476
     atom    8 type  1   force =    -0.00015581   -0.04858609   -0.01428605
     atom    9 type  1   force =     0.03621091    0.05703035   -0.00053786
     atom   10 type  1   force =     0.04224848   -0.02430785   -0.00232442
     atom   11 type  1   force =    -0.04334175    0.02275749    0.00241665
     atom   12 type  1   force =    -0.02880504   -0.02075776    0.00037290
     atom   13 type  1   force =    -0.02923380    0.00131912   -0.00108916
     atom   14 type  1   force =    -0.00814270    0.00611973   -0.02137449
     atom   15 type  1   force =     0.01475452   -0.02543960   -0.00051312
     atom   16 type  1   force =    -0.01763726    0.02173714    0.00179047
     atom   17 type  1   force =     0.00916197   -0.00560805    0.02144633
     atom   18 type  1   force =     0.02768153   -0.00545253   -0.00077021
     atom   19 type  2   force =     0.04980742   -0.02719307    0.07452590
     atom   20 type  2   force =    -0.03581186    0.02277913   -0.00808653
     atom   21 type  2   force =    -0.04915846    0.03005565   -0.07533407
     atom   22 type  2   force =     0.02818299   -0.03049553    0.00881010
     atom   23 type  3   force =     0.00269555   -0.02415177   -0.00001897
     The non-local contrib.  to forces
     atom    1 type  1   force =    -0.04746665   -0.24135320   -0.12601152
     atom    2 type  1   force =    -0.18122585   -0.16663279    0.12021558
     atom    3 type  1   force =    -0.22120244    0.13080806    0.02854567
     atom    4 type  1   force =    -0.10530936    0.06431552    0.24488582
     atom    5 type  1   force =     0.10589620   -0.06434849   -0.24547424
     atom    6 type  1   force =     0.22152188   -0.13390858   -0.02881279
     atom    7 type  1   force =     0.18466675    0.17797493   -0.11810596
     atom    8 type  1   force =     0.04980057    0.25363045    0.12099658
     atom    9 type  1   force =    -0.17855667   -0.32215114    0.00251166
     atom   10 type  1   force =    -0.26068894    0.15748578   -0.10840566
     atom   11 type  1   force =     0.25970822   -0.16823022    0.11054687
     atom   12 type  1   force =     0.16770832    0.30096439    0.00138860
     atom   13 type  1   force =     0.07574749    0.05093270   -0.02719185
     atom   14 type  1   force =    -0.12962215    0.06354634    0.09482540
     atom   15 type  1   force =     0.00422757    0.09563313    0.03193724
     atom   16 type  1   force =    -0.00180451   -0.09442517   -0.03025045
     atom   17 type  1   force =     0.12690149   -0.06579104   -0.09514186
     atom   18 type  1   force =    -0.07743251   -0.05530128    0.02796618
     atom   19 type  2   force =    -0.06322059    0.02803924   -0.26127983
     atom   20 type  2   force =     0.11169256   -0.06205655   -0.04673064
     atom   21 type  2   force =     0.06064958   -0.02694729    0.26117750
     atom   22 type  2   force =    -0.11860348    0.05713660    0.04474577
     atom   23 type  3   force =     0.00083890   -0.00389834   -0.00002640
     The ionic contribution  to forces
     atom    1 type  1   force =    -2.85574286   -7.89607764   -4.32758615
     atom    2 type  1   force =    -5.12247176   -6.59724830    4.32646174
     atom    3 type  1   force =    -5.82286230    4.33056965   -2.59855360
     atom    4 type  1   force =    -3.71872963    3.16908806    2.77266733
     atom    5 type  1   force =     3.72628473   -3.16356538   -2.77977960
     atom    6 type  1   force =     5.83041734   -4.32504730    2.60566631
     atom    7 type  1   force =     5.10399099    6.57481356   -4.35066184
     atom    8 type  1   force =     2.83726152    7.87364340    4.35178702
     atom    9 type  1   force =    -6.50368357  -11.55056017    0.00123558
     atom   10 type  1   force =    -7.55566279    5.48697785   -0.09472801
     atom   11 type  1   force =     7.57388427   -5.46074036    0.09472752
     atom   12 type  1   force =     6.46106442   11.41643352   -0.00123641
     atom   13 type  1   force =     8.15929758    4.63834920   -5.25746925
     atom   14 type  1   force =    -6.88729609    4.49531345    4.80205153
     atom   15 type  1   force =    -0.23996578    9.61459956    5.26245769
     atom   16 type  1   force =     0.19722636   -9.65034585   -5.24863051
     atom   17 type  1   force =     6.87376443   -4.49431865   -4.80824794
     atom   18 type  1   force =    -8.18131487   -4.67815464    5.24456638
     atom   19 type  2   force =   -10.98096226    6.96901116  -22.04535631
     atom   20 type  2   force =    20.85731171  -12.80027340    1.61418619
     atom   21 type  2   force =    10.91576837   -7.01815921   22.05255874
     atom   22 type  2   force =   -20.97368859   12.70375961   -1.61244313
     atom   23 type  3   force =     0.30610879    0.36193189   -0.00367331
     The local contribution  to forces
     atom    1 type  1   force =     2.90381792    8.18827597    4.46800141
     atom    2 type  1   force =     5.34553825    6.79131214   -4.46089339
     atom    3 type  1   force =     6.07805234   -4.48359547    2.57977527
     atom    4 type  1   force =     3.83567009   -3.24254442   -3.02704545
     atom    5 type  1   force =    -3.84394025    3.23675464    3.03446781
     atom    6 type  1   force =    -6.08647185    4.48197576   -2.58662351
     atom    7 type  1   force =    -5.32994032   -6.77945781    4.48281513
     atom    8 type  1   force =    -2.88639489   -8.17760667   -4.48639768
     atom    9 type  1   force =     6.71668266   11.93120564   -0.00430723
     atom   10 type  1   force =     7.85684727   -5.67024550    0.20067617
     atom   11 type  1   force =    -7.87456911    5.65368782   -0.20275776
     atom   12 type  1   force =    -6.65643388  -11.74020134    0.00047448
     atom   13 type  1   force =    -8.26388999   -4.68733256    5.28284343
     atom   14 type  1   force =     7.00802644   -4.55385164   -4.91719848
     atom   15 type  1   force =     0.25139760   -9.73656722   -5.29401287
     atom   16 type  1   force =    -0.21378196    9.76790676    5.27908756
     atom   17 type  1   force =    -6.99054579    4.55622177    4.92359515
     atom   18 type  1   force =     8.28599273    4.72858267   -5.27184119
     atom   19 type  2   force =    11.09473496   -7.02732147   22.41645422
     atom   20 type  2   force =   -21.00643123   12.89498615   -1.56940985
     atom   21 type  2   force =   -11.02553765    7.07983917  -22.42356458
     atom   22 type  2   force =    21.12357345  -12.79357109    1.57195060
     atom   23 type  3   force =    -0.30429885   -0.38257927    0.00375387
     The core correction contribution to forces
     atom    1 type  1   force =     0.00000000    0.00000000    0.00000000
     atom    2 type  1   force =     0.00000000    0.00000000    0.00000000
     atom    3 type  1   force =     0.00000000    0.00000000    0.00000000
     atom    4 type  1   force =     0.00000000    0.00000000    0.00000000
     atom    5 type  1   force =     0.00000000    0.00000000    0.00000000
     atom    6 type  1   force =     0.00000000    0.00000000    0.00000000
     atom    7 type  1   force =     0.00000000    0.00000000    0.00000000
     atom    8 type  1   force =     0.00000000    0.00000000    0.00000000
     atom    9 type  1   force =     0.00000000    0.00000000    0.00000000
     atom   10 type  1   force =     0.00000000    0.00000000    0.00000000
     atom   11 type  1   force =     0.00000000    0.00000000    0.00000000
     atom   12 type  1   force =     0.00000000    0.00000000    0.00000000
     atom   13 type  1   force =     0.00000000    0.00000000    0.00000000
     atom   14 type  1   force =     0.00000000    0.00000000    0.00000000
     atom   15 type  1   force =     0.00000000    0.00000000    0.00000000
     atom   16 type  1   force =     0.00000000    0.00000000    0.00000000
     atom   17 type  1   force =     0.00000000    0.00000000    0.00000000
     atom   18 type  1   force =     0.00000000    0.00000000    0.00000000
     atom   19 type  2   force =    -0.00222000    0.00220513   -0.03868723
     atom   20 type  2   force =     0.00342505   -0.00259080   -0.00281217
     atom   21 type  2   force =     0.00183996   -0.00200389    0.03862862
     atom   22 type  2   force =    -0.00404282    0.00152993    0.00279235
     atom   23 type  3   force =     0.00000000    0.00000000    0.00000000
     The Hubbard contrib.    to forces
     atom    1 type  1   force =     0.00000000    0.00000000    0.00000000
     atom    2 type  1   force =     0.00000000    0.00000000    0.00000000
     atom    3 type  1   force =     0.00000000    0.00000000    0.00000000
     atom    4 type  1   force =     0.00000000    0.00000000    0.00000000
     atom    5 type  1   force =     0.00000000    0.00000000    0.00000000
     atom    6 type  1   force =     0.00000000    0.00000000    0.00000000
     atom    7 type  1   force =     0.00000000    0.00000000    0.00000000
     atom    8 type  1   force =     0.00000000    0.00000000    0.00000000
     atom    9 type  1   force =     0.00000000    0.00000000    0.00000000
     atom   10 type  1   force =     0.00000000    0.00000000    0.00000000
     atom   11 type  1   force =     0.00000000    0.00000000    0.00000000
     atom   12 type  1   force =     0.00000000    0.00000000    0.00000000
     atom   13 type  1   force =     0.00000000    0.00000000    0.00000000
     atom   14 type  1   force =     0.00000000    0.00000000    0.00000000
     atom   15 type  1   force =     0.00000000    0.00000000    0.00000000
     atom   16 type  1   force =     0.00000000    0.00000000    0.00000000
     atom   17 type  1   force =     0.00000000    0.00000000    0.00000000
     atom   18 type  1   force =     0.00000000    0.00000000    0.00000000
     atom   19 type  2   force =     0.00000000    0.00000000    0.00000000
     atom   20 type  2   force =     0.00000000    0.00000000    0.00000000
     atom   21 type  2   force =     0.00000000    0.00000000    0.00000000
     atom   22 type  2   force =     0.00000000    0.00000000    0.00000000
     atom   23 type  3   force =     0.00000000    0.00000000    0.00000000
     The SCF correction term to forces
     atom    1 type  1   force =     0.00070940   -0.00136390    0.00096646
     atom    2 type  1   force =    -0.00021893   -0.00119511   -0.00086888
     atom    3 type  1   force =     0.00046896    0.00175412    0.00055225
     atom    4 type  1   force =     0.00099659    0.00127725   -0.00038280
     atom    5 type  1   force =    -0.00106349   -0.00159691    0.00079505
     atom    6 type  1   force =    -0.00018099   -0.00221350   -0.00063290
     atom    7 type  1   force =     0.00002544    0.00106322    0.00089044
     atom    8 type  1   force =    -0.00086773    0.00169537   -0.00062896
     atom    9 type  1   force =     0.00172376   -0.00151536    0.00006515
     atom   10 type  1   force =     0.00170821    0.00142266    0.00017610
     atom   11 type  1   force =    -0.00240985   -0.00201112   -0.00005697
     atom   12 type  1   force =    -0.00118863    0.00199431   -0.00021075
     atom   13 type  1   force =    -0.00043361   -0.00068160    0.00077154
     atom   14 type  1   force =     0.00070437    0.00106021   -0.00100993
     atom   15 type  1   force =    -0.00094960    0.00084356   -0.00085217
     atom   16 type  1   force =     0.00067811   -0.00144997    0.00162689
     atom   17 type  1   force =    -0.00100289   -0.00177149    0.00128400
     atom   18 type  1   force =     0.00039144   -0.00063065   -0.00141856
     atom   19 type  2   force =     0.00143057    0.00082150    0.00343807
     atom   20 type  2   force =    -0.00185468   -0.00733764   -0.00327704
     atom   21 type  2   force =    -0.00192344   -0.00272450   -0.00409133
     atom   22 type  2   force =     0.00089971    0.00059805    0.00180753
     atom   23 type  3   force =     0.00000198    0.00034258   -0.00003012

     Total force =     0.227283     Total SCF correction =     0.013704


     Computing stress (Cartesian axis) and pressure


     negative rho (up, down):  1.341E-01 1.341E-01
          total   stress  (Ry/bohr**3)                   (kbar)     P=      -35.84
  -0.00021464   0.00003263  -0.00001650          -31.57        4.80       -2.43
   0.00003263  -0.00018608   0.00001054            4.80      -27.37        1.55
  -0.00001650   0.00001054  -0.00033025           -2.43        1.55      -48.58


     Molecular Dynamics Calculation

     Starting temperature  =   300.00 K

     temperature is set once at start

     mass Be               =     9.01
     mass W                =   183.84
     mass H                =     2.01
     Time step             =     2.10 a.u.,  0.1016 femto-seconds

     Entering Dynamics:    iteration =     1
                           time      =   0.0001 pico-seconds


ATOMIC_POSITIONS (angstrom)
Be            4.2220472846        2.0007462673        2.0000021773
Be            4.2220530098        2.0007429652        9.3072135420
Be            2.0000049010        5.8494347894        2.0000014598
Be            2.0000018002        5.8494365793        9.3072142821
Be            8.6661394568        2.0007402673        2.0000014157
Be            8.6661363472        2.0007421939        9.3072142071
Be            6.4440883277        5.8494340589        2.0000021158
Be            6.4440941599        5.8494307872        9.3072136616
Be            4.2220522349        2.0007473323        5.6536077686
Be            2.0000060015        5.8494342360        5.6536075148
Be            8.6661351152        2.0007424638        5.6536081883
Be            6.4440900902        5.8494347403        5.6536078980
Be            6.4440898963        4.5402335924        3.8268037683
Be            3.1338031443        5.1948363014        7.4804087317
Be            5.3102921749        5.1948318183        7.4804116951
Be            5.3558488536        2.6553445178        3.8268041773
Be            7.5323382395        2.6553406334        3.8268069695
Be            4.2220510232        3.3099428545        7.4804116586
W             4.2220474378        4.5665380897        2.4622967700
W             6.4440939986        3.2836389137        6.1159042037
W             6.4440939057        3.2836389643        8.8449187514
W             4.2220472873        4.5665380667        5.1913117104
H             6.4440958954        8.6925786781        5.6536078289


     kinetic energy (Ekin) =          80.84984632 Ry
     temperature           =      386823.67009290 K 
     Ekin + Etot (const)   =       -1061.52450342 Ry
     Ions kinetic stress =          883.88 (kbar)
                                      0.00           0.00           0.00
                                      0.00        2651.64           0.00
                                      0.00           0.00           0.00



     Linear momentum :    0.0000000000    0.0000000000    0.0000000000

     File outdir/pwscf.msd.dat deleted, as requested

     Writing config-only to output data dir outdir/pwscf.save/
     NEW-OLD atomic charge density approx. for the potential

     negative rho (up, down):  1.341E-01 1.341E-01
     Generating pointlists ...
     new r_m :   0.1100 (alat units)  2.2163 (a.u.) for type    3

     total cpu time spent up to now is      412.6 secs

     Self-consistent Calculation

     iteration #  1     ecut=   120.00 Ry     beta= 0.70
     Davidson diagonalization with overlap
     ethr =  1.00E-06,  avg # of iterations =  8.0

     negative rho (up, down):  1.339E-01 1.339E-01

     total cpu time spent up to now is      454.4 secs

     total energy              =   -1142.38762715 Ry
     estimated scf accuracy    <       0.03746766 Ry

     total magnetization       =     0.01 Bohr mag/cell
     absolute magnetization    =     0.10 Bohr mag/cell

     iteration #  2     ecut=   120.00 Ry     beta= 0.70
     Davidson diagonalization with overlap
     ethr =  2.90E-05,  avg # of iterations =  2.5

     negative rho (up, down):  1.342E-01 1.342E-01

     total cpu time spent up to now is      478.5 secs

     total energy              =   -1142.38536993 Ry
     estimated scf accuracy    <       0.12020572 Ry

     total magnetization       =     0.06 Bohr mag/cell
     absolute magnetization    =     0.15 Bohr mag/cell

     iteration #  3     ecut=   120.00 Ry     beta= 0.70
     Davidson diagonalization with overlap
     ethr =  2.90E-05,  avg # of iterations =  2.0

     negative rho (up, down):  1.341E-01 1.341E-01

     total cpu time spent up to now is      489.8 secs

     total energy              =   -1142.39406109 Ry
     estimated scf accuracy    <       0.00755260 Ry

     total magnetization       =     0.04 Bohr mag/cell
     absolute magnetization    =     0.14 Bohr mag/cell

     iteration #  4     ecut=   120.00 Ry     beta= 0.70
     Davidson diagonalization with overlap
     ethr =  5.85E-06,  avg # of iterations =  2.0

     negative rho (up, down):  1.340E-01 1.341E-01

     total cpu time spent up to now is      500.6 secs

     total energy              =   -1142.39406577 Ry
     estimated scf accuracy    <       0.00397589 Ry

     total magnetization       =     0.06 Bohr mag/cell
     absolute magnetization    =     0.17 Bohr mag/cell

     iteration #  5     ecut=   120.00 Ry     beta= 0.70
     Davidson diagonalization with overlap
     ethr =  3.08E-06,  avg # of iterations =  2.0

     negative rho (up, down):  1.340E-01 1.341E-01

     total cpu time spent up to now is      510.9 secs

     total energy              =   -1142.39442488 Ry
     estimated scf accuracy    <       0.00193324 Ry

     total magnetization       =     0.10 Bohr mag/cell
     absolute magnetization    =     0.23 Bohr mag/cell

     iteration #  6     ecut=   120.00 Ry     beta= 0.70
     Davidson diagonalization with overlap
     ethr =  1.50E-06,  avg # of iterations =  3.5

     negative rho (up, down):  1.341E-01 1.341E-01

     Magnetic moment per site  (integrated on atomic sphere of radius R)
     atom   1 (R=0.084)  charge=  2.6255  magn= -0.0012
     atom   2 (R=0.084)  charge=  2.6253  magn= -0.0015
     atom   3 (R=0.084)  charge=  2.5879  magn=  0.0000
     atom   4 (R=0.084)  charge=  2.5715  magn=  0.0024
     atom   5 (R=0.084)  charge=  2.5713  magn=  0.0011
     atom   6 (R=0.084)  charge=  2.5875  magn=  0.0001
     atom   7 (R=0.084)  charge=  2.6222  magn=  0.0006
     atom   8 (R=0.084)  charge=  2.6226  magn= -0.0009
     atom   9 (R=0.084)  charge=  2.6881  magn= -0.0001
     atom  10 (R=0.084)  charge=  2.6125  magn= -0.0007
     atom  11 (R=0.084)  charge=  2.6106  magn=  0.0003
     atom  12 (R=0.084)  charge=  2.6713  magn= -0.0050
     atom  13 (R=0.084)  charge=  2.8768  magn=  0.0002
     atom  14 (R=0.084)  charge=  2.8095  magn=  0.0015
     atom  15 (R=0.084)  charge=  2.8742  magn=  0.0009
     atom  16 (R=0.084)  charge=  2.8757  magn= -0.0005
     atom  17 (R=0.084)  charge=  2.8089  magn= -0.0002
     atom  18 (R=0.084)  charge=  2.8768  magn= -0.0000
     atom  19 (R=0.101)  charge= 10.9026  magn=  0.0003
     atom  20 (R=0.101)  charge= 10.9226  magn= -0.0025
     atom  21 (R=0.101)  charge= 10.9021  magn= -0.0131
     atom  22 (R=0.101)  charge= 10.9248  magn=  0.0041
     atom  23 (R=0.110)  charge=  1.0061  magn=  0.1571

     total cpu time spent up to now is      521.8 secs

     End of self-consistent calculation

 ------ SPIN UP ------------


          k = 0.0000 0.0000 0.0000 ( 99567 PWs)   bands (ev):

  -103.9129-103.9048-103.4975-103.4815-103.3460-103.3433-103.0478-103.0117
  -102.9845-102.9833-102.5977-102.3496-101.2168-101.1982-100.7321-100.7095
  -100.7094-100.7040 -75.2860 -75.2539 -75.2044 -75.1903 -39.7482 -39.5844
   -39.5345 -39.4691 -39.4171 -39.3567 -39.3439 -39.3291 -39.3244 -39.2718
   -39.1329 -39.1091  -8.2018  -6.8728  -6.0085  -5.7964  -5.5020  -5.2270
    -4.8871  -4.8797  -4.4055  -4.1848  -4.1471  -3.9436  -3.7829  -3.4880
    -3.4040  -3.1852  -3.0587  -2.7686  -2.7424  -2.5190  -2.4666  -2.4310
    -2.2994  -2.1165  -2.0684  -1.8187  -1.7878  -1.6927  -1.6423  -1.5259
    -1.3434  -1.3428  -1.2730  -1.1810  -1.0229  -0.8018  -0.7958  -0.6337
    -0.5789  -0.4298  -0.4103  -0.3777  -0.1651  -0.1118

 ------ SPIN DOWN ----------


          k = 0.0000 0.0000 0.0000 ( 99567 PWs)   bands (ev):

  -103.9119-103.9028-103.4973-103.4826-103.3460-103.3435-103.0485-103.0112
  -102.9850-102.9840-102.5978-102.3532-101.2168-101.1974-100.7316-100.7095
  -100.7094-100.7040 -75.2866 -75.2536 -75.2106 -75.1907 -39.7482 -39.5873
   -39.5359 -39.4706 -39.4172 -39.3632 -39.3474 -39.3363 -39.3246 -39.2722
   -39.1363 -39.1102  -8.2018  -6.8730  -6.0083  -5.7981  -5.5037  -5.2270
    -4.8886  -4.8808  -4.4061  -4.1855  -4.1492  -3.9408  -3.7840  -3.4867
    -3.4066  -3.1862  -3.0567  -2.7691  -2.7432  -2.5220  -2.4495  -2.4314
    -2.3005  -2.0925  -2.0524  -1.7970  -1.7482  -1.6792  -1.5828  -1.5267
    -1.3433  -1.3261  -1.2580  -1.1787  -1.0234  -0.7978  -0.7947  -0.6263
    -0.5713  -0.4301  -0.4132  -0.3762  -0.1636  -0.1141

     the Fermi energy is    -1.4122 ev

!    total energy              =   -1142.39489854 Ry
     estimated scf accuracy    <       0.00043072 Ry
     smearing contrib. (-TS)   =      -0.07202460 Ry
     internal energy E=F+TS    =   -1142.32287394 Ry

     total magnetization       =     0.16 Bohr mag/cell
     absolute magnetization    =     0.32 Bohr mag/cell

     convergence has been achieved in   6 iterations

     negative rho (up, down):  1.341E-01 1.341E-01

     Forces acting on atoms (cartesian axes, Ry/au):

     atom    1 type  1   force =     0.00159951    0.04895988    0.01572409
     atom    2 type  1   force =     0.04102488    0.02622832   -0.01514146
     atom    3 type  1   force =     0.03407781   -0.02072956    0.01046437
     atom    4 type  1   force =     0.01200414   -0.00798912   -0.01041605
     atom    5 type  1   force =    -0.01222697    0.00687297    0.01049751
     atom    6 type  1   force =    -0.03431972    0.02081427   -0.01055817
     atom    7 type  1   force =    -0.04074016   -0.02542418    0.01540717
     atom    8 type  1   force =     0.00006249   -0.04813111   -0.01430155
     atom    9 type  1   force =     0.03514698    0.05765856   -0.00094369
     atom   10 type  1   force =     0.04166684   -0.02467469   -0.00213210
     atom   11 type  1   force =    -0.04258581    0.02334255    0.00215898
     atom   12 type  1   force =    -0.02343522    0.00398828   -0.00012774
     atom   13 type  1   force =    -0.02897200    0.00114309   -0.00068241
     atom   14 type  1   force =    -0.00814829    0.00668320   -0.02118350
     atom   15 type  1   force =     0.01431701   -0.02518275   -0.00108473
     atom   16 type  1   force =    -0.01795219    0.02101499    0.00185110
     atom   17 type  1   force =     0.00968283   -0.00567627    0.02157247
     atom   18 type  1   force =     0.02695365   -0.00576126   -0.00125716
     atom   19 type  2   force =     0.05010839   -0.02753363    0.07535692
     atom   20 type  2   force =    -0.03794819    0.01973632   -0.00902029
     atom   21 type  2   force =    -0.04980970    0.02964036   -0.07612520
     atom   22 type  2   force =     0.02593769   -0.03614412    0.00959597
     atom   23 type  3   force =     0.00355602   -0.03883612    0.00034546
     The non-local contrib.  to forces
     atom    1 type  1   force =    -0.04801450   -0.23917757   -0.12655548
     atom    2 type  1   force =    -0.18153221   -0.16484995    0.12049408
     atom    3 type  1   force =    -0.22212910    0.12806518    0.02849592
     atom    4 type  1   force =    -0.10650867    0.06225020    0.24594115
     atom    5 type  1   force =     0.10710756   -0.06107960   -0.24591947
     atom    6 type  1   force =     0.22256628   -0.13091075   -0.02898835
     atom    7 type  1   force =     0.18455596    0.17700651   -0.11775243
     atom    8 type  1   force =     0.04987342    0.25432539    0.11934189
     atom    9 type  1   force =    -0.17835286   -0.32244169    0.00239952
     atom   10 type  1   force =    -0.26320982    0.15663259   -0.10822248
     atom   11 type  1   force =     0.26094674   -0.16462402    0.10967277
     atom   12 type  1   force =     0.16023406    0.27482637    0.00197603
     atom   13 type  1   force =     0.07558099    0.05245408   -0.02761168
     atom   14 type  1   force =    -0.13075488    0.06217204    0.09553896
     atom   15 type  1   force =     0.00736535    0.09861950    0.03136339
     atom   16 type  1   force =    -0.00298135   -0.09397859   -0.03017994
     atom   17 type  1   force =     0.12703500   -0.06650165   -0.09566301
     atom   18 type  1   force =    -0.07753631   -0.05573785    0.02772885
     atom   19 type  2   force =    -0.06335408    0.02698881   -0.26179308
     atom   20 type  2   force =     0.10951729   -0.06590937   -0.04688646
     atom   21 type  2   force =     0.05872670   -0.02709161    0.26169997
     atom   22 type  2   force =    -0.12055786    0.05639107    0.04404719
     atom   23 type  3   force =     0.00105929   -0.00667385   -0.00001448
     The ionic contribution  to forces
     atom    1 type  1   force =    -2.85406097   -7.90076979   -4.32503350
     atom    2 type  1   force =    -5.12080548   -6.60193146    4.32390926
     atom    3 type  1   force =    -5.82399854    4.32981231   -2.60014751
     atom    4 type  1   force =    -3.71984183    3.16831860    2.77425487
     atom    5 type  1   force =     3.72459887   -3.16822630   -2.77720876
     atom    6 type  1   force =     5.82875577   -4.32972021    2.60310188
     atom    7 type  1   force =     5.10401557    6.57072998   -4.35918772
     atom    8 type  1   force =     2.83727081    7.86956825    4.36031224
     atom    9 type  1   force =    -6.49688963  -11.56470602    0.00123563
     atom   10 type  1   force =    -7.55953390    5.48481870   -0.09473023
     atom   11 type  1   force =     7.56710278   -5.47485524    0.09472986
     atom   12 type  1   force =     6.46107787   11.35784231   -0.00123643
     atom   13 type  1   force =     8.15932100    4.62204417   -5.26346992
     atom   14 type  1   force =    -6.89206528    4.48992194    4.80502816
     atom   15 type  1   force =    -0.24588701    9.59866473    5.27202701
     atom   16 type  1   force =     0.19884053   -9.66376375   -5.24593419
     atom   17 type  1   force =     6.87216352   -4.50771792   -4.80555296
     atom   18 type  1   force =    -8.18122969   -4.68797343    5.24448302
     atom   19 type  2   force =   -10.98800523    6.94859324  -22.05528304
     atom   20 type  2   force =    20.85736034  -12.86546328    1.61383119
     atom   21 type  2   force =    10.91579639   -7.04845536   22.05182399
     atom   22 type  2   force =   -20.99412972   12.65644385   -1.61682189
     atom   23 type  3   force =     0.35014383    0.71682466   -0.00013095
     The local contribution  to forces
     atom    1 type  1   force =     2.90335679    8.19055891    4.46592669
     atom    2 type  1   force =     5.34460907    6.79472511   -4.45884831
     atom    3 type  1   force =     6.08024364   -4.47921330    2.58148152
     atom    4 type  1   force =     3.83892180   -3.23949805   -3.02993675
     atom    5 type  1   force =    -3.84430008    3.23778255    3.03237187
     atom    6 type  1   force =    -6.08617891    4.48297094   -2.58400720
     atom    7 type  1   force =    -5.32973130   -6.77432287    4.48957185
     atom    8 type  1   force =    -2.88691731   -8.17455978   -4.49174144
     atom    9 type  1   force =     6.71034368   11.94828273   -0.00382852
     atom   10 type  1   force =     7.86433914   -5.66722039    0.20049425
     atom   11 type  1   force =    -7.87022977    5.66536123   -0.20141223
     atom   12 type  1   force =    -6.64746231  -11.64128948   -0.00029131
     atom   13 type  1   force =    -8.26486818   -4.67666104    5.28763991
     atom   14 type  1   force =     7.01523506   -4.54769345   -4.92120874
     atom   15 type  1   force =     0.25164778   -9.72711511   -5.30027595
     atom   16 type  1   force =    -0.21433375    9.78058645    5.27681413
     atom   17 type  1   force =    -6.99069566    4.57044232    4.92218863
     atom   18 type  1   force =     8.28680002    4.73802247   -5.27160946
     atom   19 type  2   force =    11.10386318   -7.01022305   22.42922081
     atom   20 type  2   force =   -21.01105541   12.95189406   -1.56856523
     atom   21 type  2   force =   -11.03207140    7.10850916  -22.42710052
     atom   22 type  2   force =    21.13956751  -12.75869095    1.58011508
     atom   23 type  3   force =    -0.34770897   -0.74805597    0.00046594
     The core correction contribution to forces
     atom    1 type  1   force =     0.00000000    0.00000000    0.00000000
     atom    2 type  1   force =     0.00000000    0.00000000    0.00000000
     atom    3 type  1   force =     0.00000000    0.00000000    0.00000000
     atom    4 type  1   force =     0.00000000    0.00000000    0.00000000
     atom    5 type  1   force =     0.00000000    0.00000000    0.00000000
     atom    6 type  1   force =     0.00000000    0.00000000    0.00000000
     atom    7 type  1   force =     0.00000000    0.00000000    0.00000000
     atom    8 type  1   force =     0.00000000    0.00000000    0.00000000
     atom    9 type  1   force =     0.00000000    0.00000000    0.00000000
     atom   10 type  1   force =     0.00000000    0.00000000    0.00000000
     atom   11 type  1   force =     0.00000000    0.00000000    0.00000000
     atom   12 type  1   force =     0.00000000    0.00000000    0.00000000
     atom   13 type  1   force =     0.00000000    0.00000000    0.00000000
     atom   14 type  1   force =     0.00000000    0.00000000    0.00000000
     atom   15 type  1   force =     0.00000000    0.00000000    0.00000000
     atom   16 type  1   force =     0.00000000    0.00000000    0.00000000
     atom   17 type  1   force =     0.00000000    0.00000000    0.00000000
     atom   18 type  1   force =     0.00000000    0.00000000    0.00000000
     atom   19 type  2   force =    -0.00233301    0.00226603   -0.03864807
     atom   20 type  2   force =     0.00322923   -0.00288384   -0.00264461
     atom   21 type  2   force =     0.00193215   -0.00194719    0.03861113
     atom   22 type  2   force =    -0.00398750    0.00159790    0.00294475
     atom   23 type  3   force =     0.00000000    0.00000000    0.00000000
     The Hubbard contrib.    to forces
     atom    1 type  1   force =     0.00000000    0.00000000    0.00000000
     atom    2 type  1   force =     0.00000000    0.00000000    0.00000000
     atom    3 type  1   force =     0.00000000    0.00000000    0.00000000
     atom    4 type  1   force =     0.00000000    0.00000000    0.00000000
     atom    5 type  1   force =     0.00000000    0.00000000    0.00000000
     atom    6 type  1   force =     0.00000000    0.00000000    0.00000000
     atom    7 type  1   force =     0.00000000    0.00000000    0.00000000
     atom    8 type  1   force =     0.00000000    0.00000000    0.00000000
     atom    9 type  1   force =     0.00000000    0.00000000    0.00000000
     atom   10 type  1   force =     0.00000000    0.00000000    0.00000000
     atom   11 type  1   force =     0.00000000    0.00000000    0.00000000
     atom   12 type  1   force =     0.00000000    0.00000000    0.00000000
     atom   13 type  1   force =     0.00000000    0.00000000    0.00000000
     atom   14 type  1   force =     0.00000000    0.00000000    0.00000000
     atom   15 type  1   force =     0.00000000    0.00000000    0.00000000
     atom   16 type  1   force =     0.00000000    0.00000000    0.00000000
     atom   17 type  1   force =     0.00000000    0.00000000    0.00000000
     atom   18 type  1   force =     0.00000000    0.00000000    0.00000000
     atom   19 type  2   force =     0.00000000    0.00000000    0.00000000
     atom   20 type  2   force =     0.00000000    0.00000000    0.00000000
     atom   21 type  2   force =     0.00000000    0.00000000    0.00000000
     atom   22 type  2   force =     0.00000000    0.00000000    0.00000000
     atom   23 type  3   force =     0.00000000    0.00000000    0.00000000
     The SCF correction term to forces
     atom    1 type  1   force =     0.00035314   -0.00137895    0.00135723
     atom    2 type  1   force =    -0.00121156   -0.00144266   -0.00072564
     atom    3 type  1   force =    -0.00000325    0.00087898    0.00060529
     atom    4 type  1   force =    -0.00053220    0.00121286   -0.00070446
     atom    5 type  1   force =     0.00040164   -0.00133095    0.00122473
     atom    6 type  1   force =     0.00057209   -0.00125298   -0.00069365
     atom    7 type  1   force =     0.00045457    0.00143493    0.00274632
     atom    8 type  1   force =    -0.00012948    0.00280775   -0.00224339
     atom    9 type  1   force =     0.00008074   -0.00320374   -0.00077948
     atom   10 type  1   force =     0.00010637    0.00136714    0.00029721
     atom   11 type  1   force =    -0.00037061   -0.00226669   -0.00086057
     atom   12 type  1   force =     0.00275012    0.01288179   -0.00060519
     atom   13 type  1   force =     0.00102913    0.00357861    0.00273014
     atom   14 type  1   force =    -0.00052824    0.00255539   -0.00057103
     atom   15 type  1   force =     0.00122584    0.00492086   -0.00422833
     atom   16 type  1   force =     0.00055732   -0.00155640    0.00112195
     atom   17 type  1   force =     0.00121492   -0.00162629    0.00057067
     atom   18 type  1   force =    -0.00104542    0.00020028   -0.00188871
     atom   19 type  2   force =    -0.00002753    0.00511406    0.00183116
     atom   20 type  2   force =     0.00303530    0.00237147   -0.00478432
     atom   21 type  2   force =     0.00584141   -0.00110192   -0.00118892
     atom   22 type  2   force =     0.00508020    0.00838674   -0.00071831
     atom   23 type  3   force =     0.00009682   -0.00065823   -0.00000420

     Total force =     0.228393     Total SCF correction =     0.022779


     Computing stress (Cartesian axis) and pressure


     negative rho (up, down):  1.341E-01 1.341E-01
          total   stress  (Ry/bohr**3)                   (kbar)     P=      -35.63
  -0.00021125   0.00003596  -0.00001642          -31.08        5.29       -2.42
   0.00003596  -0.00018740   0.00001090            5.29      -27.57        1.60
  -0.00001642   0.00001090  -0.00032794           -2.42        1.60      -48.24


     Entering Dynamics:    iteration =     2
                           time      =   0.0002 pico-seconds


ATOMIC_POSITIONS (angstrom)
Be            4.2220479325        2.0015064443        2.0000088218
Be            4.2220705841        2.0014933820        9.3072070913
Be            2.0000194837        5.8501652314        2.0000058926
Be            2.0000070107        5.8501724308        9.3072099140
Be            8.6661341679        2.0014824873        2.0000058138
Be            8.6661216720        2.0014903013        9.3072097236
Be            6.4440708988        5.8501624367        2.0000086089
Be            6.4440941555        5.8501494422        9.3072075691
Be            4.2220673642        2.0015110458        5.6536074241
Be            2.0000238408        5.8501630038        5.6536065789
Be            8.6661168595        2.0014915593        5.6536091450
Be            6.4440793403        5.8501721558        5.6536079147
Be            6.4440775124        4.5409733356        3.8268034197
Be            3.1337996726        5.1955783004        7.4803996770
Be            5.3102983384        5.1955602810        7.4804113140
Be            5.3558412478        2.6560928072        3.8268049576
Be            7.5323422919        2.6560774551        3.8268161449
Be            4.2220626132        3.3106796742        7.4804111920
W             4.2220484826        4.5672767479        2.4622983385
W             6.4440932207        3.2843785782        6.1159040217
W             6.4440928696        3.2843788175        8.8449171666
W             4.2220478448        4.5672765819        5.1913119053
H             6.4441021297        8.3630608925        5.6536082561


     kinetic energy (Ekin) =          80.86950694 Ry
     temperature           =      386917.73577067 K 
     Ekin + Etot (const)   =       -1061.52539160 Ry
     Ions kinetic stress =          884.10 (kbar)
                                      0.00          -0.03          -0.00
                                     -0.03        2652.29          -0.00
                                     -0.00          -0.00           0.00



     Linear momentum :    0.0000000000    0.0000000000   -0.0000000000

     Writing config-only to output data dir outdir/pwscf.save/
     NEW-OLD atomic charge density approx. for the potential

     negative rho (up, down):  1.341E-01 1.341E-01
     Generating pointlists ...
     new r_m :   0.0972 (alat units)  1.9588 (a.u.) for type    3

     total cpu time spent up to now is      540.0 secs

     Self-consistent Calculation

     iteration #  1     ecut=   120.00 Ry     beta= 0.70
     Davidson diagonalization with overlap
     ethr =  1.00E-06,  avg # of iterations =  7.5

     negative rho (up, down):  1.339E-01 1.339E-01

     total cpu time spent up to now is      559.3 secs

     total energy              =   -1142.42200157 Ry
     estimated scf accuracy    <       0.02866828 Ry

     total magnetization       =     0.06 Bohr mag/cell
     absolute magnetization    =     0.29 Bohr mag/cell

     iteration #  2     ecut=   120.00 Ry     beta= 0.70
     Davidson diagonalization with overlap
     ethr =  2.22E-05,  avg # of iterations =  2.0

     negative rho (up, down):  1.341E-01 1.341E-01

     total cpu time spent up to now is      581.8 secs

     total energy              =   -1142.42195688 Ry
     estimated scf accuracy    <       0.02710797 Ry

     total magnetization       =     0.13 Bohr mag/cell
     absolute magnetization    =     0.34 Bohr mag/cell

     iteration #  3     ecut=   120.00 Ry     beta= 0.70
     Davidson diagonalization with overlap
     ethr =  2.10E-05,  avg # of iterations =  2.0

     negative rho (up, down):  1.341E-01 1.342E-01

     total cpu time spent up to now is      605.6 secs

     total energy              =   -1142.42365822 Ry
     estimated scf accuracy    <       0.02444151 Ry

     total magnetization       =     0.11 Bohr mag/cell
     absolute magnetization    =     0.33 Bohr mag/cell

     iteration #  4     ecut=   120.00 Ry     beta= 0.70
     Davidson diagonalization with overlap
     ethr =  1.89E-05,  avg # of iterations =  1.0

     negative rho (up, down):  1.340E-01 1.341E-01

     total cpu time spent up to now is      627.4 secs

     total energy              =   -1142.42431500 Ry
     estimated scf accuracy    <       0.00266910 Ry

     total magnetization       =     0.12 Bohr mag/cell
     absolute magnetization    =     0.35 Bohr mag/cell

     iteration #  5     ecut=   120.00 Ry     beta= 0.70
     Davidson diagonalization with overlap
     ethr =  2.07E-06,  avg # of iterations =  3.0

     negative rho (up, down):  1.340E-01 1.341E-01

     total cpu time spent up to now is      646.1 secs

     total energy              =   -1142.42461336 Ry
     estimated scf accuracy    <       0.00166037 Ry

     total magnetization       =     0.15 Bohr mag/cell
     absolute magnetization    =     0.38 Bohr mag/cell

     iteration #  6     ecut=   120.00 Ry     beta= 0.70
     Davidson diagonalization with overlap
     ethr =  1.29E-06,  avg # of iterations =  2.0

     negative rho (up, down):  1.341E-01 1.341E-01

     Magnetic moment per site  (integrated on atomic sphere of radius R)
     atom   1 (R=0.084)  charge=  2.6245  magn= -0.0021
     atom   2 (R=0.084)  charge=  2.6245  magn= -0.0030
     atom   3 (R=0.084)  charge=  2.5872  magn=  0.0008
     atom   4 (R=0.084)  charge=  2.5715  magn=  0.0028
     atom   5 (R=0.084)  charge=  2.5714  magn=  0.0017
     atom   6 (R=0.084)  charge=  2.5873  magn=  0.0009
     atom   7 (R=0.084)  charge=  2.6211  magn=  0.0018
     atom   8 (R=0.084)  charge=  2.6220  magn=  0.0017
     atom   9 (R=0.084)  charge=  2.6893  magn= -0.0001
     atom  10 (R=0.084)  charge=  2.6124  magn=  0.0009
     atom  11 (R=0.084)  charge=  2.6119  magn=  0.0013
     atom  12 (R=0.084)  charge=  2.6757  magn= -0.0108
     atom  13 (R=0.084)  charge=  2.8762  magn=  0.0001
     atom  14 (R=0.084)  charge=  2.8096  magn=  0.0019
     atom  15 (R=0.084)  charge=  2.8727  magn=  0.0015
     atom  16 (R=0.084)  charge=  2.8755  magn= -0.0012
     atom  17 (R=0.084)  charge=  2.8091  magn= -0.0005
     atom  18 (R=0.084)  charge=  2.8763  magn= -0.0005
     atom  19 (R=0.101)  charge= 10.9063  magn=  0.0055
     atom  20 (R=0.101)  charge= 10.9215  magn= -0.0053
     atom  21 (R=0.101)  charge= 10.9110  magn= -0.0132
     atom  22 (R=0.101)  charge= 10.9178  magn=  0.0097
     atom  23 (R=0.097)  charge=  0.9439  magn=  0.1442

     total cpu time spent up to now is      656.8 secs

     End of self-consistent calculation

 ------ SPIN UP ------------


          k = 0.0000 0.0000 0.0000 ( 99567 PWs)   bands (ev):

  -103.9114-103.9019-103.4875-103.4766-103.3340-103.3338-103.0405-103.0041
  -102.9717-102.9670-102.5875-102.1531-101.2087-101.1862-100.7348-100.7026
  -100.7015-100.6949 -75.2777 -75.2368 -75.2264 -75.1892 -39.7361 -39.5885
   -39.5286 -39.4572 -39.4001 -39.3772 -39.3502 -39.3405 -39.3222 -39.2616
   -39.1405 -39.0960  -8.1898  -6.8638  -6.0021  -5.7784  -5.4925  -5.2193
    -4.8779  -4.8699  -4.4012  -4.1800  -4.1377  -3.9397  -3.7788  -3.4841
    -3.3999  -3.1770  -3.0620  -2.7630  -2.7400  -2.5514  -2.5084  -2.4268
    -2.2948  -2.1626  -2.0602  -1.8495  -1.7878  -1.6899  -1.6384  -1.5273
    -1.3457  -1.3380  -1.2721  -1.1809  -1.0192  -0.7994  -0.7945  -0.6152
    -0.5435  -0.4174  -0.4061  -0.3733  -0.1575  -0.1044

 ------ SPIN DOWN ----------


          k = 0.0000 0.0000 0.0000 ( 99567 PWs)   bands (ev):

  -103.9100-103.8996-103.4866-103.4765-103.3337-103.3332-103.0395-103.0028
  -102.9731-102.9688-102.5875-102.1631-101.2091-101.1850-100.7336-100.7029
  -100.7021-100.6949 -75.2805 -75.2404 -75.2267 -75.1872 -39.7356 -39.5927
   -39.5276 -39.4624 -39.3972 -39.3819 -39.3609 -39.3387 -39.3195 -39.2600
   -39.1451 -39.0956  -8.1900  -6.8645  -6.0004  -5.7823  -5.4946  -5.2188
    -4.8783  -4.8721  -4.3993  -4.1801  -4.1403  -3.9350  -3.7781  -3.4812
    -3.4018  -3.1764  -3.0535  -2.7621  -2.7401  -2.5142  -2.4835  -2.4268
    -2.2945  -2.0994  -2.0526  -1.7934  -1.7583  -1.6759  -1.5890  -1.5248
    -1.3380  -1.3249  -1.2563  -1.1734  -1.0196  -0.7919  -0.7887  -0.6102
    -0.5260  -0.4171  -0.4053  -0.3703  -0.1497  -0.1046

     the Fermi energy is    -1.4113 ev

!    total energy              =   -1142.42466903 Ry
     estimated scf accuracy    <       0.00022427 Ry
     smearing contrib. (-TS)   =      -0.07141809 Ry
     internal energy E=F+TS    =   -1142.35325095 Ry

     total magnetization       =     0.17 Bohr mag/cell
     absolute magnetization    =     0.40 Bohr mag/cell

     convergence has been achieved in   6 iterations

     negative rho (up, down):  1.341E-01 1.341E-01

     Forces acting on atoms (cartesian axes, Ry/au):

     atom    1 type  1   force =     0.00149444    0.04958519    0.01553076
     atom    2 type  1   force =     0.04074936    0.02670585   -0.01414482
     atom    3 type  1   force =     0.03451586   -0.02093194    0.01071453
     atom    4 type  1   force =     0.01245523   -0.00828389   -0.01011377
     atom    5 type  1   force =    -0.01217800    0.00752776    0.01052810
     atom    6 type  1   force =    -0.03360598    0.02107630   -0.00983149
     atom    7 type  1   force =    -0.04101594   -0.02556699    0.01462026
     atom    8 type  1   force =    -0.00001788   -0.04799653   -0.01226621
     atom    9 type  1   force =     0.03447082    0.06000899   -0.00126565
     atom   10 type  1   force =     0.04246475   -0.02510192   -0.00219502
     atom   11 type  1   force =    -0.04186491    0.02446473    0.00194892
     atom   12 type  1   force =    -0.02208303    0.02275043   -0.00089626
     atom   13 type  1   force =    -0.03021783   -0.00048895   -0.00157560
     atom   14 type  1   force =    -0.00751866    0.00639565   -0.02150037
     atom   15 type  1   force =     0.01247621   -0.02619940   -0.00085023
     atom   16 type  1   force =    -0.01874882    0.02189547    0.00142297
     atom   17 type  1   force =     0.00907729   -0.00470749    0.02104964
     atom   18 type  1   force =     0.02635534   -0.00547470   -0.00188219
     atom   19 type  2   force =     0.05066911   -0.02635722    0.07395710
     atom   20 type  2   force =    -0.03745651    0.01800915   -0.00692502
     atom   21 type  2   force =    -0.04874827    0.03055961   -0.07592080
     atom   22 type  2   force =     0.02350768   -0.04094990    0.00863626
     atom   23 type  3   force =     0.00521975   -0.05692023    0.00095887
     The non-local contrib.  to forces
     atom    1 type  1   force =    -0.04895858   -0.23806973   -0.12796414
     atom    2 type  1   force =    -0.18406066   -0.16384984    0.12090372
     atom    3 type  1   force =    -0.22155324    0.12785670    0.02863115
     atom    4 type  1   force =    -0.10624521    0.06280613    0.24704676
     atom    5 type  1   force =     0.10754091   -0.06030762   -0.24629429
     atom    6 type  1   force =     0.22359772   -0.13089995   -0.02864669
     atom    7 type  1   force =     0.18387939    0.17741117   -0.11846268
     atom    8 type  1   force =     0.04926924    0.25641114    0.11907466
     atom    9 type  1   force =    -0.17758925   -0.32151276    0.00207796
     atom   10 type  1   force =    -0.26284406    0.15641900   -0.10947307
     atom   11 type  1   force =     0.26036763   -0.16177692    0.10964241
     atom   12 type  1   force =     0.14612730    0.22510025    0.00168607
     atom   13 type  1   force =     0.07366812    0.05281743   -0.02897987
     atom   14 type  1   force =    -0.13142929    0.06035280    0.09562953
     atom   15 type  1   force =     0.00908829    0.10150623    0.03039584
     atom   16 type  1   force =    -0.00504132   -0.09312187   -0.03058472
     atom   17 type  1   force =     0.12619483   -0.06681819   -0.09694661
     atom   18 type  1   force =    -0.07814360   -0.05624467    0.02672274
     atom   19 type  2   force =    -0.06365899    0.02791023   -0.26387922
     atom   20 type  2   force =     0.10897221   -0.07007151   -0.04611587
     atom   21 type  2   force =     0.05957983   -0.02715415    0.26292055
     atom   22 type  2   force =    -0.12201089    0.05710128    0.04292106
     atom   23 type  3   force =     0.00136516   -0.01143778    0.00002714
     The ionic contribution  to forces
     atom    1 type  1   force =    -2.85282086   -7.90588277   -4.32318221
     atom    2 type  1   force =    -5.11961193   -6.60701705    4.32205793
     atom    3 type  1   force =    -5.82526312    4.32972788   -2.60184779
     atom    4 type  1   force =    -3.72103457    3.16819803    2.77593638
     atom    5 type  1   force =     3.72334679   -3.17324606   -2.77530291
     atom    6 type  1   force =     5.82757627   -4.33477555    2.60121485
     atom    7 type  1   force =     5.10408873    6.56804587   -4.36902188
     atom    8 type  1   force =     2.83729820    7.86690888    4.37014386
     atom    9 type  1   force =    -6.49220941  -11.57832111    0.00123595
     atom   10 type  1   force =    -7.56393146    5.48386585   -0.09473702
     atom   11 type  1   force =     7.56245885   -5.48837688    0.09473720
     atom   12 type  1   force =     6.46109683   11.27669824   -0.00123637
     atom   13 type  1   force =     8.15938956    4.60435963   -5.27197344
     atom   14 type  1   force =    -6.89783891    4.48529384    4.80861731
     atom   15 type  1   force =    -0.25380814    9.58175865    5.28480857
     atom   16 type  1   force =     0.19968004   -9.67687783   -5.24460037
     atom   17 type  1   force =     6.87136310   -4.52077596   -4.80422333
     atom   18 type  1   force =    -8.18217797   -4.69781235    5.24525869
     atom   19 type  2   force =   -10.99716766    6.92960700  -22.06820980
     atom   20 type  2   force =    20.85750293  -12.93143087    1.61528152
     atom   21 type  2   force =    10.91587844   -7.07876790   22.05520410
     atom   22 type  2   force =   -21.02251034   12.60689380   -1.62285445
     atom   23 type  3   force =     0.40869465    1.09192666    0.00269322
     The local contribution  to forces
     atom    1 type  1   force =     2.90391212    8.19357279    4.46556923
     atom    2 type  1   force =     5.34793729    6.79942298   -4.45814706
     atom    3 type  1   force =     6.08017426   -4.47828358    2.58289019
     atom    4 type  1   force =     3.83949245   -3.23964844   -3.03335824
     atom    5 type  1   force =    -3.84339990    3.24168724    3.03119179
     atom    6 type  1   force =    -6.08813212    4.48924494   -2.58357719
     atom    7 type  1   force =    -5.32788628   -6.77137980    4.50014333
     atom    8 type  1   force =    -2.88539558   -8.17545871   -4.50165179
     atom    9 type  1   force =     6.70537521   11.95984015   -0.00274465
     atom   10 type  1   force =     7.86628718   -5.66470609    0.20306453
     atom   11 type  1   force =    -7.86550689    5.67643508   -0.20097315
     atom   12 type  1   force =    -6.62620948  -11.48068529    0.00077637
     atom   13 type  1   force =    -8.26087706   -4.66051128    5.29722297
     atom   14 type  1   force =     7.02129080   -4.54014853   -4.92318080
     atom   15 type  1   force =     0.25902610   -9.71379881   -5.30957182
     atom   16 type  1   force =    -0.21193221    9.79073086    5.27629792
     atom   17 type  1   force =    -6.98769019    4.58305182    4.92320240
     atom   18 type  1   force =     8.28979989    4.74693402   -5.26989482
     atom   19 type  2   force =    11.11560202   -6.98878323   22.43472120
     atom   20 type  2   force =   -20.99880417   13.01369000   -1.55898026
     atom   21 type  2   force =   -11.02390201    7.13793261  -22.43221667
     atom   22 type  2   force =    21.17034205  -12.71560155    1.58984242
     atom   23 type  3   force =    -0.40455054   -1.13796864   -0.00185670
     The core correction contribution to forces
     atom    1 type  1   force =     0.00000000    0.00000000    0.00000000
     atom    2 type  1   force =     0.00000000    0.00000000    0.00000000
     atom    3 type  1   force =     0.00000000    0.00000000    0.00000000
     atom    4 type  1   force =     0.00000000    0.00000000    0.00000000
     atom    5 type  1   force =     0.00000000    0.00000000    0.00000000
     atom    6 type  1   force =     0.00000000    0.00000000    0.00000000
     atom    7 type  1   force =     0.00000000    0.00000000    0.00000000
     atom    8 type  1   force =     0.00000000    0.00000000    0.00000000
     atom    9 type  1   force =     0.00000000    0.00000000    0.00000000
     atom   10 type  1   force =     0.00000000    0.00000000    0.00000000
     atom   11 type  1   force =     0.00000000    0.00000000    0.00000000
     atom   12 type  1   force =     0.00000000    0.00000000    0.00000000
     atom   13 type  1   force =     0.00000000    0.00000000    0.00000000
     atom   14 type  1   force =     0.00000000    0.00000000    0.00000000
     atom   15 type  1   force =     0.00000000    0.00000000    0.00000000
     atom   16 type  1   force =     0.00000000    0.00000000    0.00000000
     atom   17 type  1   force =     0.00000000    0.00000000    0.00000000
     atom   18 type  1   force =     0.00000000    0.00000000    0.00000000
     atom   19 type  2   force =    -0.00250377    0.00230968   -0.03865830
     atom   20 type  2   force =     0.00307421   -0.00335431   -0.00239953
     atom   21 type  2   force =     0.00206463   -0.00193757    0.03864864
     atom   22 type  2   force =    -0.00409463    0.00172441    0.00282956
     atom   23 type  3   force =     0.00000000    0.00000000    0.00000000
     The Hubbard contrib.    to forces
     atom    1 type  1   force =     0.00000000    0.00000000    0.00000000
     atom    2 type  1   force =     0.00000000    0.00000000    0.00000000
     atom    3 type  1   force =     0.00000000    0.00000000    0.00000000
     atom    4 type  1   force =     0.00000000    0.00000000    0.00000000
     atom    5 type  1   force =     0.00000000    0.00000000    0.00000000
     atom    6 type  1   force =     0.00000000    0.00000000    0.00000000
     atom    7 type  1   force =     0.00000000    0.00000000    0.00000000
     atom    8 type  1   force =     0.00000000    0.00000000    0.00000000
     atom    9 type  1   force =     0.00000000    0.00000000    0.00000000
     atom   10 type  1   force =     0.00000000    0.00000000    0.00000000
     atom   11 type  1   force =     0.00000000    0.00000000    0.00000000
     atom   12 type  1   force =     0.00000000    0.00000000    0.00000000
     atom   13 type  1   force =     0.00000000    0.00000000    0.00000000
     atom   14 type  1   force =     0.00000000    0.00000000    0.00000000
     atom   15 type  1   force =     0.00000000    0.00000000    0.00000000
     atom   16 type  1   force =     0.00000000    0.00000000    0.00000000
     atom   17 type  1   force =     0.00000000    0.00000000    0.00000000
     atom   18 type  1   force =     0.00000000    0.00000000    0.00000000
     atom   19 type  2   force =     0.00000000    0.00000000    0.00000000
     atom   20 type  2   force =     0.00000000    0.00000000    0.00000000
     atom   21 type  2   force =     0.00000000    0.00000000    0.00000000
     atom   22 type  2   force =     0.00000000    0.00000000    0.00000000
     atom   23 type  3   force =     0.00000000    0.00000000    0.00000000
     The SCF correction term to forces
     atom    1 type  1   force =    -0.00075615    0.00004558    0.00088504
     atom    2 type  1   force =    -0.00363324   -0.00176955    0.00081775
     atom    3 type  1   force =     0.00104007   -0.00015226    0.00081815
     atom    4 type  1   force =     0.00012465    0.00044106    0.00003850
     atom    5 type  1   force =     0.00021629   -0.00052511    0.00071068
     atom    6 type  1   force =     0.00323426   -0.00241245    0.00095469
     atom    7 type  1   force =    -0.00121568    0.00043646    0.00173865
     atom    8 type  1   force =    -0.00130763    0.00422285   -0.00005578
     atom    9 type  1   force =    -0.00122363    0.00008338   -0.00205775
     atom   10 type  1   force =     0.00283519   -0.00060000   -0.00127229
     atom   11 type  1   force =     0.00069760   -0.00173587   -0.00168038
     atom   12 type  1   force =    -0.00321557    0.00171792   -0.00234517
     atom   13 type  1   force =    -0.00251635    0.00292595    0.00193190
     atom   14 type  1   force =     0.00034084    0.00097823   -0.00278926
     atom   15 type  1   force =    -0.00194794    0.00441520   -0.00670567
     atom   16 type  1   force =    -0.00157323    0.00124500    0.00008730
[...]
  -102.8920-102.8000-102.7712-102.3468-101.1356-101.0314-100.9433-100.9212
  -100.6693-100.6566 -75.1607 -75.1277 -74.8657 -74.8470 -39.5603 -39.3773
   -39.3686 -39.3236 -39.3092 -39.1094 -38.9363 -38.9260 -38.8894 -38.8754
   -38.8725 -38.8528  -7.8874  -6.7063  -5.8291  -5.4614  -5.1447  -5.0940
    -4.6792  -4.6046  -4.5648  -4.1986  -3.8990  -3.7860  -3.5558  -3.3690
    -3.1791  -3.0193  -2.8814  -2.7134  -2.5654  -2.5140  -2.2314  -2.2194
    -2.1968  -2.0213  -1.8867  -1.6812  -1.5536  -1.3763  -1.3077  -1.1715
    -1.1108  -0.9840  -0.9260  -0.8603  -0.8062  -0.7398  -0.5986  -0.4954
    -0.3293  -0.2624  -0.1690  -0.1466  -0.0534   0.0994

     the Fermi energy is    -1.2931 ev

!    total energy              =   -1137.31442798 Ry
     estimated scf accuracy    <       0.00088690 Ry
     smearing contrib. (-TS)   =      -0.05749934 Ry
     internal energy E=F+TS    =   -1137.25692864 Ry

     total magnetization       =     3.68 Bohr mag/cell
     absolute magnetization    =     4.88 Bohr mag/cell

     convergence has been achieved in  11 iterations

     negative rho (up, down):  1.356E-01 1.325E-01

     Forces acting on atoms (cartesian axes, Ry/au):

     atom    1 type  1   force =     0.00563729    0.04549895    0.01087755
     atom    2 type  1   force =     0.03641543    0.02615670   -0.01125234
     atom    3 type  1   force =     0.03368086   -0.01954431    0.01191656
     atom    4 type  1   force =     0.01264556   -0.00700655   -0.00886886
     atom    5 type  1   force =    -0.01227528    0.00754948    0.01151109
     atom    6 type  1   force =    -0.03004627    0.01895023   -0.01144699
     atom    7 type  1   force =    -0.03814585   -0.02610216    0.01036263
     atom    8 type  1   force =    -0.00199958   -0.04437433   -0.01140891
     atom    9 type  1   force =     0.04443868    0.06830479    0.00157085
     atom   10 type  1   force =     0.04268387   -0.02182994   -0.00494020
     atom   11 type  1   force =    -0.03882121    0.02436986    0.00080206
     atom   12 type  1   force =   -16.41512042    2.45603359    2.55462890
     atom   13 type  1   force =    -0.03180880    0.00486065    0.00570604
     atom   14 type  1   force =    -0.01109913    0.00757104   -0.02289376
     atom   15 type  1   force =     0.02206162   -0.01365971   -0.01338605
     atom   16 type  1   force =    -0.01819835    0.02240437    0.00722310
     atom   17 type  1   force =     0.01055328   -0.00319713    0.02131687
     atom   18 type  1   force =     0.03090400   -0.00470013   -0.00894242
     atom   19 type  2   force =     0.04499155   -0.02391315    0.07292526
     atom   20 type  2   force =    -0.04993939   -0.02336626    0.00491288
     atom   21 type  2   force =    -0.04129704    0.03104004   -0.07469264
     atom   22 type  2   force =     0.02558664   -0.01768669   -0.00040751
     atom   23 type  3   force =    16.37915253   -2.50735937   -2.54551413
     The non-local contrib.  to forces
     atom    1 type  1   force =    -0.04847110   -0.23582885   -0.11493785
     atom    2 type  1   force =    -0.16675190   -0.16821570    0.11782258
     atom    3 type  1   force =    -0.21766098    0.12863422    0.03039111
     atom    4 type  1   force =    -0.10627822    0.06360792    0.23694422
     atom    5 type  1   force =     0.10863708   -0.05852182   -0.23977399
     atom    6 type  1   force =     0.22268877   -0.12804260   -0.03064630
     atom    7 type  1   force =     0.15549295    0.16982349   -0.13791838
     atom    8 type  1   force =     0.06273721    0.22990970    0.13624771
     atom    9 type  1   force =    -0.19299388   -0.30618406   -0.00398424
     atom   10 type  1   force =    -0.24170758    0.13983733   -0.11782039
     atom   11 type  1   force =     0.24016012   -0.15090663    0.11209783
     atom   12 type  1   force =     0.65075852   -0.19912507   -0.11473513
     atom   13 type  1   force =     0.08533283    0.11575380   -0.00134458
     atom   14 type  1   force =    -0.12525055    0.06198854    0.09822147
     atom   15 type  1   force =     0.02813513    0.14665506   -0.00824275
     atom   16 type  1   force =    -0.01774398   -0.10302783   -0.03220388
     atom   17 type  1   force =     0.11518654   -0.07651079   -0.10482082
     atom   18 type  1   force =    -0.08641340   -0.05800964    0.03125268
     atom   19 type  2   force =    -0.06715689    0.02331342   -0.26557005
     atom   20 type  2   force =     0.14812383   -0.03360561   -0.03760892
     atom   21 type  2   force =     0.05052887   -0.04602552    0.26209728
     atom   22 type  2   force =    -0.09772014    0.11510119    0.05047889
     atom   23 type  3   force =     0.97822261   -0.12548629   -0.15573958
     The ionic contribution  to forces
     atom    1 type  1   force =    -2.83224932   -7.81650271   -4.29414281
     atom    2 type  1   force =    -5.10239507   -6.51639277    4.29310242
     atom    3 type  1   force =    -5.81905156    4.26811381   -2.58974004
     atom    4 type  1   force =    -3.70946878    3.10525639    2.76126119
     atom    5 type  1   force =     3.70194833   -3.07798003   -2.74302985
     atom    6 type  1   force =     5.81113213   -4.24228761    2.57003099
     atom    7 type  1   force =     5.10719451    6.36305891   -4.23653952
     atom    8 type  1   force =     2.83796906    7.67107891    4.22742957
     atom    9 type  1   force =    -6.41210185  -11.33438200    0.00061795
     atom   10 type  1   force =    -7.51752633    5.35241144   -0.09352939
     atom   11 type  1   force =     7.48376904   -5.23792347    0.09485188
     atom   12 type  1   force =   -17.29832423    8.86994825    3.07397175
     atom   13 type  1   force =     8.16155826    5.03968861   -4.23446106
     atom   14 type  1   force =    -6.73654305    4.37895547    4.71760997
     atom   15 type  1   force =     0.30647847    9.48175453    4.38182708
     atom   16 type  1   force =     0.29272825   -9.38755368   -5.09267033
     atom   17 type  1   force =     6.78006935   -4.22822599   -4.65249979
     atom   18 type  1   force =    -8.01382398   -4.52239175    5.10099735
     atom   19 type  2   force =   -10.63990828    6.83159704  -21.55802475
     atom   20 type  2   force =    20.85649900   -9.87258572    1.00018737
     atom   21 type  2   force =    10.92010182   -6.60506918   21.41614227
     atom   22 type  2   force =   -18.53805291   13.21282994   -1.09196101
     atom   23 type  3   force =    20.35999714   -1.73339839   -3.05143122
     The local contribution  to forces
     atom    1 type  1   force =     2.88389950    8.10066320    4.41672704
     atom    2 type  1   force =     5.30940636    6.71599471   -4.42193601
     atom    3 type  1   force =     6.06760583   -4.41857462    2.56874087
     atom    4 type  1   force =     3.82746834   -3.17895682   -3.00771520
     atom    5 type  1   force =    -3.82230993    3.14652420    2.99194871
     atom    6 type  1   force =    -6.06924993    4.39568669   -2.55170844
     atom    7 type  1   force =    -5.30066061   -6.56289834    4.37967243
     atom    8 type  1   force =    -2.90347776   -7.95570531   -4.37464635
     atom    9 type  1   force =     6.64846191   11.71206275    0.00878231
     atom   10 type  1   force =     7.79634352   -5.51598070    0.21007777
     atom   11 type  1   force =    -7.76382219    5.41817558   -0.20336787
     atom   12 type  1   force =     0.24083078   -6.20720771   -0.40539104
     atom   13 type  1   force =    -8.27655600   -5.15592379    4.24126586
     atom   14 type  1   force =     6.84984206   -4.43718983   -4.83296919
     atom   15 type  1   force =    -0.31172421   -9.65088445   -4.37813313
     atom   16 type  1   force =    -0.29283866    9.51407975    5.13231358
     atom   17 type  1   force =    -6.88347749    4.30417914    4.78071526
     atom   18 type  1   force =     8.13450662    4.57645754   -5.13398238
     atom   19 type  2   force =    10.75481427   -6.88937482   21.91442305
     atom   20 type  2   force =   -21.05111095    9.88185808   -0.92820099
     atom   21 type  2   force =   -11.01394199    6.69086611  -21.79430202
     atom   22 type  2   force =    18.66689092  -13.37075377    1.05368506
     atom   23 type  3   force =    -4.95772270   -0.64830044    0.66171342
     The core correction contribution to forces
     atom    1 type  1   force =     0.00000000    0.00000000    0.00000000
     atom    2 type  1   force =     0.00000000    0.00000000    0.00000000
     atom    3 type  1   force =     0.00000000    0.00000000    0.00000000
     atom    4 type  1   force =     0.00000000    0.00000000    0.00000000
     atom    5 type  1   force =     0.00000000    0.00000000    0.00000000
     atom    6 type  1   force =     0.00000000    0.00000000    0.00000000
     atom    7 type  1   force =     0.00000000    0.00000000    0.00000000
     atom    8 type  1   force =     0.00000000    0.00000000    0.00000000
     atom    9 type  1   force =     0.00000000    0.00000000    0.00000000
     atom   10 type  1   force =     0.00000000    0.00000000    0.00000000
     atom   11 type  1   force =     0.00000000    0.00000000    0.00000000
     atom   12 type  1   force =     0.00000000    0.00000000    0.00000000
     atom   13 type  1   force =     0.00000000    0.00000000    0.00000000
     atom   14 type  1   force =     0.00000000    0.00000000    0.00000000
     atom   15 type  1   force =     0.00000000    0.00000000    0.00000000
     atom   16 type  1   force =     0.00000000    0.00000000    0.00000000
     atom   17 type  1   force =     0.00000000    0.00000000    0.00000000
     atom   18 type  1   force =     0.00000000    0.00000000    0.00000000
     atom   19 type  2   force =    -0.00581097    0.00217855   -0.03631323
     atom   20 type  2   force =     0.00938631   -0.00046970    0.00015664
     atom   21 type  2   force =     0.00262781   -0.00509311    0.03756568
     atom   22 type  2   force =    -0.00567745    0.00933575   -0.00028867
     atom   23 type  3   force =     0.00000000    0.00000000    0.00000000
     The Hubbard contrib.    to forces
     atom    1 type  1   force =     0.00000000    0.00000000    0.00000000
     atom    2 type  1   force =     0.00000000    0.00000000    0.00000000
     atom    3 type  1   force =     0.00000000    0.00000000    0.00000000
     atom    4 type  1   force =     0.00000000    0.00000000    0.00000000
     atom    5 type  1   force =     0.00000000    0.00000000    0.00000000
     atom    6 type  1   force =     0.00000000    0.00000000    0.00000000
     atom    7 type  1   force =     0.00000000    0.00000000    0.00000000
     atom    8 type  1   force =     0.00000000    0.00000000    0.00000000
     atom    9 type  1   force =     0.00000000    0.00000000    0.00000000
     atom   10 type  1   force =     0.00000000    0.00000000    0.00000000
     atom   11 type  1   force =     0.00000000    0.00000000    0.00000000
     atom   12 type  1   force =     0.00000000    0.00000000    0.00000000
     atom   13 type  1   force =     0.00000000    0.00000000    0.00000000
     atom   14 type  1   force =     0.00000000    0.00000000    0.00000000
     atom   15 type  1   force =     0.00000000    0.00000000    0.00000000
     atom   16 type  1   force =     0.00000000    0.00000000    0.00000000
     atom   17 type  1   force =     0.00000000    0.00000000    0.00000000
     atom   18 type  1   force =     0.00000000    0.00000000    0.00000000
     atom   19 type  2   force =     0.00000000    0.00000000    0.00000000
     atom   20 type  2   force =     0.00000000    0.00000000    0.00000000
     atom   21 type  2   force =     0.00000000    0.00000000    0.00000000
     atom   22 type  2   force =     0.00000000    0.00000000    0.00000000
     atom   23 type  3   force =     0.00000000    0.00000000    0.00000000
     The SCF correction term to forces
     atom    1 type  1   force =     0.00167571   -0.00302224    0.00320253
     atom    2 type  1   force =    -0.00462646   -0.00541910   -0.00026995
     atom    3 type  1   force =     0.00200507    0.00209272    0.00249599
     atom    4 type  1   force =     0.00014173    0.00289640    0.00061230
     atom    5 type  1   force =    -0.00133325   -0.00266242    0.00233760
     atom    6 type  1   force =     0.00460027   -0.00659581    0.00084812
     atom    7 type  1   force =    -0.00095520    0.00372422    0.00511947
     atom    8 type  1   force =    -0.00001058    0.01015281   -0.00046847
     atom    9 type  1   force =     0.00029000   -0.00338147   -0.00387380
     atom   10 type  1   force =     0.00479176    0.00171243   -0.00369683
     atom   11 type  1   force =     0.00028932   -0.00516519   -0.00280841
     atom   12 type  1   force =    -0.00916798   -0.00777144    0.00075470
     atom   13 type  1   force =    -0.00292639    0.00515248    0.00021718
     atom   14 type  1   force =     0.00006991    0.00362730   -0.00578465
     atom   15 type  1   force =    -0.00161028    0.00862560   -0.00886588
     atom   16 type  1   force =    -0.00112647   -0.00128343   -0.00024490
     atom   17 type  1   force =    -0.00200762   -0.00282905   -0.00210640
     atom   18 type  1   force =    -0.00414774   -0.00094583   -0.00723870
     atom   19 type  2   force =     0.00227092    0.00818310    0.01838162
     atom   20 type  2   force =    -0.01362007    0.00124713   -0.02964985
     atom   21 type  2   force =    -0.00139604   -0.00382782    0.00377552
     atom   22 type  2   force =    -0.00063628    0.01561064   -0.01235041
     atom   23 type  3   force =    -0.00212701   -0.00036381   -0.00008537

     Total force =    23.729862     Total SCF correction =     0.052933


     Computing stress (Cartesian axis) and pressure


     negative rho (up, down):  1.356E-01 1.325E-01
          total   stress  (Ry/bohr**3)                   (kbar)     P=       22.79
   0.00091345  -0.00015541  -0.00018327          134.37      -22.86      -26.96
  -0.00015541  -0.00014752   0.00003417          -22.86      -21.70        5.03
  -0.00018327   0.00003417  -0.00030116          -26.96        5.03      -44.30


     Entering Dynamics:    iteration =    15
                           time      =   0.0015 pico-seconds


ATOMIC_POSITIONS (angstrom)
Be            4.2221169901        2.0126566352        2.0004735561
Be            4.2233743992        2.0119675332        9.3067560024
Be            2.0010806582        5.8591286832        2.0003350429
Be            2.0003991154        5.8595225266        9.3068817516
Be            8.6657405735        2.0113308584        2.0003232467
Be            8.6650341374        2.0117784580        9.3068808501
Be            6.4427968381        5.8589485556        2.0004202926
Be            6.4440789868        5.8581956304        9.3068444497
Be            4.2231613518        2.0130175538        5.6535917332
Be            2.0013289180        5.8590007423        5.6535446378
Be            8.6647890563        2.0118827549        5.6536925776
Be            6.3677737758        8.0700513816        5.6443021759
Be            6.4431691630        4.5506163528        3.8268258779
Be            3.1335632170        5.2053880645        7.4797529073
Be            5.3107800303        5.2043798294        7.4803694877
Be            5.3552669432        2.6663695321        3.8268513950
Be            7.5326323670        2.6655482078        3.8274893252
Be            4.2229212992        3.3200986672        7.4803774024
W             4.2221246010        4.5768471184        2.4624147146
W             6.4438357836        3.2934437071        6.1172678727
W             6.4440191963        3.2940350796        8.8447995537
W             4.2220844286        4.5768227305        5.1913239668
H             6.8008417855       -5.7629665837        5.5694217959


     kinetic energy (Ekin) =        4639.28711285 Ry
     temperature           =    22196530.35052204 K 
     Ekin + Etot (const)   =        3501.97268487 Ry
     Ions kinetic stress =        50718.43 (kbar)
                                    179.64       -5221.28         -43.15
                                  -5221.28      151960.89        1280.36
                                    -43.15        1280.36          14.76



     Linear momentum :    0.0000000000    0.0000000000    0.0000000000

     The maximum number of steps has been reached.

     End of molecular dynamics calculation

     diffusion coefficients :
     atom     1   D =       0.00000175 cm^2/s
     atom     2   D =       0.00000159 cm^2/s
     atom     3   D =       0.00000120 cm^2/s
     atom     4   D =       0.00000128 cm^2/s
     atom     5   D =       0.00000141 cm^2/s
     atom     6   D =       0.00000153 cm^2/s
     atom     7   D =       0.00000117 cm^2/s
     atom     8   D =       0.00000099 cm^2/s
     atom     9   D =       0.00000187 cm^2/s
     atom    10   D =       0.00000118 cm^2/s
     atom    11   D =       0.00000156 cm^2/s
     atom    12   D =       0.05403165 cm^2/s
     atom    13   D =       0.00000136 cm^2/s
     atom    14   D =       0.00000140 cm^2/s
     atom    15   D =       0.00000116 cm^2/s
     atom    16   D =       0.00000152 cm^2/s
     atom    17   D =       0.00000132 cm^2/s
     atom    18   D =       0.00000131 cm^2/s
     atom    19   D =       0.00000134 cm^2/s
     atom    20   D =       0.00000124 cm^2/s
     atom    21   D =       0.00000136 cm^2/s
     atom    22   D =       0.00000133 cm^2/s
     atom    23   D =       2.39223263 cm^2/s

     < D > =       0.10636057 cm^2/s

     Writing all to output data dir outdir/pwscf.save/

     init_run     :      7.53s CPU      8.55s WALL (       1 calls)
     electrons    :   2093.27s CPU   2483.51s WALL (      15 calls)
     update_pot   :     12.27s CPU     13.56s WALL (      14 calls)
     forces       :    117.33s CPU    138.60s WALL (      15 calls)
     stress       :    174.86s CPU    192.92s WALL (      15 calls)

     Called by init_run:
     wfcinit      :      5.01s CPU      5.74s WALL (       1 calls)
     potinit      :      0.51s CPU      0.54s WALL (       1 calls)
     hinit0       :      0.84s CPU      0.91s WALL (       1 calls)

     Called by electrons:
     c_bands      :   1555.66s CPU   1854.22s WALL (     131 calls)
     sum_band     :    331.21s CPU    391.99s WALL (     131 calls)
     v_of_rho     :     20.62s CPU     24.18s WALL (     146 calls)
     newd         :    202.05s CPU    230.33s WALL (     146 calls)
     mix_rho      :      3.27s CPU      4.32s WALL (     131 calls)

     Called by c_bands:
     init_us_2    :      5.65s CPU      5.87s WALL (     586 calls)
     init_us_2:cp :      5.64s CPU      5.87s WALL (     586 calls)
     regterg      :   1538.38s CPU   1829.50s WALL (     264 calls)

     Called by *egterg:
     rdiaghg      :     14.42s CPU     14.78s WALL (    1650 calls)
     h_psi        :    861.69s CPU    954.24s WALL (    1682 calls)
     s_psi        :    285.50s CPU    286.01s WALL (    1682 calls)
     g_psi        :      0.67s CPU      0.69s WALL (    1416 calls)

     Called by h_psi:
     h_psi:calbec :    402.00s CPU    459.06s WALL (    1682 calls)
     vloc_psi     :    102.95s CPU    137.28s WALL (    1682 calls)
     add_vuspsi   :    355.26s CPU    356.28s WALL (    1682 calls)

     General routines
     calbec       :    612.16s CPU    706.12s WALL (    2094 calls)
     fft          :     15.52s CPU     50.60s WALL (    2714 calls)
     ffts         :      0.46s CPU      0.60s WALL (     131 calls)
     fftw         :    104.02s CPU    141.17s WALL (   68172 calls)

     Parallel routines

     PWSCF        :  40m25.10s CPU  47m40.62s WALL


   This run was terminated on:  20:17:47  14Jun2023            

=------------------------------------------------------------------------------=
   JOB DONE.
=------------------------------------------------------------------------------=
