
     Program PWSCF v.7.2 starts on 14Jun2023 at 12:54:27 

     This program is part of the open-source Quantum ESPRESSO suite
     for quantum simulation of materials; please cite
         "P. Giannozzi et al., J. Phys.:Condens. Matter 21 395502 (2009);
         "P. Giannozzi et al., J. Phys.:Condens. Matter 29 465901 (2017);
         "P. Giannozzi et al., J. Chem. Phys. 152 154105 (2020);
          URL http://www.quantum-espresso.org", 
     in publications or presentations arising from this work. More details at
     http://www.quantum-espresso.org/quote

     Parallel version (MPI), running on    42 processors

     MPI processes distributed on     1 nodes
     176075 MiB available memory on the printing compute node when the environment starts

     Reading input from md_data/md_Be30W8H_30steps_2000eV_incident0_polar0.in
Warning: card &CELL ignored
Warning: card / ignored

     Current dimensions of program PWSCF are:
     Max number of different atomic species (ntypx) = 10
     Max number of k-points (npk) =  40000
     Max angular momentum in pseudopotentials (lmaxx) =  4

     File outdir/pwscf.md deleted, as requested

     gamma-point specific algorithms are used

     R & G space division:  proc/nbgrp/npool/nimage =      42
     Subspace diagonalization in iterative solution of the eigenvalue problem:
     a serial algorithm will be used


     Parallelization info
     --------------------
     sticks:   dense  smooth     PW     G-vecs:    dense   smooth      PW
     Min         546     546    135                63978    63978    7996
     Max         548     548    138                63988    63988    8006
     Sum       22965   22965   5749              2687239  2687239  336055

     Using Slab Decomposition



     bravais-lattice index     =            0
     lattice parameter (alat)  =      32.3337  a.u.
     unit-cell volume          =   15132.7767 (a.u.)^3
     number of atoms/cell      =           39
     number of atomic types    =            3
     number of electrons       =       233.00
     number of Kohn-Sham states=          140
     kinetic-energy cutoff     =     120.0000  Ry
     charge density cutoff     =     480.0000  Ry
     scf convergence threshold =      1.0E-03
     mixing beta               =       0.7000
     number of iterations used =            8  TF        mixing
     energy convergence thresh.=      0.0E+00
     force convergence thresh. =      0.0E+00
     Exchange-correlation=  SLA  PW   PBX  PBC
                           (   1   4   3   4   0   0   0)
     nstep                     =           30


     celldm(1)=  32.333659  celldm(2)=   0.000000  celldm(3)=   0.000000
     celldm(4)=   0.000000  celldm(5)=   0.000000  celldm(6)=   0.000000

     crystal axes: (cart. coord. in units of alat)
               a(1) = (   1.000000   0.000000   0.000000 )  
               a(2) = (   0.000000   0.575603   0.000000 )  
               a(3) = (   0.000000   0.000000   0.777734 )  

     reciprocal axes: (cart. coord. in units 2 pi/alat)
               b(1) = (  1.000000  0.000000  0.000000 )  
               b(2) = (  0.000000  1.737309  0.000000 )  
               b(3) = (  0.000000  0.000000  1.285786 )  


     PseudoPot. # 1 for Be read from file:
     q-e/pseudo/be_pbe_v1.4.uspp.F.UPF
     MD5 check sum: 5ecff1440924c7c98ad504bef30f5264
     Pseudo is Ultrasoft, Zval =  4.0
     Generated by new atomic code, or converted to UPF format
     Using radial grid of  769 points,  6 beta functions with: 
                l(1) =   0
                l(2) =   0
                l(3) =   0
                l(4) =   1
                l(5) =   1
                l(6) =   2
     Q(r) pseudized with 10 coefficients,  rinner =    1.000   1.000   1.000
                                                       1.000   1.000

     PseudoPot. # 2 for W  read from file:
     q-e/pseudo/w_pbe_v1.2.uspp.F.UPF
     MD5 check sum: 9c083fa34c2a2ea0f02f1f893e16e1c8
     Pseudo is Ultrasoft + core correction, Zval = 14.0
     Generated by new atomic code, or converted to UPF format
     Using radial grid of  923 points,  8 beta functions with: 
                l(1) =   0
                l(2) =   0
                l(3) =   0
                l(4) =   1
                l(5) =   1
                l(6) =   2
                l(7) =   2
                l(8) =   3
     Q(r) pseudized with  6 coefficients,  rinner =    1.350   1.350   1.350
                                                       1.350   1.350   1.350
                                                       1.350

     PseudoPot. # 3 for H  read from file:
     q-e/pseudo/h_pbe_v1.4.uspp.F.UPF
     MD5 check sum: 761ae9a214b05c3daf00ab9f6b793d6f
     Pseudo is Ultrasoft, Zval =  1.0
     Generated by new atomic code, or converted to UPF format
     Using radial grid of  615 points,  2 beta functions with: 
                l(1) =   0
                l(2) =   0
     Q(r) pseudized with  8 coefficients,  rinner =    0.700

     atomic species   valence    mass     pseudopotential
        Be             4.00     9.01218     Be( 1.00)
        W             14.00   183.84000     W ( 1.00)
        H              1.00     2.01400     H ( 1.00)

     Starting magnetic structure 
     atomic species   magnetization
        Be           0.000
        W            0.000
        H            0.000

     No symmetry found



   Cartesian axes

     site n.     atom                  positions (alat units)
         1           Be  tau(   1) = (   0.3052002   0.1753336   0.1753336  )
         2           Be  tau(   2) = (   0.3052002   0.1753336   0.6024006  )
         3           Be  tau(   3) = (   0.1753336   0.4002691   0.1753336  )
         4           Be  tau(   4) = (   0.1753336   0.4002691   0.6024006  )
         5           Be  tau(   5) = (   0.5649333   0.1753336   0.1753336  )
         6           Be  tau(   6) = (   0.5649333   0.1753336   0.6024006  )
         7           Be  tau(   7) = (   0.4350667   0.4002691   0.1753336  )
         8           Be  tau(   8) = (   0.4350667   0.4002691   0.6024006  )
         9           Be  tau(   9) = (   0.8246664   0.1753336   0.1753336  )
        10           Be  tau(  10) = (   0.8246664   0.1753336   0.6024006  )
        11           Be  tau(  11) = (   0.6947998   0.4002691   0.1753336  )
        12           Be  tau(  12) = (   0.6947998   0.4002691   0.6024006  )
        13           Be  tau(  13) = (   0.3052002   0.1753336   0.3888671  )
        14           Be  tau(  14) = (   0.1753336   0.4002691   0.3888671  )
        15           Be  tau(  15) = (   0.5649333   0.1753336   0.3888671  )
        16           Be  tau(  16) = (   0.4350667   0.4002691   0.3888671  )
        17           Be  tau(  17) = (   0.8246664   0.1753336   0.3888671  )
        18           Be  tau(  18) = (   0.6947998   0.4002691   0.3888671  )
        19           Be  tau(  19) = (   0.4350667   0.3237532   0.2821004  )
        20           Be  tau(  20) = (   0.6947998   0.3237532   0.2821004  )
        21           Be  tau(  21) = (   0.2415983   0.3620112   0.4956338  )
        22           Be  tau(  22) = (   0.5013314   0.3620112   0.4956338  )
        23           Be  tau(  23) = (   0.3688021   0.3620112   0.4956338  )
        24           Be  tau(  24) = (   0.6285351   0.3620112   0.4956338  )
        25           Be  tau(  25) = (   0.3714649   0.2135916   0.2821004  )
        26           Be  tau(  26) = (   0.6311979   0.2135916   0.2821004  )
        27           Be  tau(  27) = (   0.4986686   0.2135916   0.2821004  )
        28           Be  tau(  28) = (   0.7584017   0.2135916   0.2821004  )
        29           Be  tau(  29) = (   0.3052002   0.2518495   0.4956338  )
        30           Be  tau(  30) = (   0.5649333   0.2518495   0.4956338  )
        31           W   tau(  31) = (   0.3052002   0.3252906   0.2023523  )
        32           W   tau(  32) = (   0.5649333   0.3252906   0.2023523  )
        33           W   tau(  33) = (   0.4350667   0.2503121   0.4158858  )
        34           W   tau(  34) = (   0.6947998   0.2503121   0.4158858  )
        35           W   tau(  35) = (   0.4350667   0.2503121   0.5753819  )
        36           W   tau(  36) = (   0.6947998   0.2503121   0.5753819  )
        37           W   tau(  37) = (   0.3052002   0.3252906   0.3618484  )
        38           W   tau(  38) = (   0.5649333   0.3252906   0.3618484  )
        39           H   tau(  39) = (   0.4350667   0.5727566   0.3574413  )

     number of k points=     1  Gaussian smearing, width (Ry)=  0.0220
                       cart. coord. in units 2pi/alat
        k(    1) = (   0.0000000   0.0000000   0.0000000), wk =   1.0000000

     Dense  grid:  1343620 G-vectors     FFT dimensions: ( 225, 135, 180)

     Estimated max dynamical RAM per process >     346.43 MB

     Estimated total dynamical RAM >      14.21 GB
     Generating pointlists ...
     new r_m :   0.0525 (alat units)  1.6966 (a.u.) for type    1
     new r_m :   0.0629 (alat units)  2.0323 (a.u.) for type    2
     new r_m :   0.0723 (alat units)  2.3384 (a.u.) for type    3

     Initial potential from superposition of free atoms

     starting charge     232.1926, renormalised to     233.0000

     negative rho (up, down):  2.536E-01 2.536E-01
     Starting wfcs are  255 randomized atomic wfcs

     total cpu time spent up to now is       39.0 secs

     Self-consistent Calculation

     iteration #  1     ecut=   120.00 Ry     beta= 0.70
     Davidson diagonalization with overlap
     ethr =  1.00E-02,  avg # of iterations =  2.0

     negative rho (up, down):  2.676E-01 2.677E-01

     total cpu time spent up to now is      136.3 secs

     total energy              =   -2115.79154153 Ry
     estimated scf accuracy    <      17.49535733 Ry

     total magnetization       =     0.00 Bohr mag/cell
     absolute magnetization    =     0.07 Bohr mag/cell

     iteration #  2     ecut=   120.00 Ry     beta= 0.70
     Davidson diagonalization with overlap
     ethr =  7.51E-03,  avg # of iterations =  1.0

     negative rho (up, down):  2.691E-01 2.692E-01

     total cpu time spent up to now is      195.1 secs

     total energy              =   -2115.30689106 Ry
     estimated scf accuracy    <       5.69152041 Ry

     total magnetization       =     0.00 Bohr mag/cell
     absolute magnetization    =     0.12 Bohr mag/cell

     iteration #  3     ecut=   120.00 Ry     beta= 0.70
     Davidson diagonalization with overlap
     ethr =  2.44E-03,  avg # of iterations =  3.0

     negative rho (up, down):  2.674E-01 2.675E-01

     total cpu time spent up to now is      275.5 secs

     total energy              =   -2115.62778601 Ry
     estimated scf accuracy    <       9.33075372 Ry

     total magnetization       =    -0.01 Bohr mag/cell
     absolute magnetization    =     0.14 Bohr mag/cell

     iteration #  4     ecut=   120.00 Ry     beta= 0.70
     Davidson diagonalization with overlap
     ethr =  2.44E-03,  avg # of iterations =  2.0

     negative rho (up, down):  2.677E-01 2.679E-01

     total cpu time spent up to now is      352.4 secs

     total energy              =   -2116.10190398 Ry
     estimated scf accuracy    <       0.82215250 Ry

     total magnetization       =    -0.05 Bohr mag/cell
     absolute magnetization    =     0.19 Bohr mag/cell

     iteration #  5     ecut=   120.00 Ry     beta= 0.70
     Davidson diagonalization with overlap
     ethr =  3.53E-04,  avg # of iterations = 10.0

     negative rho (up, down):  2.684E-01 2.686E-01

     total cpu time spent up to now is      454.5 secs

     total energy              =   -2116.16453762 Ry
     estimated scf accuracy    <       0.36681906 Ry

     total magnetization       =    -0.04 Bohr mag/cell
     absolute magnetization    =     0.11 Bohr mag/cell

     iteration #  6     ecut=   120.00 Ry     beta= 0.70
     Davidson diagonalization with overlap
     ethr =  1.57E-04,  avg # of iterations =  2.0

     negative rho (up, down):  2.686E-01 2.687E-01

     total cpu time spent up to now is      523.0 secs

     total energy              =   -2116.18422479 Ry
     estimated scf accuracy    <       0.26101262 Ry

     total magnetization       =    -0.03 Bohr mag/cell
     absolute magnetization    =     0.09 Bohr mag/cell

     iteration #  7     ecut=   120.00 Ry     beta= 0.70
     Davidson diagonalization with overlap
     ethr =  1.12E-04,  avg # of iterations =  2.0

     negative rho (up, down):  2.682E-01 2.683E-01

     total cpu time spent up to now is      594.9 secs

     total energy              =   -2116.18872754 Ry
     estimated scf accuracy    <       0.18866476 Ry

     total magnetization       =    -0.04 Bohr mag/cell
     absolute magnetization    =     0.08 Bohr mag/cell

     iteration #  8     ecut=   120.00 Ry     beta= 0.70
     Davidson diagonalization with overlap
     ethr =  8.10E-05,  avg # of iterations =  1.0

     negative rho (up, down):  2.682E-01 2.682E-01

     total cpu time spent up to now is      668.3 secs

     total energy              =   -2116.18145765 Ry
     estimated scf accuracy    <       0.12851031 Ry

     total magnetization       =    -0.04 Bohr mag/cell
     absolute magnetization    =     0.09 Bohr mag/cell

     iteration #  9     ecut=   120.00 Ry     beta= 0.70
     Davidson diagonalization with overlap
     ethr =  5.52E-05,  avg # of iterations =  1.0

     negative rho (up, down):  2.681E-01 2.682E-01

     total cpu time spent up to now is      715.4 secs

     total energy              =   -2116.18281486 Ry
     estimated scf accuracy    <       0.06499259 Ry

     total magnetization       =    -0.05 Bohr mag/cell
     absolute magnetization    =     0.11 Bohr mag/cell

     iteration # 10     ecut=   120.00 Ry     beta= 0.70
     Davidson diagonalization with overlap
     ethr =  2.79E-05,  avg # of iterations =  2.0

     negative rho (up, down):  2.679E-01 2.679E-01

     total cpu time spent up to now is      813.1 secs

     total energy              =   -2116.18594806 Ry
     estimated scf accuracy    <       0.03709739 Ry

     total magnetization       =    -0.05 Bohr mag/cell
     absolute magnetization    =     0.13 Bohr mag/cell

     iteration # 11     ecut=   120.00 Ry     beta= 0.70
     Davidson diagonalization with overlap
     ethr =  1.59E-05,  avg # of iterations =  4.0

     negative rho (up, down):  2.677E-01 2.677E-01

     total cpu time spent up to now is      868.6 secs

     total energy              =   -2116.18650286 Ry
     estimated scf accuracy    <       0.05364390 Ry

     total magnetization       =    -0.05 Bohr mag/cell
     absolute magnetization    =     0.17 Bohr mag/cell

     iteration # 12     ecut=   120.00 Ry     beta= 0.70
     Davidson diagonalization with overlap
     ethr =  1.59E-05,  avg # of iterations =  3.5

     negative rho (up, down):  2.675E-01 2.676E-01

     total cpu time spent up to now is      967.1 secs

     total energy              =   -2116.18914034 Ry
     estimated scf accuracy    <       0.01938284 Ry

     total magnetization       =    -0.05 Bohr mag/cell
     absolute magnetization    =     0.20 Bohr mag/cell

     iteration # 13     ecut=   120.00 Ry     beta= 0.70
     Davidson diagonalization with overlap
     ethr =  8.32E-06,  avg # of iterations =  6.5

     negative rho (up, down):  2.676E-01 2.677E-01

     total cpu time spent up to now is     1019.6 secs

     total energy              =   -2116.19130850 Ry
     estimated scf accuracy    <       0.01413797 Ry

     total magnetization       =    -0.05 Bohr mag/cell
     absolute magnetization    =     0.26 Bohr mag/cell

     iteration # 14     ecut=   120.00 Ry     beta= 0.70
     Davidson diagonalization with overlap
     ethr =  6.07E-06,  avg # of iterations =  2.0

     negative rho (up, down):  2.681E-01 2.681E-01

     total cpu time spent up to now is     1108.3 secs

     total energy              =   -2116.19370188 Ry
     estimated scf accuracy    <       0.00733439 Ry

     total magnetization       =    -0.02 Bohr mag/cell
     absolute magnetization    =     0.40 Bohr mag/cell

     iteration # 15     ecut=   120.00 Ry     beta= 0.70
     Davidson diagonalization with overlap
     ethr =  3.15E-06,  avg # of iterations = 13.0

     negative rho (up, down):  2.689E-01 2.688E-01

     total cpu time spent up to now is     1224.3 secs

     total energy              =   -2116.19520912 Ry
     estimated scf accuracy    <       0.00688243 Ry

     total magnetization       =     0.02 Bohr mag/cell
     absolute magnetization    =     0.66 Bohr mag/cell

     iteration # 16     ecut=   120.00 Ry     beta= 0.70
     Davidson diagonalization with overlap
     ethr =  2.95E-06,  avg # of iterations =  2.5

     negative rho (up, down):  2.675E-01 2.676E-01

     total cpu time spent up to now is     1278.6 secs

     total energy              =   -2116.19776327 Ry
     estimated scf accuracy    <       0.00394085 Ry

     total magnetization       =     0.11 Bohr mag/cell
     absolute magnetization    =     0.93 Bohr mag/cell

     iteration # 17     ecut=   120.00 Ry     beta= 0.70
     Davidson diagonalization with overlap
     ethr =  1.69E-06,  avg # of iterations =  6.0

     negative rho (up, down):  2.679E-01 2.679E-01

     total cpu time spent up to now is     1380.2 secs

     total energy              =   -2116.20188157 Ry
     estimated scf accuracy    <       0.00381000 Ry

     total magnetization       =     0.22 Bohr mag/cell
     absolute magnetization    =     1.23 Bohr mag/cell

     iteration # 18     ecut=   120.00 Ry     beta= 0.70
     Davidson diagonalization with overlap
     ethr =  1.64E-06,  avg # of iterations =  8.5

     negative rho (up, down):  2.696E-01 2.695E-01

     total cpu time spent up to now is     1446.0 secs

     total energy              =   -2116.20425079 Ry
     estimated scf accuracy    <       0.01727164 Ry

     total magnetization       =     0.48 Bohr mag/cell
     absolute magnetization    =     1.91 Bohr mag/cell

     iteration # 19     ecut=   120.00 Ry     beta= 0.70
     Davidson diagonalization with overlap
     ethr =  1.64E-06,  avg # of iterations =  4.0

     negative rho (up, down):  2.694E-01 2.693E-01

     total cpu time spent up to now is     1544.2 secs

     total energy              =   -2116.20425189 Ry
     estimated scf accuracy    <       0.01657467 Ry

     total magnetization       =     0.41 Bohr mag/cell
     absolute magnetization    =     1.79 Bohr mag/cell

     iteration # 20     ecut=   120.00 Ry     beta= 0.70
     Davidson diagonalization with overlap
     ethr =  1.64E-06,  avg # of iterations =  1.0

     negative rho (up, down):  2.694E-01 2.693E-01

     total cpu time spent up to now is     1591.7 secs

     total energy              =   -2116.20560665 Ry
     estimated scf accuracy    <       0.01568366 Ry

     total magnetization       =     0.41 Bohr mag/cell
     absolute magnetization    =     1.76 Bohr mag/cell

     iteration # 21     ecut=   120.00 Ry     beta= 0.70
     Davidson diagonalization with overlap
     ethr =  1.64E-06,  avg # of iterations =  1.5

     negative rho (up, down):  2.691E-01 2.690E-01

     total cpu time spent up to now is     1681.5 secs

     total energy              =   -2116.20807439 Ry
     estimated scf accuracy    <       0.01866381 Ry

     total magnetization       =     0.44 Bohr mag/cell
     absolute magnetization    =     1.85 Bohr mag/cell

     iteration # 22     ecut=   120.00 Ry     beta= 0.70
     Davidson diagonalization with overlap
     ethr =  1.64E-06,  avg # of iterations =  5.0

     negative rho (up, down):  2.707E-01 2.705E-01

     total cpu time spent up to now is     1739.8 secs

     total energy              =   -2116.20635446 Ry
     estimated scf accuracy    <       0.01862775 Ry

     total magnetization       =     0.50 Bohr mag/cell
     absolute magnetization    =     2.00 Bohr mag/cell

     iteration # 23     ecut=   120.00 Ry     beta= 0.70
     Davidson diagonalization with overlap
     ethr =  1.64E-06,  avg # of iterations =  2.5

     negative rho (up, down):  2.688E-01 2.687E-01

     total cpu time spent up to now is     1816.8 secs

     total energy              =   -2116.20723780 Ry
     estimated scf accuracy    <       0.01007355 Ry

     total magnetization       =     0.45 Bohr mag/cell
     absolute magnetization    =     1.89 Bohr mag/cell

     iteration # 24     ecut=   120.00 Ry     beta= 0.70
     Davidson diagonalization with overlap
     ethr =  1.64E-06,  avg # of iterations =  3.0

     negative rho (up, down):  2.696E-01 2.695E-01

     total cpu time spent up to now is     1933.5 secs

     total energy              =   -2116.20943718 Ry
     estimated scf accuracy    <       0.00597394 Ry

     total magnetization       =     0.45 Bohr mag/cell
     absolute magnetization    =     1.91 Bohr mag/cell

     iteration # 25     ecut=   120.00 Ry     beta= 0.70
     Davidson diagonalization with overlap
     ethr =  1.64E-06,  avg # of iterations =  3.0

     negative rho (up, down):  2.681E-01 2.680E-01

     total cpu time spent up to now is     1987.2 secs

     total energy              =   -2116.21107299 Ry
     estimated scf accuracy    <       0.00762071 Ry

     total magnetization       =     0.48 Bohr mag/cell
     absolute magnetization    =     2.06 Bohr mag/cell

     iteration # 26     ecut=   120.00 Ry     beta= 0.70
     Davidson diagonalization with overlap
     ethr =  1.64E-06,  avg # of iterations =  6.0

     negative rho (up, down):  2.673E-01 2.674E-01

     total cpu time spent up to now is     2086.0 secs

     total energy              =   -2116.21155336 Ry
     estimated scf accuracy    <       0.00300436 Ry

     total magnetization       =     0.46 Bohr mag/cell
     absolute magnetization    =     2.26 Bohr mag/cell

     iteration # 27     ecut=   120.00 Ry     beta= 0.70
     Davidson diagonalization with overlap
     ethr =  1.29E-06,  avg # of iterations = 11.0

     negative rho (up, down):  2.672E-01 2.674E-01

     total cpu time spent up to now is     2167.5 secs

     total energy              =   -2116.21575913 Ry
     estimated scf accuracy    <       0.00229152 Ry

     total magnetization       =     0.46 Bohr mag/cell
     absolute magnetization    =     2.72 Bohr mag/cell

     iteration # 28     ecut=   120.00 Ry     beta= 0.70
     Davidson diagonalization with overlap
     ethr =  9.83E-07,  avg # of iterations =  7.5

     negative rho (up, down):  2.672E-01 2.674E-01

     total cpu time spent up to now is     2270.2 secs

     total energy              =   -2116.21599021 Ry
     estimated scf accuracy    <       0.00146495 Ry

     total magnetization       =     0.44 Bohr mag/cell
     absolute magnetization    =     2.86 Bohr mag/cell

     iteration # 29     ecut=   120.00 Ry     beta= 0.70
     Davidson diagonalization with overlap
     ethr =  6.29E-07,  avg # of iterations =  4.5

     negative rho (up, down):  2.672E-01 2.674E-01

     Magnetic moment per site  (integrated on atomic sphere of radius R)
     atom   1 (R=0.052)  charge=  2.6318  magn= -0.0248
     atom   2 (R=0.052)  charge=  2.6319  magn= -0.0058
     atom   3 (R=0.052)  charge=  2.5955  magn= -0.0102
     atom   4 (R=0.052)  charge=  2.5929  magn= -0.0914
     atom   5 (R=0.052)  charge=  2.6644  magn= -0.0236
     atom   6 (R=0.052)  charge=  2.6921  magn=  0.0011
     atom   7 (R=0.052)  charge=  2.6918  magn=  0.0006
     atom   8 (R=0.052)  charge=  2.6648  magn= -0.0174
     atom   9 (R=0.052)  charge=  2.5939  magn=  0.0905
     atom  10 (R=0.052)  charge=  2.5959  magn=  0.0192
     atom  11 (R=0.052)  charge=  2.6320  magn= -0.0121
     atom  12 (R=0.052)  charge=  2.6316  magn= -0.0014
     atom  13 (R=0.052)  charge=  2.6963  magn= -0.0046
     atom  14 (R=0.052)  charge=  2.6239  magn= -0.0162
     atom  15 (R=0.052)  charge=  2.7816  magn= -0.0014
     atom  16 (R=0.052)  charge=  2.7810  magn= -0.0171
     atom  17 (R=0.052)  charge=  2.6246  magn=  0.0296
     atom  18 (R=0.052)  charge=  2.6970  magn= -0.0011
     atom  19 (R=0.052)  charge=  2.9442  magn=  0.0005
     atom  20 (R=0.052)  charge=  2.8823  magn= -0.0031
     atom  21 (R=0.052)  charge=  2.8125  magn= -0.0170
     atom  22 (R=0.052)  charge=  2.9008  magn=  0.0013
     atom  23 (R=0.052)  charge=  2.9001  magn=  0.0019
     atom  24 (R=0.052)  charge=  2.8769  magn=  0.0000
     atom  25 (R=0.052)  charge=  2.8763  magn=  0.0001
     atom  26 (R=0.052)  charge=  2.9004  magn= -0.0031
     atom  27 (R=0.052)  charge=  2.9006  magn=  0.0019
     atom  28 (R=0.052)  charge=  2.8128  magn=  0.0188
     atom  29 (R=0.052)  charge=  2.8823  magn=  0.0012
     atom  30 (R=0.052)  charge=  2.9444  magn= -0.0006
     atom  31 (R=0.063)  charge= 10.9145  magn= -0.0522
     atom  32 (R=0.063)  charge= 10.9239  magn= -0.0529
     atom  33 (R=0.063)  charge= 10.9884  magn= -0.0208
     atom  34 (R=0.063)  charge= 10.9339  magn=  0.0269
     atom  35 (R=0.063)  charge= 10.9283  magn= -0.0020
     atom  36 (R=0.063)  charge= 10.9084  magn=  0.0201
     atom  37 (R=0.063)  charge= 10.9314  magn= -0.0027
     atom  38 (R=0.063)  charge= 10.9895  magn=  0.0023
     atom  39 (R=0.072)  charge=  0.9054  magn=  0.7859

     total cpu time spent up to now is     2325.8 secs

     End of self-consistent calculation

 ------ SPIN UP ------------


          k = 0.0000 0.0000 0.0000 (168028 PWs)   bands (ev):

  -103.4370-103.3487-103.0004-102.9998-102.9710-102.9607-102.6954-102.6895
  -102.6237-102.6210-102.5543-102.5508-102.3249-102.3191-101.6672-101.6551
  -101.4243-101.3925-100.9300-100.9115-100.4959-100.4870-100.4698-100.4633
  -100.4088-100.4027-100.3937-100.3914-100.0495-100.0453 -74.9227 -74.9008
   -74.8815 -74.8774 -74.8605 -74.8520 -74.7729 -74.7609 -39.3708 -39.3471
   -39.3175 -39.2609 -39.2314 -39.1792 -39.1624 -39.0931 -39.0653 -39.0521
   -39.0309 -39.0085 -38.9909 -38.9655 -38.9574 -38.9297 -38.8955 -38.8850
   -38.8766 -38.8304 -38.7956 -38.7810 -38.7349 -38.7234  -8.7799  -7.7149
    -7.2599  -6.5857  -6.3616  -6.2852  -5.8366  -5.6753  -5.5294  -5.3394
    -5.1848  -4.8952  -4.8337  -4.8032  -4.6057  -4.1941  -4.1705  -4.1294
    -3.9997  -3.8833  -3.7554  -3.6825  -3.6342  -3.5355  -3.3415  -3.2032
    -3.1888  -3.1382  -3.0759  -2.9432  -2.7946  -2.6718  -2.6308  -2.5538
    -2.4855  -2.4317  -2.3791  -2.2988  -2.1812  -2.1063  -2.0881  -1.9948
    -1.9274  -1.8707  -1.8503  -1.7734  -1.5859  -1.4340  -1.4033  -1.3018
    -1.2965  -1.2168  -1.2011  -1.1168  -1.0386  -1.0106  -0.9601  -0.9358
    -0.9046  -0.7747  -0.7484  -0.6889  -0.6385  -0.5802  -0.5598  -0.4002
    -0.3740  -0.3343  -0.2797  -0.1794  -0.1635  -0.0629  -0.0233  -0.0191
     0.0350   0.0636   0.1402   0.2607

 ------ SPIN DOWN ----------


          k = 0.0000 0.0000 0.0000 (168028 PWs)   bands (ev):

  -103.4212-103.3677-103.0069-102.9857-102.9723-102.9484-102.7000-102.6980
  -102.6400-102.6251-102.5717-102.5648-102.3288-102.3201-101.6668-101.6541
  -101.4253-101.4084-100.9237-100.9170-100.4956-100.4869-100.4680-100.4622
  -100.4074-100.4046-100.3933-100.3929-100.0489-100.0456 -74.9265 -74.9047
   -74.8819 -74.8790 -74.8686 -74.8607 -74.7845 -74.7658 -39.3738 -39.3508
   -39.3233 -39.2712 -39.2408 -39.1785 -39.1675 -39.0958 -39.0597 -39.0563
   -39.0509 -39.0199 -39.0007 -38.9831 -38.9699 -38.9315 -38.9137 -38.8913
   -38.8893 -38.8323 -38.8026 -38.7905 -38.7363 -38.7271  -8.7847  -7.7190
    -7.2638  -6.5883  -6.3654  -6.2972  -5.8497  -5.6785  -5.5359  -5.3418
    -5.1939  -4.9075  -4.8341  -4.8038  -4.6179  -4.2077  -4.1422  -4.1024
    -3.9808  -3.8090  -3.6948  -3.6492  -3.5370  -3.3667  -3.2455  -3.1997
    -3.1442  -3.0836  -2.9546  -2.8025  -2.6857  -2.6431  -2.5583  -2.5058
    -2.4667  -2.4026  -2.3155  -2.2220  -2.1434  -2.1166  -2.0110  -1.9443
    -1.8859  -1.8628  -1.8129  -1.5865  -1.4623  -1.4317  -1.3298  -1.3050
    -1.2564  -1.2158  -1.1560  -1.0998  -1.0400  -0.9919  -0.9568  -0.9255
    -0.8113  -0.7809  -0.7330  -0.7138  -0.6026  -0.5890  -0.4393  -0.4038
    -0.3527  -0.3058  -0.2220  -0.1840  -0.0976  -0.0815  -0.0405  -0.0192
     0.0521   0.1047   0.1232   0.2251

     the Fermi energy is    -1.0605 ev

!    total energy              =   -2116.21608098 Ry
     estimated scf accuracy    <       0.00078139 Ry
     smearing contrib. (-TS)   =      -0.12320325 Ry
     internal energy E=F+TS    =   -2116.09287772 Ry

     total magnetization       =     0.40 Bohr mag/cell
     absolute magnetization    =     2.95 Bohr mag/cell

     convergence has been achieved in  29 iterations

     negative rho (up, down):  2.672E-01 2.674E-01

     Forces acting on atoms (cartesian axes, Ry/au):

     atom    1 type  1   force =     0.00361218    0.05414915    0.02555915
     atom    2 type  1   force =     0.03792354    0.02288030   -0.02602120
     atom    3 type  1   force =     0.03416852   -0.01988310    0.02188457
     atom    4 type  1   force =     0.01289761   -0.00747860   -0.02598417
     atom    5 type  1   force =    -0.00500985    0.05794249    0.03243252
     atom    6 type  1   force =     0.00873794    0.03958679   -0.02734349
     atom    7 type  1   force =    -0.00806671   -0.03958595    0.02758026
     atom    8 type  1   force =     0.00504680   -0.05735800   -0.03233741
     atom    9 type  1   force =    -0.01319143    0.00794604    0.02625877
     atom   10 type  1   force =    -0.03434009    0.02043470   -0.02148280
     atom   11 type  1   force =    -0.03832258   -0.02301311    0.02577260
     atom   12 type  1   force =    -0.00349034   -0.05423282   -0.02518533
     atom   13 type  1   force =     0.01983314    0.05262002   -0.00026689
     atom   14 type  1   force =     0.03905435   -0.02362083   -0.00442607
     atom   15 type  1   force =     0.01748854    0.03538005    0.00133571
     atom   16 type  1   force =    -0.01864546   -0.02807066   -0.00223729
     atom   17 type  1   force =    -0.03870143    0.02356110    0.00462181
     atom   18 type  1   force =    -0.01922819   -0.05334163   -0.00005638
     atom   19 type  1   force =    -0.00509818    0.01653045   -0.01105005
     atom   20 type  1   force =    -0.02482812    0.00374311   -0.00464161
     atom   21 type  1   force =    -0.00791047    0.00694860   -0.02225598
     atom   22 type  1   force =    -0.02576404   -0.00674194   -0.00340800
     atom   23 type  1   force =     0.01196142   -0.01227117   -0.00595158
     atom   24 type  1   force =     0.03052666   -0.02019702    0.00495470
     atom   25 type  1   force =    -0.03026885    0.01972500   -0.00437401
     atom   26 type  1   force =    -0.01310401    0.01177679    0.00560785
     atom   27 type  1   force =     0.02594863    0.00596477    0.00337793
     atom   28 type  1   force =     0.00687009   -0.00632604    0.02248839
     atom   29 type  1   force =     0.02429914   -0.00333330    0.00351831
     atom   30 type  1   force =     0.00532832   -0.01791639    0.01077917
     atom   31 type  2   force =     0.04588211   -0.02897769    0.07780681
     atom   32 type  2   force =     0.00570698   -0.04131844    0.06728773
     atom   33 type  2   force =    -0.01780030    0.00559309    0.01966613
     atom   34 type  2   force =    -0.02770980    0.02204967    0.00774037
     atom   35 type  2   force =    -0.00547743    0.04161813   -0.06638717
     atom   36 type  2   force =    -0.04545423    0.02862980   -0.07921372
     atom   37 type  2   force =     0.02775688   -0.02418125   -0.00827454
     atom   38 type  2   force =     0.01995505   -0.00301010   -0.01912749
     atom   39 type  3   force =    -0.00058641   -0.00622202    0.00135239
     The non-local contrib.  to forces
     atom    1 type  1   force =    -0.03923179   -0.23637764   -0.11807638
     atom    2 type  1   force =    -0.18273964   -0.17917210    0.09643877
     atom    3 type  1   force =    -0.21814157    0.13225036    0.03125825
     atom    4 type  1   force =    -0.08858126    0.04898682    0.18450068
     atom    5 type  1   force =    -0.00981540   -0.25215046   -0.20910888
     atom    6 type  1   force =    -0.01069448   -0.23099619    0.05281115
     atom    7 type  1   force =     0.01119035    0.23420447   -0.05240594
     atom    8 type  1   force =     0.00992971    0.25227800    0.20749429
     atom    9 type  1   force =     0.08859754   -0.04793794   -0.18411637
     atom   10 type  1   force =     0.21760422   -0.13082682   -0.03069311
     atom   11 type  1   force =     0.18155751    0.17814858   -0.09684382
     atom   12 type  1   force =     0.03908533    0.23459126    0.11884344
     atom   13 type  1   force =    -0.16382410   -0.28234262   -0.00915495
     atom   14 type  1   force =    -0.24413105    0.15333134   -0.08711092
     atom   15 type  1   force =    -0.02474061   -0.25108904    0.05644916
     atom   16 type  1   force =     0.02196345    0.24490723   -0.05513747
     atom   17 type  1   force =     0.24383015   -0.15164206    0.08659868
     atom   18 type  1   force =     0.16505834    0.27709550    0.00947541
     atom   19 type  1   force =    -0.00340052    0.01484293    0.00850018
     atom   20 type  1   force =     0.08001924    0.05401206   -0.03655225
     atom   21 type  1   force =    -0.11428086    0.04504923    0.08584560
     atom   22 type  1   force =    -0.00037324    0.08907655    0.04751831
     atom   23 type  1   force =     0.01165176    0.07414817    0.05167687
     atom   24 type  1   force =     0.00160810    0.11893717    0.03473260
     atom   25 type  1   force =     0.00016716   -0.12179373   -0.03446132
     atom   26 type  1   force =    -0.01315549   -0.07324126   -0.05163997
     atom   27 type  1   force =    -0.00066216   -0.09157097   -0.04785462
     atom   28 type  1   force =     0.11359336   -0.04568248   -0.08676120
     atom   29 type  1   force =    -0.08047215   -0.05372742    0.03578415
     atom   30 type  1   force =     0.00385678   -0.01614098   -0.00795042
     atom   31 type  2   force =    -0.09368547    0.00773164   -0.23653728
     atom   32 type  2   force =     0.02233063    0.01402205   -0.25602119
     atom   33 type  2   force =    -0.03225600   -0.09854838   -0.00649899
     atom   34 type  2   force =     0.14971840   -0.04049997   -0.03851008
     atom   35 type  2   force =    -0.02169777   -0.01417397    0.25667675
     atom   36 type  2   force =     0.09267135   -0.00787248    0.23600006
     atom   37 type  2   force =    -0.14972328    0.04099939    0.03700999
     atom   38 type  2   force =     0.03323745    0.10057346    0.00631026
     atom   39 type  3   force =    -0.00017822   -0.00270529    0.00040342
     The ionic contribution  to forces
     atom    1 type  1   force =    -6.92759251   -7.44903448   -7.15717003
     atom    2 type  1   force =    -9.18165011   -5.95130231    7.12881314
     atom    3 type  1   force =    -9.21518146    3.50096597   -4.30374755
     atom    4 type  1   force =    -6.91955884    2.24006945    4.70027325
     atom    5 type  1   force =     2.41103231   -8.56522932   -9.78350737
     atom    6 type  1   force =     2.01976611   -8.46134986    9.36362175
     atom    7 type  1   force =    -1.98472337    8.42379806   -9.40557007
     atom    8 type  1   force =    -2.36126192    8.57113888    9.78657216
     atom    9 type  1   force =     6.90509333   -2.24420513   -4.69002142
     atom   10 type  1   force =     9.18774133   -3.50988189    4.28848663
     atom   11 type  1   force =     9.19378371    5.95799250   -7.11166034
     atom   12 type  1   force =     6.91534246    7.47474048    7.12277892
     atom   13 type  1   force =   -11.80371095  -11.47673131    0.13877852
     atom   14 type  1   force =   -11.78550752    4.72260215    0.00516411
     atom   15 type  1   force =     2.89751198  -14.76663259    0.07078941
     atom   16 type  1   force =    -2.79911459   14.64974776   -0.00402216
     atom   17 type  1   force =    11.74541841   -4.73941592    0.00502722
     atom   18 type  1   force =    11.77501186   11.54446565   -0.10945994
     atom   19 type  1   force =    -3.04527254    4.64632377   -7.98037488
     atom   20 type  1   force =    13.68144298    4.90382267   -7.03578462
     atom   21 type  1   force =   -11.57899927    4.05498847    6.20381744
     atom   22 type  1   force =     1.42649593   11.07835124    8.16321537
     atom   23 type  1   force =    -7.70410526    9.82028390    7.81795379
     atom   24 type  1   force =     6.17211073   10.74332451    7.19928560
     atom   25 type  1   force =    -6.15857450  -10.68966084   -7.21262013
     atom   26 type  1   force =     7.73628218   -9.84490973   -7.77830958
     atom   27 type  1   force =    -1.34824013  -11.05478939   -8.14749639
     atom   28 type  1   force =    11.56499636   -4.06925591   -6.18017849
     atom   29 type  1   force =   -13.67408910   -4.89602511    7.06182993
     atom   30 type  1   force =     3.09118036   -4.67526081    7.97956379
     atom   31 type  2   force =   -28.83707234    5.84445031  -31.56167347
     atom   32 type  2   force =    11.63069346   11.21145438  -40.26795823
     atom   33 type  2   force =   -13.35850892  -23.20351003    5.70958207
     atom   34 type  2   force =    42.64042532  -11.99882101    2.65700675
     atom   35 type  2   force =   -11.47750526  -11.22651335   40.29111909
     atom   36 type  2   force =    28.81272978   -5.89126023   31.48664439
     atom   37 type  2   force =   -42.67022466   11.91147406   -2.61443833
     atom   38 type  2   force =    13.57812679   23.24015235   -5.59174754
     atom   39 type  3   force =    -0.55429215    0.17364266   -0.24458279
     The local contribution  to forces
     atom    1 type  1   force =     6.97073190    7.73837665    7.29849740
     atom    2 type  1   force =     9.40291714    6.15483593   -7.25006823
     atom    3 type  1   force =     9.46601979   -3.65320806    4.29300699
     atom    4 type  1   force =     7.02032758   -2.29599345   -4.90635685
     atom    5 type  1   force =    -2.40306946    8.87435402   10.02285709
     atom    6 type  1   force =    -2.00428406    8.73087063   -9.44225105
     atom    7 type  1   force =     1.96710998   -8.69618688    9.48416761
     atom    8 type  1   force =     2.35422709   -8.88154869  -10.02426722
     atom    9 type  1   force =    -7.00591504    2.29891223    4.89610737
     atom   10 type  1   force =    -9.43749200    3.65995750   -4.27899816
     atom   11 type  1   force =    -9.41215700   -6.15981704    7.23397773
     atom   12 type  1   force =    -6.95866353   -7.76079681   -7.26605076
     atom   13 type  1   force =    11.98542060   11.81287980   -0.12817134
     atom   14 type  1   force =    12.07013556   -4.90064143    0.08220367
     atom   15 type  1   force =    -2.85099291   15.05362596   -0.12635337
     atom   16 type  1   force =     2.75735291  -14.91946057    0.05724021
     atom   17 type  1   force =   -12.03078403    4.91601731   -0.09213989
     atom   18 type  1   force =   -11.95816307  -11.87651903    0.09887612
     atom   19 type  1   force =     3.04456286   -4.64294067    7.96161851
     atom   20 type  1   force =   -13.78348259   -4.95767412    7.06782574
     atom   21 type  1   force =    11.68135191   -4.09021716   -6.30659562
     atom   22 type  1   force =    -1.45372051  -11.17427614   -8.21293597
     atom   23 type  1   force =     7.70196281   -9.90655983   -7.87359985
     atom   24 type  1   force =    -6.14411197  -10.88173587   -7.23201833
     atom   25 type  1   force =     6.12789332   10.83245452    7.24364727
     atom   26 type  1   force =    -7.73059507    9.92942779    7.83554645
     atom   27 type  1   force =     1.37778946   11.15339692    8.19821954
     atom   28 type  1   force =   -11.66581169    4.10473373    6.28468195
     atom   29 type  1   force =    13.77781103    4.94941812   -7.09144603
     atom   30 type  1   force =    -3.09138391    4.67382616   -7.96215694
     atom   31 type  2   force =    28.98592320   -5.88264515   31.90947591
     atom   32 type  2   force =   -11.64343733  -11.27054989   40.62436643
     atom   33 type  2   force =    13.37839020   23.32788220   -5.67605765
     atom   34 type  2   force =   -42.82101500   12.05806867   -2.62498234
     atom   35 type  2   force =    11.49093070   11.28804417  -40.64078204
     atom   36 type  2   force =   -28.95847838    5.92862478  -31.84192380
     atom   37 type  2   force =    42.85497136  -11.97302582    2.57780080
     atom   38 type  2   force =   -13.59017175  -23.35758110    5.56701235
     atom   39 type  3   force =     0.55399713   -0.17806524    0.24573431
     The core correction contribution to forces
     atom    1 type  1   force =     0.00000000    0.00000000    0.00000000
     atom    2 type  1   force =     0.00000000    0.00000000    0.00000000
     atom    3 type  1   force =     0.00000000    0.00000000    0.00000000
     atom    4 type  1   force =     0.00000000    0.00000000    0.00000000
     atom    5 type  1   force =     0.00000000    0.00000000    0.00000000
     atom    6 type  1   force =     0.00000000    0.00000000    0.00000000
     atom    7 type  1   force =     0.00000000    0.00000000    0.00000000
     atom    8 type  1   force =     0.00000000    0.00000000    0.00000000
     atom    9 type  1   force =     0.00000000    0.00000000    0.00000000
     atom   10 type  1   force =     0.00000000    0.00000000    0.00000000
     atom   11 type  1   force =     0.00000000    0.00000000    0.00000000
     atom   12 type  1   force =     0.00000000    0.00000000    0.00000000
     atom   13 type  1   force =     0.00000000    0.00000000    0.00000000
     atom   14 type  1   force =     0.00000000    0.00000000    0.00000000
     atom   15 type  1   force =     0.00000000    0.00000000    0.00000000
     atom   16 type  1   force =     0.00000000    0.00000000    0.00000000
     atom   17 type  1   force =     0.00000000    0.00000000    0.00000000
     atom   18 type  1   force =     0.00000000    0.00000000    0.00000000
     atom   19 type  1   force =     0.00000000    0.00000000    0.00000000
     atom   20 type  1   force =     0.00000000    0.00000000    0.00000000
     atom   21 type  1   force =     0.00000000    0.00000000    0.00000000
     atom   22 type  1   force =     0.00000000    0.00000000    0.00000000
     atom   23 type  1   force =     0.00000000    0.00000000    0.00000000
     atom   24 type  1   force =     0.00000000    0.00000000    0.00000000
     atom   25 type  1   force =     0.00000000    0.00000000    0.00000000
     atom   26 type  1   force =     0.00000000    0.00000000    0.00000000
     atom   27 type  1   force =     0.00000000    0.00000000    0.00000000
     atom   28 type  1   force =     0.00000000    0.00000000    0.00000000
     atom   29 type  1   force =     0.00000000    0.00000000    0.00000000
     atom   30 type  1   force =     0.00000000    0.00000000    0.00000000
     atom   31 type  2   force =    -0.00713617    0.00271949   -0.03497101
     atom   32 type  2   force =     0.00345561    0.00210732   -0.03474286
     atom   33 type  2   force =    -0.00668263   -0.01309592    0.00056799
     atom   34 type  2   force =     0.01284009   -0.00192457   -0.00496702
     atom   35 type  2   force =    -0.00340048   -0.00205792    0.03451752
     atom   36 type  2   force =     0.00702833   -0.00254557    0.03522112
     atom   37 type  2   force =    -0.01257540    0.00207708    0.00486422
     atom   38 type  2   force =     0.00664313    0.01316742   -0.00072279
     atom   39 type  3   force =     0.00000000    0.00000000    0.00000000
     The Hubbard contrib.    to forces
     atom    1 type  1   force =     0.00000000    0.00000000    0.00000000
     atom    2 type  1   force =     0.00000000    0.00000000    0.00000000
     atom    3 type  1   force =     0.00000000    0.00000000    0.00000000
     atom    4 type  1   force =     0.00000000    0.00000000    0.00000000
     atom    5 type  1   force =     0.00000000    0.00000000    0.00000000
     atom    6 type  1   force =     0.00000000    0.00000000    0.00000000
     atom    7 type  1   force =     0.00000000    0.00000000    0.00000000
     atom    8 type  1   force =     0.00000000    0.00000000    0.00000000
     atom    9 type  1   force =     0.00000000    0.00000000    0.00000000
     atom   10 type  1   force =     0.00000000    0.00000000    0.00000000
     atom   11 type  1   force =     0.00000000    0.00000000    0.00000000
     atom   12 type  1   force =     0.00000000    0.00000000    0.00000000
     atom   13 type  1   force =     0.00000000    0.00000000    0.00000000
     atom   14 type  1   force =     0.00000000    0.00000000    0.00000000
     atom   15 type  1   force =     0.00000000    0.00000000    0.00000000
     atom   16 type  1   force =     0.00000000    0.00000000    0.00000000
     atom   17 type  1   force =     0.00000000    0.00000000    0.00000000
     atom   18 type  1   force =     0.00000000    0.00000000    0.00000000
     atom   19 type  1   force =     0.00000000    0.00000000    0.00000000
     atom   20 type  1   force =     0.00000000    0.00000000    0.00000000
     atom   21 type  1   force =     0.00000000    0.00000000    0.00000000
     atom   22 type  1   force =     0.00000000    0.00000000    0.00000000
     atom   23 type  1   force =     0.00000000    0.00000000    0.00000000
     atom   24 type  1   force =     0.00000000    0.00000000    0.00000000
     atom   25 type  1   force =     0.00000000    0.00000000    0.00000000
     atom   26 type  1   force =     0.00000000    0.00000000    0.00000000
     atom   27 type  1   force =     0.00000000    0.00000000    0.00000000
     atom   28 type  1   force =     0.00000000    0.00000000    0.00000000
     atom   29 type  1   force =     0.00000000    0.00000000    0.00000000
     atom   30 type  1   force =     0.00000000    0.00000000    0.00000000
     atom   31 type  2   force =     0.00000000    0.00000000    0.00000000
     atom   32 type  2   force =     0.00000000    0.00000000    0.00000000
     atom   33 type  2   force =     0.00000000    0.00000000    0.00000000
     atom   34 type  2   force =     0.00000000    0.00000000    0.00000000
     atom   35 type  2   force =     0.00000000    0.00000000    0.00000000
     atom   36 type  2   force =     0.00000000    0.00000000    0.00000000
     atom   37 type  2   force =     0.00000000    0.00000000    0.00000000
     atom   38 type  2   force =     0.00000000    0.00000000    0.00000000
     atom   39 type  3   force =     0.00000000    0.00000000    0.00000000
     The SCF correction term to forces
     atom    1 type  1   force =    -0.00033542    0.00112456    0.00230860
     atom    2 type  1   force =    -0.00064386   -0.00154128   -0.00120445
     atom    3 type  1   force =     0.00143175    0.00004858    0.00136732
     atom    4 type  1   force =     0.00067012   -0.00060147   -0.00440082
     atom    5 type  1   force =    -0.00319730    0.00090820    0.00219212
     atom    6 type  1   force =     0.00391036    0.00100216   -0.00152491
     atom    7 type  1   force =    -0.00168367   -0.00146165    0.00138909
     atom    8 type  1   force =     0.00211192    0.00071374   -0.00213621
     atom    9 type  1   force =    -0.00100726    0.00111683    0.00428964
     atom   10 type  1   force =    -0.00223365    0.00112586   -0.00027774
     atom   11 type  1   force =    -0.00154680    0.00060279    0.00029947
     atom   12 type  1   force =     0.00070539   -0.00282781   -0.00075648
     atom   13 type  1   force =     0.00190758   -0.00124591   -0.00171868
     atom   14 type  1   force =    -0.00148264    0.00102706   -0.00468249
     atom   15 type  1   force =    -0.00432993   -0.00058433    0.00045094
     atom   16 type  1   force =     0.00111277   -0.00332514   -0.00031743
     atom   17 type  1   force =     0.00279403   -0.00145829    0.00513623
     atom   18 type  1   force =    -0.00117533    0.00155619    0.00105247
     atom   19 type  1   force =    -0.00102799   -0.00175563   -0.00079342
     atom   20 type  1   force =    -0.00284775    0.00352244   -0.00013003
     atom   21 type  1   force =     0.00397775   -0.00293199   -0.00532296
     atom   22 type  1   force =     0.00179378    0.00004637   -0.00120528
     atom   23 type  1   force =     0.00241210   -0.00020347   -0.00198196
     atom   24 type  1   force =     0.00087980   -0.00078289    0.00295528
     atom   25 type  1   force =     0.00020517   -0.00133500   -0.00093939
     atom   26 type  1   force =    -0.00567563    0.00043994    0.00001139
     atom   27 type  1   force =    -0.00297854   -0.00113184    0.00050984
     atom   28 type  1   force =    -0.00594795    0.00381856    0.00474656
     atom   29 type  1   force =     0.00100935   -0.00305894   -0.00264929
     atom   30 type  1   force =     0.00163508   -0.00040082    0.00132319
     atom   31 type  2   force =    -0.00218711   -0.00129403    0.00151310
     atom   32 type  2   force =    -0.00737538    0.00158764    0.00164401
     atom   33 type  2   force =     0.00121704   -0.00719482   -0.00792685
     atom   34 type  2   force =    -0.00971862    0.00516649    0.01919350
     atom   35 type  2   force =     0.00615538   -0.00374086   -0.00791806
     atom   36 type  2   force =     0.00055468    0.00162326    0.00484495
     atom   37 type  2   force =     0.00526885   -0.00576603   -0.01351079
     atom   38 type  2   force =    -0.00792057    0.00061772    0.00002066
     atom   39 type  3   force =    -0.00015318    0.00084579   -0.00020211

     Total force =     0.297121     Total SCF correction =     0.039952
     SCF correction compared to forces is large: reduce conv_thr to get better values


     Computing stress (Cartesian axis) and pressure


     negative rho (up, down):  2.672E-01 2.674E-01
          total   stress  (Ry/bohr**3)                   (kbar)     P=      -31.47
  -0.00021241   0.00001444  -0.00000744          -31.25        2.12       -1.09
   0.00001444  -0.00016921   0.00000382            2.12      -24.89        0.56
  -0.00000744   0.00000382  -0.00026007           -1.09        0.56      -38.26


     Molecular Dynamics Calculation

     Starting temperature  =   300.00 K

     temperature is set once at start

     mass Be               =     9.01
     mass W                =   183.84
     mass H                =     2.01
     Time step             =     2.10 a.u.,  0.1016 femto-seconds

     Entering Dynamics:    iteration =     1
                           time      =   0.0001 pico-seconds


ATOMIC_POSITIONS (angstrom)
Be            5.2220476041        3.0000076920        3.0005431713
Be            5.2220524781        3.0000032502       10.3077515352
Be            3.0000048537        6.8486956336        3.0005426493
Be            3.0000018321        6.8486973956       10.3077515404
Be            9.6661405603        3.0000082309        3.0005441477
Be            9.6661425132        3.0000056234       10.3077513473
Be            7.4440930361        6.8486928347        3.0005434584
Be            7.4440948989        6.8486903101       10.3077506379
Be           14.1102335791        3.0000011288        3.0005432707
Be           14.1102305749        3.0000029028       10.3077521799
Be           11.8881829192        6.8486951889        3.0005432016
Be           11.8881878672        6.8486907541       10.3077516539
Be            5.2220499084        3.0000074748        6.6541473477
Be            3.0000055478        6.8486951026        6.6541467568
Be            9.6661437563        3.0000050258        6.6541475753
Be            7.4440915334        6.8486944705        6.6541470678
Be           14.1102299554        3.0000033469        6.6541480421
Be           11.8881856316        6.8486908807        6.6541473776
Be            7.4440933248        5.5394965222        4.8273418939
Be           11.8881847031        5.5394947057        4.8273428042
Be            4.1338031773        6.1940971881        8.4809481470
Be            8.5778948221        6.1940952433        8.4809508244
Be            6.3102917782        6.1940944578        8.4809504631
Be           10.7543885974        6.1940933320        8.4809520124
Be            6.3558470592        3.6546050010        4.8273428422
Be           10.7999436785        3.6546038719        4.8273442602
Be            8.5323406241        3.6546030463        4.8273439434
Be           12.9764320949        3.6546013004        4.8273466581
Be            5.2220505428        4.3092039245        8.4809518083
Be            9.6661420289        4.3092018529        8.4809528398
W             5.2220474105        5.5657988462        3.4628363334
W             9.6661413117        5.5657987603        3.4628362601
W             7.4440941240        4.2828995629        7.1164439375
W            11.8881882360        4.2828996775        7.1164438545
W             7.4440942099        4.2828998138        9.8454583543
W            11.8881881125        4.2828997234        9.8454582649
W             5.2220472843        5.5657988796        6.1918511319
W             9.6661414110        5.5657990270        6.1918510564
H             7.4440938072        9.7999960450        5.6494769930


     kinetic energy (Ekin) =         161.87890716 Ry
     temperature           =      448397.50810729 K 
     Ekin + Etot (const)   =       -1954.33717381 Ry
     Ions kinetic stress =         1049.08 (kbar)
                                      0.00           0.00           0.00
                                      0.00           0.00           0.00
                                      0.00           0.00        3147.24



     Linear momentum :    0.0000000000    0.0000000000    0.0000000000

     File outdir/pwscf.msd.dat deleted, as requested

     Writing config-only to output data dir outdir/pwscf.save/
     NEW-OLD atomic charge density approx. for the potential

     negative rho (up, down):  2.672E-01 2.674E-01
     Generating pointlists ...

     total cpu time spent up to now is     2443.3 secs

     Self-consistent Calculation

     iteration #  1     ecut=   120.00 Ry     beta= 0.70
     Davidson diagonalization with overlap
     ethr =  1.00E-06,  avg # of iterations = 17.5

     negative rho (up, down):  2.675E-01 2.678E-01

     total cpu time spent up to now is     2602.6 secs

     total energy              =   -2116.20300887 Ry
     estimated scf accuracy    <       0.06366629 Ry

     total magnetization       =     0.25 Bohr mag/cell
     absolute magnetization    =     2.92 Bohr mag/cell

     iteration #  2     ecut=   120.00 Ry     beta= 0.70
     Davidson diagonalization with overlap
     ethr =  2.73E-05,  avg # of iterations =  3.0

     negative rho (up, down):  2.673E-01 2.675E-01

     total cpu time spent up to now is     2659.8 secs

     total energy              =   -2116.19802872 Ry
     estimated scf accuracy    <       0.33333809 Ry

     total magnetization       =     0.20 Bohr mag/cell
     absolute magnetization    =     3.21 Bohr mag/cell

     iteration #  3     ecut=   120.00 Ry     beta= 0.70
     Davidson diagonalization with overlap
     ethr =  2.73E-05,  avg # of iterations =  2.0

     negative rho (up, down):  2.671E-01 2.674E-01

     total cpu time spent up to now is     2784.1 secs

     total energy              =   -2116.21439248 Ry
     estimated scf accuracy    <       0.00483773 Ry

     total magnetization       =     0.23 Bohr mag/cell
     absolute magnetization    =     3.21 Bohr mag/cell

     iteration #  4     ecut=   120.00 Ry     beta= 0.70
     Davidson diagonalization with overlap
     ethr =  2.08E-06,  avg # of iterations =  5.5

     negative rho (up, down):  2.671E-01 2.674E-01

     total cpu time spent up to now is     2883.6 secs

     total energy              =   -2116.21538451 Ry
     estimated scf accuracy    <       0.01186960 Ry

     total magnetization       =     0.19 Bohr mag/cell
     absolute magnetization    =     3.32 Bohr mag/cell

     iteration #  5     ecut=   120.00 Ry     beta= 0.70
     Davidson diagonalization with overlap
     ethr =  2.08E-06,  avg # of iterations =  1.0

     negative rho (up, down):  2.671E-01 2.674E-01

     total cpu time spent up to now is     2970.4 secs

     total energy              =   -2116.21564656 Ry
     estimated scf accuracy    <       0.00286656 Ry

     total magnetization       =     0.16 Bohr mag/cell
     absolute magnetization    =     3.44 Bohr mag/cell

     iteration #  6     ecut=   120.00 Ry     beta= 0.70
     Davidson diagonalization with overlap
     ethr =  1.23E-06,  avg # of iterations =  2.0

     negative rho (up, down):  2.671E-01 2.675E-01

     Magnetic moment per site  (integrated on atomic sphere of radius R)
     atom   1 (R=0.052)  charge=  2.6318  magn= -0.0361
     atom   2 (R=0.052)  charge=  2.6322  magn= -0.0074
     atom   3 (R=0.052)  charge=  2.5966  magn= -0.0200
     atom   4 (R=0.052)  charge=  2.5908  magn= -0.0943
     atom   5 (R=0.052)  charge=  2.6642  magn= -0.0385
     atom   6 (R=0.052)  charge=  2.6913  magn=  0.0012
     atom   7 (R=0.052)  charge=  2.6904  magn= -0.0003
     atom   8 (R=0.052)  charge=  2.6645  magn= -0.0229
     atom   9 (R=0.052)  charge=  2.5913  magn=  0.0934
     atom  10 (R=0.052)  charge=  2.5962  magn=  0.0305
     atom  11 (R=0.052)  charge=  2.6317  magn= -0.0220
     atom  12 (R=0.052)  charge=  2.6307  magn=  0.0002
     atom  13 (R=0.052)  charge=  2.6961  magn= -0.0027
     atom  14 (R=0.052)  charge=  2.6239  magn= -0.0212
     atom  15 (R=0.052)  charge=  2.7819  magn=  0.0001
     atom  16 (R=0.052)  charge=  2.7794  magn= -0.0148
     atom  17 (R=0.052)  charge=  2.6246  magn=  0.0356
     atom  18 (R=0.052)  charge=  2.6971  magn= -0.0016
     atom  19 (R=0.052)  charge=  2.9439  magn=  0.0011
     atom  20 (R=0.052)  charge=  2.8825  magn= -0.0039
     atom  21 (R=0.052)  charge=  2.8118  magn= -0.0169
     atom  22 (R=0.052)  charge=  2.9011  magn=  0.0019
     atom  23 (R=0.052)  charge=  2.9003  magn=  0.0016
     atom  24 (R=0.052)  charge=  2.8766  magn= -0.0010
     atom  25 (R=0.052)  charge=  2.8757  magn= -0.0002
     atom  26 (R=0.052)  charge=  2.9005  magn= -0.0035
     atom  27 (R=0.052)  charge=  2.9006  magn=  0.0008
     atom  28 (R=0.052)  charge=  2.8124  magn=  0.0170
     atom  29 (R=0.052)  charge=  2.8827  magn=  0.0010
     atom  30 (R=0.052)  charge=  2.9444  magn= -0.0014
     atom  31 (R=0.063)  charge= 10.9353  magn= -0.1052
     atom  32 (R=0.063)  charge= 10.9235  magn= -0.0866
     atom  33 (R=0.063)  charge= 10.9947  magn= -0.0261
     atom  34 (R=0.063)  charge= 10.9196  magn=  0.0237
     atom  35 (R=0.063)  charge= 10.9127  magn= -0.0101
     atom  36 (R=0.063)  charge= 10.9323  magn=  0.0536
     atom  37 (R=0.063)  charge= 10.9277  magn=  0.0007
     atom  38 (R=0.063)  charge= 10.9904  magn=  0.0055
     atom  39 (R=0.072)  charge=  0.9144  magn=  0.7847

     total cpu time spent up to now is     3028.5 secs

     End of self-consistent calculation

 ------ SPIN UP ------------


          k = 0.0000 0.0000 0.0000 (168028 PWs)   bands (ev):

  -103.4127-103.3129-102.9893-102.9874-102.9669-102.9488-102.7019-102.6973
  -102.6191-102.6084-102.5613-102.5597-102.3195-102.3179-101.6649-101.6569
  -101.4164-101.3929-100.9207-100.8995-100.5008-100.4868-100.4737-100.4641
  -100.4108-100.4047-100.3973-100.3942-100.0569-100.0471 -74.9258 -74.9007
   -74.8812 -74.8718 -74.8570 -74.8454 -74.8000 -74.7656 -39.3737 -39.3476
   -39.3170 -39.2605 -39.2316 -39.1875 -39.1628 -39.0932 -39.0670 -39.0459
   -39.0224 -39.0004 -38.9906 -38.9762 -38.9557 -38.9261 -38.9232 -38.8851
   -38.8751 -38.8317 -38.7949 -38.7814 -38.7450 -38.7260  -8.7808  -7.7136
    -7.2612  -6.5843  -6.3601  -6.2864  -5.8354  -5.6724  -5.5285  -5.3372
    -5.1846  -4.8922  -4.8310  -4.7983  -4.6032  -4.1917  -4.1728  -4.1271
    -3.9948  -3.8972  -3.7681  -3.6778  -3.6225  -3.5352  -3.3407  -3.2081
    -3.1914  -3.1276  -3.0715  -2.9384  -2.7931  -2.6696  -2.6300  -2.5504
    -2.4872  -2.4232  -2.3768  -2.2938  -2.1791  -2.1048  -2.0912  -1.9961
    -1.9267  -1.8707  -1.8483  -1.7800  -1.5869  -1.4329  -1.4049  -1.2965
    -1.2910  -1.2137  -1.2044  -1.1116  -1.0401  -1.0047  -0.9511  -0.9284
    -0.8885  -0.7709  -0.7423  -0.6703  -0.6384  -0.5669  -0.5593  -0.3724
    -0.3531  -0.3260  -0.2755  -0.1823  -0.1557  -0.0603  -0.0222  -0.0044
     0.0456   0.0792   0.1533   0.2710

 ------ SPIN DOWN ----------


          k = 0.0000 0.0000 0.0000 (168028 PWs)   bands (ev):

  -103.3927-103.3353-103.0025-102.9649-102.9647-102.9386-102.7129-102.7080
  -102.6354-102.6198-102.5883-102.5803-102.3208-102.3207-101.6651-101.6558
  -101.4167-101.4066-100.9131-100.9074-100.5006-100.4873-100.4726-100.4627
  -100.4096-100.4070-100.3966-100.3965-100.0559-100.0479 -74.9302 -74.9076
   -74.8860 -74.8745 -74.8684 -74.8611 -74.8114 -74.7776 -39.3777 -39.3531
   -39.3256 -39.2739 -39.2443 -39.1881 -39.1710 -39.0987 -39.0678 -39.0585
   -39.0472 -39.0222 -39.0089 -38.9975 -38.9795 -38.9435 -38.9324 -38.9006
   -38.8927 -38.8351 -38.8066 -38.7938 -38.7462 -38.7330  -8.7864  -7.7192
    -7.2682  -6.5892  -6.3664  -6.2989  -5.8542  -5.6775  -5.5368  -5.3425
    -5.1983  -4.9095  -4.8365  -4.7979  -4.6202  -4.2136  -4.1439  -4.1062
    -3.9778  -3.8104  -3.6974  -3.6484  -3.5356  -3.3709  -3.2494  -3.2068
    -3.1361  -3.0822  -2.9568  -2.8035  -2.6895  -2.6488  -2.5589  -2.5146
    -2.4634  -2.4029  -2.3183  -2.2243  -2.1493  -2.1173  -2.0166  -1.9467
    -1.8854  -1.8689  -1.8156  -1.5909  -1.4717  -1.4415  -1.3397  -1.3096
    -1.2675  -1.2283  -1.1678  -1.1162  -1.0536  -0.9989  -0.9625  -0.9267
    -0.8224  -0.7814  -0.7438  -0.7195  -0.6038  -0.5842  -0.4346  -0.3654
    -0.3499  -0.3069  -0.2350  -0.1879  -0.1081  -0.0641  -0.0367  -0.0269
     0.0672   0.1008   0.1456   0.2180

     the Fermi energy is    -1.0626 ev

!    total energy              =   -2116.21537644 Ry
     estimated scf accuracy    <       0.00071513 Ry
     smearing contrib. (-TS)   =      -0.12186954 Ry
     internal energy E=F+TS    =   -2116.09350689 Ry

     total magnetization       =     0.14 Bohr mag/cell
     absolute magnetization    =     3.50 Bohr mag/cell

     convergence has been achieved in   6 iterations

     negative rho (up, down):  2.671E-01 2.675E-01

     Forces acting on atoms (cartesian axes, Ry/au):

     atom    1 type  1   force =     0.00400670    0.05286982    0.02373479
     atom    2 type  1   force =     0.03880003    0.02386540   -0.02578747
     atom    3 type  1   force =     0.03215071   -0.01980572    0.02041999
     atom    4 type  1   force =     0.01276115   -0.00750023   -0.02399280
     atom    5 type  1   force =    -0.00332384    0.05799421    0.03139870
     atom    6 type  1   force =     0.00623078    0.03900357   -0.02629478
     atom    7 type  1   force =    -0.00560382   -0.03833433    0.02622877
     atom    8 type  1   force =     0.00432846   -0.05819654   -0.03188040
     atom    9 type  1   force =    -0.01333832    0.00758731    0.02492326
     atom   10 type  1   force =    -0.03329677    0.01962077   -0.02088065
     atom   11 type  1   force =    -0.03796892   -0.02358742    0.02567262
     atom   12 type  1   force =    -0.00412544   -0.05251015   -0.02440177
     atom   13 type  1   force =     0.01930696    0.05310626    0.00150028
     atom   14 type  1   force =     0.03918249   -0.02408807   -0.00201639
     atom   15 type  1   force =     0.01973157    0.03606169    0.00138275
     atom   16 type  1   force =    -0.01859042   -0.02761789   -0.00175792
     atom   17 type  1   force =    -0.03982650    0.02374346    0.00284920
     atom   18 type  1   force =    -0.01886740   -0.05422217   -0.00066593
     atom   19 type  1   force =    -0.00275358    0.01668370   -0.01046028
     atom   20 type  1   force =    -0.02437911    0.00254192   -0.00449288
     atom   21 type  1   force =    -0.00874022    0.00763536   -0.01998536
     atom   22 type  1   force =    -0.02656912   -0.00740965   -0.00182943
     atom   23 type  1   force =     0.01208574   -0.01294094   -0.00387579
     atom   24 type  1   force =     0.02952281   -0.01937668    0.00361888
     atom   25 type  1   force =    -0.02953189    0.01916783   -0.00314069
     atom   26 type  1   force =    -0.01111317    0.01222114    0.00581360
     atom   27 type  1   force =     0.02826504    0.00658581    0.00329487
     atom   28 type  1   force =     0.00796200   -0.00730712    0.02144386
     atom   29 type  1   force =     0.02513440   -0.00256219    0.00566081
     atom   30 type  1   force =     0.00344034   -0.01779189    0.01042904
     atom   31 type  2   force =     0.04381719   -0.02852236    0.07666234
     atom   32 type  2   force =     0.00389535   -0.04129637    0.06811097
     atom   33 type  2   force =    -0.01848449    0.00403263    0.01549315
     atom   34 type  2   force =    -0.02896099    0.02299152    0.01397364
     atom   35 type  2   force =    -0.00518690    0.04111513   -0.07066153
     atom   36 type  2   force =    -0.04404980    0.02821634   -0.07570105
     atom   37 type  2   force =     0.02794975   -0.02494964   -0.01459368
     atom   38 type  2   force =     0.01672021   -0.00250331   -0.02010613
     atom   39 type  3   force =    -0.00058098   -0.00452123   -0.00008658
     The non-local contrib.  to forces
     atom    1 type  1   force =    -0.03809241   -0.23682991   -0.12081584
     atom    2 type  1   force =    -0.18173765   -0.17761130    0.09815916
     atom    3 type  1   force =    -0.21941446    0.13139139    0.02947731
     atom    4 type  1   force =    -0.08709087    0.04857044    0.18654342
     atom    5 type  1   force =    -0.00687970   -0.25150386   -0.21222982
     atom    6 type  1   force =    -0.01447813   -0.23182485    0.05567814
     atom    7 type  1   force =     0.01468369    0.23525842   -0.05508547
     atom    8 type  1   force =     0.00900027    0.25246306    0.21045951
     atom    9 type  1   force =     0.08788707   -0.04847803   -0.18648247
     atom   10 type  1   force =     0.21804822   -0.13111150   -0.02907230
     atom   11 type  1   force =     0.18294505    0.17877293   -0.09862385
     atom   12 type  1   force =     0.03746424    0.23746871    0.12097402
     atom   13 type  1   force =    -0.16439791   -0.28096877   -0.00728532
     atom   14 type  1   force =    -0.24403077    0.15233365   -0.08408357
     atom   15 type  1   force =    -0.02230753   -0.24908165    0.05692637
     atom   16 type  1   force =     0.02266441    0.24650350   -0.05474360
     atom   17 type  1   force =     0.24303971   -0.15121840    0.08505731
     atom   18 type  1   force =     0.16520242    0.27720051    0.00892823
     atom   19 type  1   force =    -0.00085256    0.01612738    0.00936913
     atom   20 type  1   force =     0.08025942    0.05320429   -0.03683849
     atom   21 type  1   force =    -0.11306840    0.04473994    0.08670360
     atom   22 type  1   force =    -0.00129996    0.08820370    0.04910164
     atom   23 type  1   force =     0.01190027    0.07329917    0.05415341
     atom   24 type  1   force =     0.00054149    0.12015205    0.03351810
     atom   25 type  1   force =     0.00119397   -0.12296036   -0.03376025
     atom   26 type  1   force =    -0.01154709   -0.07284884   -0.05195021
     atom   27 type  1   force =     0.00129959   -0.09100705   -0.04847021
     atom   28 type  1   force =     0.11288391   -0.04543706   -0.08628023
     atom   29 type  1   force =    -0.07980685   -0.05286361    0.03837894
     atom   30 type  1   force =     0.00203039   -0.01588473   -0.00768744
     atom   31 type  2   force =    -0.09438108    0.00817600   -0.23739193
     atom   32 type  2   force =     0.02092395    0.01386892   -0.25652017
     atom   33 type  2   force =    -0.03270765   -0.09932921   -0.01017550
     atom   34 type  2   force =     0.14812129   -0.03915872   -0.03204293
     atom   35 type  2   force =    -0.02140680   -0.01441471    0.25518333
     atom   36 type  2   force =     0.09223003   -0.00722583    0.23827392
     atom   37 type  2   force =    -0.14846931    0.04037592    0.03089580
     atom   38 type  2   force =     0.02988583    0.10137267    0.00573974
     atom   39 type  3   force =    -0.00020812   -0.00203077    0.00032510
     The ionic contribution  to forces
     atom    1 type  1   force =    -6.93611725   -7.43980969   -7.16003776
     atom    2 type  1   force =    -9.17730889   -5.95545781    7.12150871
     atom    3 type  1   force =    -9.22003526    3.49888048   -4.30367036
     atom    4 type  1   force =    -6.91631268    2.24134352    4.69724359
     atom    5 type  1   force =     2.41954372   -8.55600594   -9.78639032
     atom    6 type  1   force =     2.01539457   -8.46549484    9.35632044
     atom    7 type  1   force =    -1.98472137    8.40401402   -9.41450907
     atom    8 type  1   force =    -2.36126475    8.57820379    9.77518627
     atom    9 type  1   force =     6.90663553   -2.24383463   -4.68970181
     atom   10 type  1   force =     9.18657122   -3.51017788    4.28731419
     atom   11 type  1   force =     9.19863134    5.95592006   -7.11159687
     atom   12 type  1   force =     6.91210124    7.47605445    7.11976890
     atom   13 type  1   force =   -11.79729412  -11.48461311    0.15478034
     atom   14 type  1   force =   -11.78314137    4.72378612    0.01100594
     atom   15 type  1   force =     2.89106062  -14.77449018    0.08679083
     atom   16 type  1   force =    -2.79910975   14.67549187    0.02568278
     atom   17 type  1   force =    11.74482780   -4.73960174    0.00725589
     atom   18 type  1   force =    11.77263262   11.54567477   -0.10361728
     atom   19 type  1   force =    -3.04526158    4.64079928   -7.96810615
     atom   20 type  1   force =    13.68344594    4.90326993   -7.03155947
     atom   21 type  1   force =   -11.57339482    4.05856257    6.20470313
     atom   22 type  1   force =     1.42163116   11.08952923    8.16222874
     atom   23 type  1   force =    -7.69923533    9.83146418    7.81698349
     atom   24 type  1   force =     6.16648639   10.74691026    7.20015694
     atom   25 type  1   force =    -6.16230519  -10.67976699   -7.19892258
     atom   26 type  1   force =     7.73985342   -9.84252508   -7.77131219
     atom   27 type  1   force =    -1.34451975  -11.04489705   -8.13379497
     atom   28 type  1   force =    11.56640720   -4.06885577   -6.17723627
     atom   29 type  1   force =   -13.66953105   -4.89890093    7.06285996
     atom   30 type  1   force =     3.08658917   -4.67814161    7.98057323
     atom   31 type  2   force =   -28.85391789    5.83177357  -31.55530766
     atom   32 type  2   force =    11.64750402   11.19878349  -40.26159650
     atom   33 type  2   force =   -13.35847631  -23.22221347    5.74720575
     atom   34 type  2   force =    42.63268414  -12.00078532    2.67071160
     atom   35 type  2   force =   -11.47749502  -11.23694094   40.27105014
     atom   36 type  2   force =    28.80276460   -5.89324119   31.48059854
     atom   37 type  2   force =   -42.66653537   11.91481412   -2.57500822
     atom   38 type  2   force =    13.57438173   23.24352306   -5.55228900
     atom   39 type  3   force =    -0.54316867    0.17695540   -0.44527290
     The local contribution  to forces
     atom    1 type  1   force =     6.97736562    7.73374852    7.30729828
     atom    2 type  1   force =     9.39409611    6.15472676   -7.24566261
     atom    3 type  1   force =     9.47792240   -3.65254028    4.29729383
     atom    4 type  1   force =     7.01409201   -2.29630803   -4.90620484
     atom    5 type  1   force =    -2.41838133    8.86317905   10.03081658
     atom    6 type  1   force =    -1.98769850    8.73629801   -9.44004349
     atom    7 type  1   force =     1.95703600   -8.67845124    9.49910788
     atom    8 type  1   force =     2.35621397   -8.88539204  -10.01737673
     atom    9 type  1   force =    -7.00518036    2.29880304    4.89816788
     atom   10 type  1   force =    -9.44108938    3.66338716   -4.28101210
     atom   11 type  1   force =    -9.41908774   -6.15744866    7.23632134
     atom   12 type  1   force =    -6.95209448   -7.77042671   -7.26669010
     atom   13 type  1   force =    11.98083307   11.81881131   -0.14935897
     atom   14 type  1   force =    12.06771570   -4.90037634    0.06936612
     atom   15 type  1   force =    -2.85200912   15.05814999   -0.14352463
     atom   16 type  1   force =     2.75609952  -14.95008412    0.02400202
     atom   17 type  1   force =   -12.02661880    4.91451592   -0.09040855
     atom   18 type  1   force =   -11.95657165  -11.87584169    0.09422276
     atom   19 type  1   force =     3.03697351   -4.64011540    7.94645071
     atom   20 type  1   force =   -13.78726211   -4.95402848    7.06317646
     atom   21 type  1   force =    11.67440797   -4.09392282   -6.31194425
     atom   22 type  1   force =    -1.44654956  -11.18333722   -8.21659518
     atom   23 type  1   force =     7.69687609   -9.91575508   -7.87937796
     atom   24 type  1   force =    -6.13574343  -10.88851857   -7.22876850
     atom   25 type  1   force =     6.12904309   10.82455578    7.22723443
     atom   26 type  1   force =    -7.74010874    9.92600236    7.82819553
     atom   27 type  1   force =     1.36781782   11.14105676    8.18603769
     atom   28 type  1   force =   -11.66657764    4.10439494    6.28160587
     atom   29 type  1   force =    13.77137827    4.94960809   -7.09971599
     atom   30 type  1   force =    -3.08133180    4.67576506   -7.96319440
     atom   31 type  2   force =    28.99030674   -5.86736010   31.90390908
     atom   32 type  2   force =   -11.67576473  -11.25584810   40.62528275
     atom   33 type  2   force =    13.37489327   23.33625463   -5.73993537
     atom   34 type  2   force =   -42.81695285   12.06177247   -2.60832862
     atom   35 type  2   force =    11.49449290   11.29586413  -40.64450325
     atom   36 type  2   force =   -28.93505719    5.92691858  -31.82476337
     atom   37 type  2   force =    42.85109997  -11.97955387    2.50276408
     atom   38 type  2   force =   -13.60450046  -23.35907455    5.52442015
     atom   39 type  3   force =     0.54235148   -0.17925629    0.44511434
     The core correction contribution to forces
     atom    1 type  1   force =     0.00000000    0.00000000    0.00000000
     atom    2 type  1   force =     0.00000000    0.00000000    0.00000000
     atom    3 type  1   force =     0.00000000    0.00000000    0.00000000
     atom    4 type  1   force =     0.00000000    0.00000000    0.00000000
     atom    5 type  1   force =     0.00000000    0.00000000    0.00000000
     atom    6 type  1   force =     0.00000000    0.00000000    0.00000000
     atom    7 type  1   force =     0.00000000    0.00000000    0.00000000
     atom    8 type  1   force =     0.00000000    0.00000000    0.00000000
     atom    9 type  1   force =     0.00000000    0.00000000    0.00000000
     atom   10 type  1   force =     0.00000000    0.00000000    0.00000000
     atom   11 type  1   force =     0.00000000    0.00000000    0.00000000
     atom   12 type  1   force =     0.00000000    0.00000000    0.00000000
     atom   13 type  1   force =     0.00000000    0.00000000    0.00000000
     atom   14 type  1   force =     0.00000000    0.00000000    0.00000000
     atom   15 type  1   force =     0.00000000    0.00000000    0.00000000
     atom   16 type  1   force =     0.00000000    0.00000000    0.00000000
     atom   17 type  1   force =     0.00000000    0.00000000    0.00000000
     atom   18 type  1   force =     0.00000000    0.00000000    0.00000000
     atom   19 type  1   force =     0.00000000    0.00000000    0.00000000
     atom   20 type  1   force =     0.00000000    0.00000000    0.00000000
     atom   21 type  1   force =     0.00000000    0.00000000    0.00000000
     atom   22 type  1   force =     0.00000000    0.00000000    0.00000000
     atom   23 type  1   force =     0.00000000    0.00000000    0.00000000
     atom   24 type  1   force =     0.00000000    0.00000000    0.00000000
     atom   25 type  1   force =     0.00000000    0.00000000    0.00000000
     atom   26 type  1   force =     0.00000000    0.00000000    0.00000000
     atom   27 type  1   force =     0.00000000    0.00000000    0.00000000
     atom   28 type  1   force =     0.00000000    0.00000000    0.00000000
     atom   29 type  1   force =     0.00000000    0.00000000    0.00000000
     atom   30 type  1   force =     0.00000000    0.00000000    0.00000000
     atom   31 type  2   force =    -0.00701478    0.00274520   -0.03495141
     atom   32 type  2   force =     0.00340662    0.00212426   -0.03490260
     atom   33 type  2   force =    -0.00669761   -0.01298323    0.00046339
     atom   34 type  2   force =     0.01275465   -0.00184018   -0.00449882
     atom   35 type  2   force =    -0.00335383   -0.00211034    0.03482285
     atom   36 type  2   force =     0.00678568   -0.00244091    0.03541048
     atom   37 type  2   force =    -0.01249861    0.00204520    0.00455511
     atom   38 type  2   force =     0.00647668    0.01324628   -0.00081756
     atom   39 type  3   force =     0.00000000    0.00000000    0.00000000
     The Hubbard contrib.    to forces
     atom    1 type  1   force =     0.00000000    0.00000000    0.00000000
     atom    2 type  1   force =     0.00000000    0.00000000    0.00000000
     atom    3 type  1   force =     0.00000000    0.00000000    0.00000000
     atom    4 type  1   force =     0.00000000    0.00000000    0.00000000
     atom    5 type  1   force =     0.00000000    0.00000000    0.00000000
     atom    6 type  1   force =     0.00000000    0.00000000    0.00000000
     atom    7 type  1   force =     0.00000000    0.00000000    0.00000000
     atom    8 type  1   force =     0.00000000    0.00000000    0.00000000
     atom    9 type  1   force =     0.00000000    0.00000000    0.00000000
     atom   10 type  1   force =     0.00000000    0.00000000    0.00000000
     atom   11 type  1   force =     0.00000000    0.00000000    0.00000000
     atom   12 type  1   force =     0.00000000    0.00000000    0.00000000
     atom   13 type  1   force =     0.00000000    0.00000000    0.00000000
     atom   14 type  1   force =     0.00000000    0.00000000    0.00000000
     atom   15 type  1   force =     0.00000000    0.00000000    0.00000000
     atom   16 type  1   force =     0.00000000    0.00000000    0.00000000
     atom   17 type  1   force =     0.00000000    0.00000000    0.00000000
     atom   18 type  1   force =     0.00000000    0.00000000    0.00000000
     atom   19 type  1   force =     0.00000000    0.00000000    0.00000000
     atom   20 type  1   force =     0.00000000    0.00000000    0.00000000
     atom   21 type  1   force =     0.00000000    0.00000000    0.00000000
     atom   22 type  1   force =     0.00000000    0.00000000    0.00000000
     atom   23 type  1   force =     0.00000000    0.00000000    0.00000000
     atom   24 type  1   force =     0.00000000    0.00000000    0.00000000
     atom   25 type  1   force =     0.00000000    0.00000000    0.00000000
     atom   26 type  1   force =     0.00000000    0.00000000    0.00000000
     atom   27 type  1   force =     0.00000000    0.00000000    0.00000000
     atom   28 type  1   force =     0.00000000    0.00000000    0.00000000
     atom   29 type  1   force =     0.00000000    0.00000000    0.00000000
     atom   30 type  1   force =     0.00000000    0.00000000    0.00000000
     atom   31 type  2   force =     0.00000000    0.00000000    0.00000000
     atom   32 type  2   force =     0.00000000    0.00000000    0.00000000
     atom   33 type  2   force =     0.00000000    0.00000000    0.00000000
     atom   34 type  2   force =     0.00000000    0.00000000    0.00000000
     atom   35 type  2   force =     0.00000000    0.00000000    0.00000000
     atom   36 type  2   force =     0.00000000    0.00000000    0.00000000
     atom   37 type  2   force =     0.00000000    0.00000000    0.00000000
     atom   38 type  2   force =     0.00000000    0.00000000    0.00000000
     atom   39 type  3   force =     0.00000000    0.00000000    0.00000000
     The SCF correction term to forces
     atom    1 type  1   force =     0.00086135   -0.00414272   -0.00264146
     atom    2 type  1   force =     0.00376107    0.00230413    0.00027569
     atom    3 type  1   force =    -0.00631136    0.00255908   -0.00261236
     atom    4 type  1   force =     0.00208331   -0.00100977   -0.00150655
     atom    5 type  1   force =     0.00240408    0.00242135   -0.00072930
     atom    6 type  1   force =    -0.00697654    0.00012163    0.00181857
     atom    7 type  1   force =     0.00740846    0.00094085   -0.00321613
     atom    8 type  1   force =     0.00038958   -0.00337496   -0.00008101
     atom    9 type  1   force =    -0.00266995    0.00119332    0.00300810
     atom   10 type  1   force =     0.00318379   -0.00238063    0.00195799
     atom   11 type  1   force =    -0.00044696   -0.00073536   -0.00035957
     atom   12 type  1   force =    -0.00158583    0.00448979    0.00161385
     atom   13 type  1   force =     0.00017652   -0.00002678    0.00343268
     atom   14 type  1   force =    -0.00135047    0.00026489    0.00176356
     atom   15 type  1   force =     0.00299821    0.00157992    0.00125862
     atom   16 type  1   force =     0.00176601    0.00056724    0.00336931
     atom   17 type  1   force =    -0.00106460    0.00014407    0.00101299
     atom   18 type  1   force =    -0.00012018   -0.00115936   -0.00013121
     atom   19 type  1   force =     0.00639766   -0.00003118    0.00189447
     atom   20 type  1   force =    -0.00081176    0.00019258    0.00079705
     atom   21 type  1   force =     0.00332564   -0.00164795    0.00062060
     atom   22 type  1   force =    -0.00034014   -0.00170897    0.00350380
     atom   23 type  1   force =     0.00255531   -0.00185281    0.00443371
     atom   24 type  1   force =    -0.00175103    0.00217597   -0.00121923
     atom   25 type  1   force =     0.00254684   -0.00256422    0.00237614
     atom   26 type  1   force =     0.00069984    0.00168908    0.00094891
     atom   27 type  1   force =     0.00367799    0.00152954   -0.00040921
     atom   28 type  1   force =    -0.00474085    0.00268715    0.00342293
     atom   29 type  1   force =     0.00310464   -0.00030935    0.00420633
     atom   30 type  1   force =    -0.00383680    0.00056578    0.00080608
     atom   31 type  2   force =     0.00883481   -0.00376064    0.00047268
     atom   32 type  2   force =     0.00783610   -0.00012855   -0.00408408
     atom   33 type  2   force =     0.00451441    0.00240030    0.01800331
     atom   34 type  2   force =    -0.00555762    0.00309966   -0.01179916
     atom   35 type  2   force =     0.00258646   -0.00118663    0.01285385
     atom   36 type  2   force =    -0.01076230    0.00430208   -0.00515218
     atom   37 type  2   force =     0.00436368   -0.00253462    0.02226798
     atom   38 type  2   force =     0.01048703   -0.00147439    0.00290898
     atom   39 type  3   force =     0.00045493   -0.00009319   -0.00018469

     Total force =     0.294946     Total SCF correction =     0.047680
     SCF correction compared to forces is large: reduce conv_thr to get better values


     Computing stress (Cartesian axis) and pressure


     negative rho (up, down):  2.671E-01 2.675E-01
          total   stress  (Ry/bohr**3)                   (kbar)     P=      -31.88
  -0.00021524   0.00001375  -0.00000933          -31.66        2.02       -1.37
   0.00001375  -0.00017284   0.00000475            2.02      -25.43        0.70
  -0.00000933   0.00000475  -0.00026203           -1.37        0.70      -38.55


     Entering Dynamics:    iteration =     2
                           time      =   0.0002 pico-seconds


ATOMIC_POSITIONS (angstrom)
Be            5.2220492556        3.0000304047        3.0010930858
Be            5.2220688886        3.0000132807       10.3082800530
Be            3.0000188417        6.8486871822        3.0010911001
Be            3.0000072898        6.8486942024       10.3082805734
Be            9.6661389044        3.0000329383        3.0010972159
Be            9.6661455247        3.0000223280       10.3082795332
Be            7.4440902981        6.8486763204        3.0010943686
Be            7.4440968456        6.8486656283       10.3082765275
Be           14.1102279158        3.0000044131        3.0010936222
Be           14.1102162370        3.0000113800       10.3082827364
Be           11.8881666882        6.8486852185        3.0010936970
Be           11.8881861993        6.8486681317       10.3082806842
Be            5.2220582109        3.0000300374        6.6546872765
Be            3.0000222275        6.8486849036        6.6546850958
Be            9.6661518464        3.0000202970        6.6546876985
Be            7.4440836031        6.8486826366        6.6546857911
Be           14.1102131428        3.0000134395        6.6546890487
Be           11.8881775398        6.8486678985        6.6546867209
Be            7.4440918183        5.5395036103        4.8278768929
Be           11.8881742500        5.5394959596        4.8278804090
Be            4.1337995704        6.1941003444        8.4814788481
Be            8.5778836139        6.1940921805        8.4814893611
Be            6.3102969109        6.1940890381        8.4814880571
Be           10.7544013214        6.1940849579        8.4814932849
Be            6.3558343693        3.6546132487        4.8278808692
Be           10.7999386598        3.6546090169        4.8278862490
Be            8.5323523404        3.6546057647        4.8278848999
Be           12.9764353329        3.6545983257        4.8278954855
Be            5.2220611353        4.3092027231        8.4814934570
Be            9.6661437632        4.3091942531        8.4814968745
W             5.2220483403        5.5657982472        3.4633774835
W             9.6661414057        5.5657978974        3.4633772179
W             7.4440937426        4.2828996581        7.1169838308
W            11.8881876397        4.2829001513        7.1169836435
W             7.4440940995        4.2829006763        9.8459964484
W            11.8881871824        4.2829003157        9.8459961996
W             5.2220478668        5.5657983637        6.1923904116
W             9.6661417828        5.5657989712        6.1923901837
H             7.4440926959        9.7999863420        5.1830496160


     kinetic energy (Ekin) =         161.87836334 Ry
     temperature           =      448396.00174500 K 
     Ekin + Etot (const)   =       -1954.33701310 Ry
     Ions kinetic stress =         1049.08 (kbar)
                                      0.00           0.00           0.01
                                      0.00           0.00           0.05
                                      0.01           0.05        3147.23



     Linear momentum :   -0.0000000000    0.0000000000   -0.0000000000

     Writing config-only to output data dir outdir/pwscf.save/
     NEW-OLD atomic charge density approx. for the potential

     negative rho (up, down):  2.671E-01 2.675E-01
     Generating pointlists ...

     total cpu time spent up to now is     3147.5 secs

     Self-consistent Calculation

     iteration #  1     ecut=   120.00 Ry     beta= 0.70
     Davidson diagonalization with overlap
     c_bands:  1 eigenvalues not converged
