
     Program PWSCF v.7.2 starts on 14Jun2023 at  4:31:13 

     This program is part of the open-source Quantum ESPRESSO suite
     for quantum simulation of materials; please cite
         "P. Giannozzi et al., J. Phys.:Condens. Matter 21 395502 (2009);
         "P. Giannozzi et al., J. Phys.:Condens. Matter 29 465901 (2017);
         "P. Giannozzi et al., J. Chem. Phys. 152 154105 (2020);
          URL http://www.quantum-espresso.org", 
     in publications or presentations arising from this work. More details at
     http://www.quantum-espresso.org/quote

     Parallel version (MPI), running on    42 processors

     MPI processes distributed on     1 nodes
     177636 MiB available memory on the printing compute node when the environment starts

     Reading input from md_data/md_Be30W8H_30steps_2000eV_incident0_polar0.in
Warning: card &CELL ignored
Warning: card / ignored

     Current dimensions of program PWSCF are:
     Max number of different atomic species (ntypx) = 10
     Max number of k-points (npk) =  40000
     Max angular momentum in pseudopotentials (lmaxx) =  4

     gamma-point specific algorithms are used

     R & G space division:  proc/nbgrp/npool/nimage =      42
     Subspace diagonalization in iterative solution of the eigenvalue problem:
     a serial algorithm will be used


     Parallelization info
     --------------------
     sticks:   dense  smooth     PW     G-vecs:    dense   smooth      PW
     Min         546     546    135                63978    63978    7996
     Max         548     548    138                63988    63988    8006
     Sum       22965   22965   5749              2687239  2687239  336055

     Using Slab Decomposition



     bravais-lattice index     =            0
     lattice parameter (alat)  =      32.3337  a.u.
     unit-cell volume          =   15132.7767 (a.u.)^3
     number of atoms/cell      =           39
     number of atomic types    =            3
     number of electrons       =       233.00
     number of Kohn-Sham states=          140
     kinetic-energy cutoff     =     120.0000  Ry
     charge density cutoff     =     480.0000  Ry
     scf convergence threshold =      1.0E-03
     mixing beta               =       0.7000
     number of iterations used =            8  TF        mixing
     energy convergence thresh.=      0.0E+00
     force convergence thresh. =      0.0E+00
     Exchange-correlation=  SLA  PW   PBX  PBC
                           (   1   4   3   4   0   0   0)
     nstep                     =           30


     celldm(1)=  32.333659  celldm(2)=   0.000000  celldm(3)=   0.000000
     celldm(4)=   0.000000  celldm(5)=   0.000000  celldm(6)=   0.000000

     crystal axes: (cart. coord. in units of alat)
               a(1) = (   1.000000   0.000000   0.000000 )  
               a(2) = (   0.000000   0.575603   0.000000 )  
               a(3) = (   0.000000   0.000000   0.777734 )  

     reciprocal axes: (cart. coord. in units 2 pi/alat)
               b(1) = (  1.000000  0.000000  0.000000 )  
               b(2) = (  0.000000  1.737309  0.000000 )  
               b(3) = (  0.000000  0.000000  1.285786 )  


     PseudoPot. # 1 for Be read from file:
     q-e/pseudo/be_pbe_v1.4.uspp.F.UPF
     MD5 check sum: 5ecff1440924c7c98ad504bef30f5264
     Pseudo is Ultrasoft, Zval =  4.0
     Generated by new atomic code, or converted to UPF format
     Using radial grid of  769 points,  6 beta functions with: 
                l(1) =   0
                l(2) =   0
                l(3) =   0
                l(4) =   1
                l(5) =   1
                l(6) =   2
     Q(r) pseudized with 10 coefficients,  rinner =    1.000   1.000   1.000
                                                       1.000   1.000

     PseudoPot. # 2 for W  read from file:
     q-e/pseudo/w_pbe_v1.2.uspp.F.UPF
     MD5 check sum: 9c083fa34c2a2ea0f02f1f893e16e1c8
     Pseudo is Ultrasoft + core correction, Zval = 14.0
     Generated by new atomic code, or converted to UPF format
     Using radial grid of  923 points,  8 beta functions with: 
                l(1) =   0
                l(2) =   0
                l(3) =   0
                l(4) =   1
                l(5) =   1
                l(6) =   2
                l(7) =   2
                l(8) =   3
     Q(r) pseudized with  6 coefficients,  rinner =    1.350   1.350   1.350
                                                       1.350   1.350   1.350
                                                       1.350

     PseudoPot. # 3 for H  read from file:
     q-e/pseudo/h_pbe_v1.4.uspp.F.UPF
     MD5 check sum: 761ae9a214b05c3daf00ab9f6b793d6f
     Pseudo is Ultrasoft, Zval =  1.0
     Generated by new atomic code, or converted to UPF format
     Using radial grid of  615 points,  2 beta functions with: 
                l(1) =   0
                l(2) =   0
     Q(r) pseudized with  8 coefficients,  rinner =    0.700

     atomic species   valence    mass     pseudopotential
        Be             4.00     9.01218     Be( 1.00)
        W             14.00   183.84000     W ( 1.00)
        H              1.00     2.01400     H ( 1.00)

     Starting magnetic structure 
     atomic species   magnetization
        Be           0.000
        W            0.000
        H            0.000

     No symmetry found



   Cartesian axes

     site n.     atom                  positions (alat units)
         1           Be  tau(   1) = (   0.3052002   0.1753336   0.1753336  )
         2           Be  tau(   2) = (   0.3052002   0.1753336   0.6024006  )
         3           Be  tau(   3) = (   0.1753336   0.4002691   0.1753336  )
         4           Be  tau(   4) = (   0.1753336   0.4002691   0.6024006  )
         5           Be  tau(   5) = (   0.5649333   0.1753336   0.1753336  )
         6           Be  tau(   6) = (   0.5649333   0.1753336   0.6024006  )
         7           Be  tau(   7) = (   0.4350667   0.4002691   0.1753336  )
         8           Be  tau(   8) = (   0.4350667   0.4002691   0.6024006  )
         9           Be  tau(   9) = (   0.8246664   0.1753336   0.1753336  )
        10           Be  tau(  10) = (   0.8246664   0.1753336   0.6024006  )
        11           Be  tau(  11) = (   0.6947998   0.4002691   0.1753336  )
        12           Be  tau(  12) = (   0.6947998   0.4002691   0.6024006  )
        13           Be  tau(  13) = (   0.3052002   0.1753336   0.3888671  )
        14           Be  tau(  14) = (   0.1753336   0.4002691   0.3888671  )
        15           Be  tau(  15) = (   0.5649333   0.1753336   0.3888671  )
        16           Be  tau(  16) = (   0.4350667   0.4002691   0.3888671  )
        17           Be  tau(  17) = (   0.8246664   0.1753336   0.3888671  )
        18           Be  tau(  18) = (   0.6947998   0.4002691   0.3888671  )
        19           Be  tau(  19) = (   0.4350667   0.3237532   0.2821004  )
        20           Be  tau(  20) = (   0.6947998   0.3237532   0.2821004  )
        21           Be  tau(  21) = (   0.2415983   0.3620112   0.4956338  )
        22           Be  tau(  22) = (   0.5013314   0.3620112   0.4956338  )
        23           Be  tau(  23) = (   0.3688021   0.3620112   0.4956338  )
        24           Be  tau(  24) = (   0.6285351   0.3620112   0.4956338  )
        25           Be  tau(  25) = (   0.3714649   0.2135916   0.2821004  )
        26           Be  tau(  26) = (   0.6311979   0.2135916   0.2821004  )
        27           Be  tau(  27) = (   0.4986686   0.2135916   0.2821004  )
        28           Be  tau(  28) = (   0.7584017   0.2135916   0.2821004  )
        29           Be  tau(  29) = (   0.3052002   0.2518495   0.4956338  )
        30           Be  tau(  30) = (   0.5649333   0.2518495   0.4956338  )
        31           W   tau(  31) = (   0.3052002   0.3252906   0.2023523  )
        32           W   tau(  32) = (   0.5649333   0.3252906   0.2023523  )
        33           W   tau(  33) = (   0.4350667   0.2503121   0.4158858  )
        34           W   tau(  34) = (   0.6947998   0.2503121   0.4158858  )
        35           W   tau(  35) = (   0.4350667   0.2503121   0.5753819  )
        36           W   tau(  36) = (   0.6947998   0.2503121   0.5753819  )
        37           W   tau(  37) = (   0.3052002   0.3252906   0.3618484  )
        38           W   tau(  38) = (   0.5649333   0.3252906   0.3618484  )
        39           H   tau(  39) = (   0.4350667   0.5727566   0.3574413  )

     number of k points=     1  Gaussian smearing, width (Ry)=  0.0220
                       cart. coord. in units 2pi/alat
        k(    1) = (   0.0000000   0.0000000   0.0000000), wk =   1.0000000

     Dense  grid:  1343620 G-vectors     FFT dimensions: ( 225, 135, 180)

     Estimated max dynamical RAM per process >     346.43 MB

     Estimated total dynamical RAM >      14.21 GB
     Generating pointlists ...
     new r_m :   0.0525 (alat units)  1.6966 (a.u.) for type    1
     new r_m :   0.0629 (alat units)  2.0323 (a.u.) for type    2
     new r_m :   0.0723 (alat units)  2.3384 (a.u.) for type    3

     Initial potential from superposition of free atoms

     starting charge     232.1926, renormalised to     233.0000

     negative rho (up, down):  2.536E-01 2.536E-01
     Starting wfcs are  255 randomized atomic wfcs

     total cpu time spent up to now is       50.4 secs

     Self-consistent Calculation

     iteration #  1     ecut=   120.00 Ry     beta= 0.70
     Davidson diagonalization with overlap
     ethr =  1.00E-02,  avg # of iterations =  2.0

     negative rho (up, down):  2.676E-01 2.677E-01

     total cpu time spent up to now is      142.1 secs

     total energy              =   -2115.79154153 Ry
     estimated scf accuracy    <      17.49535733 Ry

     total magnetization       =     0.00 Bohr mag/cell
     absolute magnetization    =     0.07 Bohr mag/cell

     iteration #  2     ecut=   120.00 Ry     beta= 0.70
     Davidson diagonalization with overlap
     ethr =  7.51E-03,  avg # of iterations =  1.0

     negative rho (up, down):  2.691E-01 2.692E-01

     total cpu time spent up to now is      186.9 secs

     total energy              =   -2115.30689106 Ry
     estimated scf accuracy    <       5.69152041 Ry

     total magnetization       =     0.00 Bohr mag/cell
     absolute magnetization    =     0.12 Bohr mag/cell

     iteration #  3     ecut=   120.00 Ry     beta= 0.70
     Davidson diagonalization with overlap
     ethr =  2.44E-03,  avg # of iterations =  3.0

     negative rho (up, down):  2.674E-01 2.675E-01

     total cpu time spent up to now is      288.5 secs

     total energy              =   -2115.62778601 Ry
     estimated scf accuracy    <       9.33075372 Ry

     total magnetization       =    -0.01 Bohr mag/cell
     absolute magnetization    =     0.14 Bohr mag/cell

     iteration #  4     ecut=   120.00 Ry     beta= 0.70
     Davidson diagonalization with overlap
     ethr =  2.44E-03,  avg # of iterations =  2.0

     negative rho (up, down):  2.677E-01 2.679E-01

     total cpu time spent up to now is      339.3 secs

     total energy              =   -2116.10190398 Ry
     estimated scf accuracy    <       0.82215250 Ry

     total magnetization       =    -0.05 Bohr mag/cell
     absolute magnetization    =     0.19 Bohr mag/cell

     iteration #  5     ecut=   120.00 Ry     beta= 0.70
     Davidson diagonalization with overlap
     ethr =  3.53E-04,  avg # of iterations = 10.0

     negative rho (up, down):  2.684E-01 2.686E-01

     total cpu time spent up to now is      451.3 secs

     total energy              =   -2116.16453762 Ry
     estimated scf accuracy    <       0.36681906 Ry

     total magnetization       =    -0.04 Bohr mag/cell
     absolute magnetization    =     0.11 Bohr mag/cell

     iteration #  6     ecut=   120.00 Ry     beta= 0.70
     Davidson diagonalization with overlap
     ethr =  1.57E-04,  avg # of iterations =  2.0

     negative rho (up, down):  2.686E-01 2.687E-01

     total cpu time spent up to now is      505.3 secs

     total energy              =   -2116.18422479 Ry
     estimated scf accuracy    <       0.26101262 Ry

     total magnetization       =    -0.03 Bohr mag/cell
     absolute magnetization    =     0.09 Bohr mag/cell

     iteration #  7     ecut=   120.00 Ry     beta= 0.70
     Davidson diagonalization with overlap
     ethr =  1.12E-04,  avg # of iterations =  2.0

     negative rho (up, down):  2.682E-01 2.683E-01

     total cpu time spent up to now is      600.9 secs

     total energy              =   -2116.18872754 Ry
     estimated scf accuracy    <       0.18866476 Ry

     total magnetization       =    -0.04 Bohr mag/cell
     absolute magnetization    =     0.08 Bohr mag/cell

     iteration #  8     ecut=   120.00 Ry     beta= 0.70
     Davidson diagonalization with overlap
     ethr =  8.10E-05,  avg # of iterations =  1.0

     negative rho (up, down):  2.682E-01 2.682E-01

     total cpu time spent up to now is      645.6 secs

     total energy              =   -2116.18145765 Ry
     estimated scf accuracy    <       0.12851031 Ry

     total magnetization       =    -0.04 Bohr mag/cell
     absolute magnetization    =     0.09 Bohr mag/cell

     iteration #  9     ecut=   120.00 Ry     beta= 0.70
     Davidson diagonalization with overlap
     ethr =  5.52E-05,  avg # of iterations =  1.0

     negative rho (up, down):  2.681E-01 2.682E-01

     total cpu time spent up to now is      712.1 secs

     total energy              =   -2116.18281486 Ry
     estimated scf accuracy    <       0.06499259 Ry

     total magnetization       =    -0.05 Bohr mag/cell
     absolute magnetization    =     0.11 Bohr mag/cell

     iteration # 10     ecut=   120.00 Ry     beta= 0.70
     Davidson diagonalization with overlap
     ethr =  2.79E-05,  avg # of iterations =  2.0

     negative rho (up, down):  2.679E-01 2.679E-01

     total cpu time spent up to now is      786.1 secs

     total energy              =   -2116.18594806 Ry
     estimated scf accuracy    <       0.03709739 Ry

     total magnetization       =    -0.05 Bohr mag/cell
     absolute magnetization    =     0.13 Bohr mag/cell

     iteration # 11     ecut=   120.00 Ry     beta= 0.70
     Davidson diagonalization with overlap
     ethr =  1.59E-05,  avg # of iterations =  4.0

     negative rho (up, down):  2.677E-01 2.677E-01

     total cpu time spent up to now is      841.7 secs

     total energy              =   -2116.18650286 Ry
     estimated scf accuracy    <       0.05364390 Ry

     total magnetization       =    -0.05 Bohr mag/cell
     absolute magnetization    =     0.17 Bohr mag/cell

     iteration # 12     ecut=   120.00 Ry     beta= 0.70
     Davidson diagonalization with overlap
     ethr =  1.59E-05,  avg # of iterations =  3.5

     negative rho (up, down):  2.675E-01 2.676E-01

     total cpu time spent up to now is      934.1 secs

     total energy              =   -2116.18914034 Ry
     estimated scf accuracy    <       0.01938284 Ry

     total magnetization       =    -0.05 Bohr mag/cell
     absolute magnetization    =     0.20 Bohr mag/cell

     iteration # 13     ecut=   120.00 Ry     beta= 0.70
     Davidson diagonalization with overlap
     ethr =  8.32E-06,  avg # of iterations =  6.5

     negative rho (up, down):  2.676E-01 2.677E-01

     total cpu time spent up to now is      984.7 secs

     total energy              =   -2116.19130850 Ry
     estimated scf accuracy    <       0.01413797 Ry

     total magnetization       =    -0.05 Bohr mag/cell
     absolute magnetization    =     0.26 Bohr mag/cell

     iteration # 14     ecut=   120.00 Ry     beta= 0.70
     Davidson diagonalization with overlap
     ethr =  6.07E-06,  avg # of iterations =  2.0

     negative rho (up, down):  2.681E-01 2.681E-01

     total cpu time spent up to now is     1082.5 secs

     total energy              =   -2116.19370188 Ry
     estimated scf accuracy    <       0.00733439 Ry

     total magnetization       =    -0.02 Bohr mag/cell
     absolute magnetization    =     0.40 Bohr mag/cell

     iteration # 15     ecut=   120.00 Ry     beta= 0.70
     Davidson diagonalization with overlap
     ethr =  3.15E-06,  avg # of iterations = 13.0

     negative rho (up, down):  2.689E-01 2.688E-01

     total cpu time spent up to now is     1140.6 secs

     total energy              =   -2116.19520912 Ry
     estimated scf accuracy    <       0.00688243 Ry

     total magnetization       =     0.02 Bohr mag/cell
     absolute magnetization    =     0.66 Bohr mag/cell

     iteration # 16     ecut=   120.00 Ry     beta= 0.70
     Davidson diagonalization with overlap
     ethr =  2.95E-06,  avg # of iterations =  2.5

     negative rho (up, down):  2.675E-01 2.676E-01

     total cpu time spent up to now is     1236.1 secs

     total energy              =   -2116.19776327 Ry
     estimated scf accuracy    <       0.00394085 Ry

     total magnetization       =     0.11 Bohr mag/cell
     absolute magnetization    =     0.93 Bohr mag/cell

     iteration # 17     ecut=   120.00 Ry     beta= 0.70
     Davidson diagonalization with overlap
     ethr =  1.69E-06,  avg # of iterations =  6.0

     negative rho (up, down):  2.679E-01 2.679E-01

     total cpu time spent up to now is     1289.2 secs

     total energy              =   -2116.20188157 Ry
     estimated scf accuracy    <       0.00381000 Ry

     total magnetization       =     0.22 Bohr mag/cell
     absolute magnetization    =     1.23 Bohr mag/cell

     iteration # 18     ecut=   120.00 Ry     beta= 0.70
     Davidson diagonalization with overlap
     ethr =  1.64E-06,  avg # of iterations =  8.5

     negative rho (up, down):  2.696E-01 2.695E-01

     total cpu time spent up to now is     1395.9 secs

     total energy              =   -2116.20425079 Ry
     estimated scf accuracy    <       0.01727164 Ry

     total magnetization       =     0.48 Bohr mag/cell
     absolute magnetization    =     1.91 Bohr mag/cell

     iteration # 19     ecut=   120.00 Ry     beta= 0.70
     Davidson diagonalization with overlap
     ethr =  1.64E-06,  avg # of iterations =  4.0

     negative rho (up, down):  2.694E-01 2.693E-01

     total cpu time spent up to now is     1450.0 secs

     total energy              =   -2116.20425189 Ry
     estimated scf accuracy    <       0.01657467 Ry

     total magnetization       =     0.41 Bohr mag/cell
     absolute magnetization    =     1.79 Bohr mag/cell

     iteration # 20     ecut=   120.00 Ry     beta= 0.70
     Davidson diagonalization with overlap
     ethr =  1.64E-06,  avg # of iterations =  1.0

     negative rho (up, down):  2.694E-01 2.693E-01

     total cpu time spent up to now is     1517.7 secs

     total energy              =   -2116.20560665 Ry
     estimated scf accuracy    <       0.01568366 Ry

     total magnetization       =     0.41 Bohr mag/cell
     absolute magnetization    =     1.76 Bohr mag/cell

     iteration # 21     ecut=   120.00 Ry     beta= 0.70
     Davidson diagonalization with overlap
     ethr =  1.64E-06,  avg # of iterations =  1.5

     negative rho (up, down):  2.691E-01 2.690E-01

     total cpu time spent up to now is     1590.3 secs

     total energy              =   -2116.20807439 Ry
     estimated scf accuracy    <       0.01866381 Ry

     total magnetization       =     0.44 Bohr mag/cell
     absolute magnetization    =     1.85 Bohr mag/cell

     iteration # 22     ecut=   120.00 Ry     beta= 0.70
     Davidson diagonalization with overlap
     ethr =  1.64E-06,  avg # of iterations =  5.0

     negative rho (up, down):  2.707E-01 2.705E-01

     total cpu time spent up to now is     1641.9 secs

     total energy              =   -2116.20635446 Ry
     estimated scf accuracy    <       0.01862775 Ry

     total magnetization       =     0.50 Bohr mag/cell
     absolute magnetization    =     2.00 Bohr mag/cell

     iteration # 23     ecut=   120.00 Ry     beta= 0.70
     Davidson diagonalization with overlap
     ethr =  1.64E-06,  avg # of iterations =  2.5

     negative rho (up, down):  2.688E-01 2.687E-01

     total cpu time spent up to now is     1757.6 secs

     total energy              =   -2116.20723780 Ry
     estimated scf accuracy    <       0.01007355 Ry

     total magnetization       =     0.45 Bohr mag/cell
     absolute magnetization    =     1.89 Bohr mag/cell

     iteration # 24     ecut=   120.00 Ry     beta= 0.70
     Davidson diagonalization with overlap
     ethr =  1.64E-06,  avg # of iterations =  3.0

     negative rho (up, down):  2.696E-01 2.695E-01

     total cpu time spent up to now is     1830.4 secs

     total energy              =   -2116.20943718 Ry
     estimated scf accuracy    <       0.00597394 Ry

     total magnetization       =     0.45 Bohr mag/cell
     absolute magnetization    =     1.91 Bohr mag/cell

     iteration # 25     ecut=   120.00 Ry     beta= 0.70
     Davidson diagonalization with overlap
     ethr =  1.64E-06,  avg # of iterations =  3.0

     negative rho (up, down):  2.681E-01 2.680E-01

     total cpu time spent up to now is     1880.0 secs

     total energy              =   -2116.21107299 Ry
     estimated scf accuracy    <       0.00762071 Ry

     total magnetization       =     0.48 Bohr mag/cell
     absolute magnetization    =     2.06 Bohr mag/cell

     iteration # 26     ecut=   120.00 Ry     beta= 0.70
     Davidson diagonalization with overlap
     ethr =  1.64E-06,  avg # of iterations =  6.0

     negative rho (up, down):  2.673E-01 2.674E-01

     total cpu time spent up to now is     1981.8 secs

     total energy              =   -2116.21155336 Ry
     estimated scf accuracy    <       0.00300436 Ry

     total magnetization       =     0.46 Bohr mag/cell
     absolute magnetization    =     2.26 Bohr mag/cell

     iteration # 27     ecut=   120.00 Ry     beta= 0.70
     Davidson diagonalization with overlap
     ethr =  1.29E-06,  avg # of iterations = 11.0

     negative rho (up, down):  2.672E-01 2.674E-01

     total cpu time spent up to now is     2070.3 secs

     total energy              =   -2116.21575913 Ry
     estimated scf accuracy    <       0.00229152 Ry

     total magnetization       =     0.46 Bohr mag/cell
     absolute magnetization    =     2.72 Bohr mag/cell

     iteration # 28     ecut=   120.00 Ry     beta= 0.70
     Davidson diagonalization with overlap
     ethr =  9.83E-07,  avg # of iterations =  7.5

     negative rho (up, down):  2.672E-01 2.674E-01

     total cpu time spent up to now is     2157.7 secs

     total energy              =   -2116.21599021 Ry
     estimated scf accuracy    <       0.00146495 Ry

     total magnetization       =     0.44 Bohr mag/cell
     absolute magnetization    =     2.86 Bohr mag/cell

     iteration # 29     ecut=   120.00 Ry     beta= 0.70
     Davidson diagonalization with overlap
     ethr =  6.29E-07,  avg # of iterations =  4.5

     negative rho (up, down):  2.672E-01 2.674E-01

     Magnetic moment per site  (integrated on atomic sphere of radius R)
     atom   1 (R=0.052)  charge=  2.6318   -0.0248
     atom   2 (R=0.052)  charge=  2.6319   -0.0058
     atom   3 (R=0.052)  charge=  2.5955   -0.0102
     atom   4 (R=0.052)  charge=  2.5929   -0.0914
     atom   5 (R=0.052)  charge=  2.6644   -0.0236
     atom   6 (R=0.052)  charge=  2.6921    0.0011
     atom   7 (R=0.052)  charge=  2.6918    0.0006
     atom   8 (R=0.052)  charge=  2.6648   -0.0174
     atom   9 (R=0.052)  charge=  2.5939    0.0905
     atom  10 (R=0.052)  charge=  2.5959    0.0192
     atom  11 (R=0.052)  charge=  2.6320   -0.0121
     atom  12 (R=0.052)  charge=  2.6316   -0.0014
     atom  13 (R=0.052)  charge=  2.6963   -0.0046
     atom  14 (R=0.052)  charge=  2.6239   -0.0162
     atom  15 (R=0.052)  charge=  2.7816   -0.0014
     atom  16 (R=0.052)  charge=  2.7810   -0.0171
     atom  17 (R=0.052)  charge=  2.6246    0.0296
     atom  18 (R=0.052)  charge=  2.6970   -0.0011
     atom  19 (R=0.052)  charge=  2.9442    0.0005
     atom  20 (R=0.052)  charge=  2.8823   -0.0031
     atom  21 (R=0.052)  charge=  2.8125   -0.0170
     atom  22 (R=0.052)  charge=  2.9008    0.0013
     atom  23 (R=0.052)  charge=  2.9001    0.0019
     atom  24 (R=0.052)  charge=  2.8769    0.0000
     atom  25 (R=0.052)  charge=  2.8763    0.0001
     atom  26 (R=0.052)  charge=  2.9004   -0.0031
     atom  27 (R=0.052)  charge=  2.9006    0.0019
     atom  28 (R=0.052)  charge=  2.8128    0.0188
     atom  29 (R=0.052)  charge=  2.8823    0.0012
     atom  30 (R=0.052)  charge=  2.9444   -0.0006
     atom  31 (R=0.063)  charge= 10.9145   -0.0522
     atom  32 (R=0.063)  charge= 10.9239   -0.0529
     atom  33 (R=0.063)  charge= 10.9884   -0.0208
     atom  34 (R=0.063)  charge= 10.9339    0.0269
     atom  35 (R=0.063)  charge= 10.9283   -0.0020
     atom  36 (R=0.063)  charge= 10.9084    0.0201
     atom  37 (R=0.063)  charge= 10.9314   -0.0027
     atom  38 (R=0.063)  charge= 10.9895    0.0023
     atom  39 (R=0.072)  charge=  0.9054    0.7859

     total cpu time spent up to now is     2216.1 secs

     End of self-consistent calculation

 ------ SPIN UP ------------


          k = 0.0000 0.0000 0.0000 (168028 PWs)   bands (ev):

  -103.4370-103.3487-103.0004-102.9998-102.9710-102.9607-102.6954-102.6895
  -102.6237-102.6210-102.5543-102.5508-102.3249-102.3191-101.6672-101.6551
  -101.4243-101.3925-100.9300-100.9115-100.4959-100.4870-100.4698-100.4633
  -100.4088-100.4027-100.3937-100.3914-100.0495-100.0453 -74.9227 -74.9008
   -74.8815 -74.8774 -74.8605 -74.8520 -74.7729 -74.7609 -39.3708 -39.3471
   -39.3175 -39.2609 -39.2314 -39.1792 -39.1624 -39.0931 -39.0653 -39.0521
   -39.0309 -39.0085 -38.9909 -38.9655 -38.9574 -38.9297 -38.8955 -38.8850
   -38.8766 -38.8304 -38.7956 -38.7810 -38.7349 -38.7234  -8.7799  -7.7149
    -7.2599  -6.5857  -6.3616  -6.2852  -5.8366  -5.6753  -5.5294  -5.3394
    -5.1848  -4.8952  -4.8337  -4.8032  -4.6057  -4.1941  -4.1705  -4.1294
    -3.9997  -3.8833  -3.7554  -3.6825  -3.6342  -3.5355  -3.3415  -3.2032
    -3.1888  -3.1382  -3.0759  -2.9432  -2.7946  -2.6718  -2.6308  -2.5538
    -2.4855  -2.4317  -2.3791  -2.2988  -2.1812  -2.1063  -2.0881  -1.9948
    -1.9274  -1.8707  -1.8503  -1.7734  -1.5859  -1.4340  -1.4033  -1.3018
    -1.2965  -1.2168  -1.2011  -1.1168  -1.0386  -1.0106  -0.9601  -0.9358
    -0.9046  -0.7747  -0.7484  -0.6889  -0.6385  -0.5802  -0.5598  -0.4002
    -0.3740  -0.3343  -0.2797  -0.1794  -0.1635  -0.0629  -0.0233  -0.0191
     0.0350   0.0636   0.1402   0.2607

 ------ SPIN DOWN ----------


          k = 0.0000 0.0000 0.0000 (168028 PWs)   bands (ev):

  -103.4212-103.3677-103.0069-102.9857-102.9723-102.9484-102.7000-102.6980
  -102.6400-102.6251-102.5717-102.5648-102.3288-102.3201-101.6668-101.6541
  -101.4253-101.4084-100.9237-100.9170-100.4956-100.4869-100.4680-100.4622
  -100.4074-100.4046-100.3933-100.3929-100.0489-100.0456 -74.9265 -74.9047
   -74.8819 -74.8790 -74.8686 -74.8607 -74.7845 -74.7658 -39.3738 -39.3508
   -39.3233 -39.2712 -39.2408 -39.1785 -39.1675 -39.0958 -39.0597 -39.0563
   -39.0509 -39.0199 -39.0007 -38.9831 -38.9699 -38.9315 -38.9137 -38.8913
   -38.8893 -38.8323 -38.8026 -38.7905 -38.7363 -38.7271  -8.7847  -7.7190
    -7.2638  -6.5883  -6.3654  -6.2972  -5.8497  -5.6785  -5.5359  -5.3418
    -5.1939  -4.9075  -4.8341  -4.8038  -4.6179  -4.2077  -4.1422  -4.1024
    -3.9808  -3.8090  -3.6948  -3.6492  -3.5370  -3.3667  -3.2455  -3.1997
    -3.1442  -3.0836  -2.9546  -2.8025  -2.6857  -2.6431  -2.5583  -2.5058
    -2.4667  -2.4026  -2.3155  -2.2220  -2.1434  -2.1166  -2.0110  -1.9443
    -1.8859  -1.8628  -1.8129  -1.5865  -1.4623  -1.4317  -1.3298  -1.3050
    -1.2564  -1.2158  -1.1560  -1.0998  -1.0400  -0.9919  -0.9568  -0.9255
    -0.8113  -0.7809  -0.7330  -0.7138  -0.6026  -0.5890  -0.4393  -0.4038
    -0.3527  -0.3058  -0.2220  -0.1840  -0.0976  -0.0815  -0.0405  -0.0192
     0.0521   0.1047   0.1232   0.2251

     the Fermi energy is    -1.0605 ev

!    total energy              =   -2116.21608098 Ry
     estimated scf accuracy    <       0.00078139 Ry
     smearing contrib. (-TS)   =      -0.12320325 Ry
     internal energy E=F+TS    =   -2116.09287772 Ry

     total magnetization       =     0.40 Bohr mag/cell
     absolute magnetization    =     2.95 Bohr mag/cell

     convergence has been achieved in  29 iterations

     negative rho (up, down):  2.672E-01 2.674E-01

     Forces acting on atoms (cartesian axes, Ry/au):

     atom    1 type  1   force =     0.00361218    0.05414915    0.02555915
     atom    2 type  1   force =     0.03792354    0.02288030   -0.02602120
     atom    3 type  1   force =     0.03416852   -0.01988310    0.02188457
     atom    4 type  1   force =     0.01289761   -0.00747860   -0.02598417
     atom    5 type  1   force =    -0.00500985    0.05794249    0.03243252
     atom    6 type  1   force =     0.00873794    0.03958679   -0.02734349
     atom    7 type  1   force =    -0.00806671   -0.03958595    0.02758026
     atom    8 type  1   force =     0.00504680   -0.05735800   -0.03233741
     atom    9 type  1   force =    -0.01319143    0.00794604    0.02625877
     atom   10 type  1   force =    -0.03434009    0.02043470   -0.02148280
     atom   11 type  1   force =    -0.03832258   -0.02301311    0.02577260
     atom   12 type  1   force =    -0.00349034   -0.05423282   -0.02518533
     atom   13 type  1   force =     0.01983314    0.05262002   -0.00026689
     atom   14 type  1   force =     0.03905435   -0.02362083   -0.00442607
     atom   15 type  1   force =     0.01748854    0.03538005    0.00133571
     atom   16 type  1   force =    -0.01864546   -0.02807066   -0.00223729
     atom   17 type  1   force =    -0.03870143    0.02356110    0.00462181
     atom   18 type  1   force =    -0.01922819   -0.05334163   -0.00005638
     atom   19 type  1   force =    -0.00509818    0.01653045   -0.01105005
     atom   20 type  1   force =    -0.02482812    0.00374311   -0.00464161
     atom   21 type  1   force =    -0.00791047    0.00694860   -0.02225598
     atom   22 type  1   force =    -0.02576404   -0.00674194   -0.00340800
     atom   23 type  1   force =     0.01196142   -0.01227117   -0.00595158
     atom   24 type  1   force =     0.03052666   -0.02019702    0.00495470
     atom   25 type  1   force =    -0.03026885    0.01972500   -0.00437401
     atom   26 type  1   force =    -0.01310401    0.01177679    0.00560785
     atom   27 type  1   force =     0.02594863    0.00596477    0.00337793
     atom   28 type  1   force =     0.00687009   -0.00632604    0.02248839
     atom   29 type  1   force =     0.02429914   -0.00333330    0.00351831
     atom   30 type  1   force =     0.00532832   -0.01791639    0.01077917
     atom   31 type  2   force =     0.04588211   -0.02897769    0.07780681
     atom   32 type  2   force =     0.00570698   -0.04131844    0.06728773
     atom   33 type  2   force =    -0.01780030    0.00559309    0.01966613
     atom   34 type  2   force =    -0.02770980    0.02204967    0.00774037
     atom   35 type  2   force =    -0.00547743    0.04161813   -0.06638717
     atom   36 type  2   force =    -0.04545423    0.02862980   -0.07921372
     atom   37 type  2   force =     0.02775688   -0.02418125   -0.00827454
     atom   38 type  2   force =     0.01995505   -0.00301010   -0.01912749
     atom   39 type  3   force =    -0.00058641   -0.00622202    0.00135239
     The non-local contrib.  to forces
     atom    1 type  1   force =    -0.03923179   -0.23637764   -0.11807638
     atom    2 type  1   force =    -0.18273964   -0.17917210    0.09643877
     atom    3 type  1   force =    -0.21814157    0.13225036    0.03125825
     atom    4 type  1   force =    -0.08858126    0.04898682    0.18450068
     atom    5 type  1   force =    -0.00981540   -0.25215046   -0.20910888
     atom    6 type  1   force =    -0.01069448   -0.23099619    0.05281115
     atom    7 type  1   force =     0.01119035    0.23420447   -0.05240594
     atom    8 type  1   force =     0.00992971    0.25227800    0.20749429
     atom    9 type  1   force =     0.08859754   -0.04793794   -0.18411637
     atom   10 type  1   force =     0.21760422   -0.13082682   -0.03069311
     atom   11 type  1   force =     0.18155751    0.17814858   -0.09684382
     atom   12 type  1   force =     0.03908533    0.23459126    0.11884344
     atom   13 type  1   force =    -0.16382410   -0.28234262   -0.00915495
     atom   14 type  1   force =    -0.24413105    0.15333134   -0.08711092
     atom   15 type  1   force =    -0.02474061   -0.25108904    0.05644916
     atom   16 type  1   force =     0.02196345    0.24490723   -0.05513747
     atom   17 type  1   force =     0.24383015   -0.15164206    0.08659868
     atom   18 type  1   force =     0.16505834    0.27709550    0.00947541
     atom   19 type  1   force =    -0.00340052    0.01484293    0.00850018
     atom   20 type  1   force =     0.08001924    0.05401206   -0.03655225
     atom   21 type  1   force =    -0.11428086    0.04504923    0.08584560
     atom   22 type  1   force =    -0.00037324    0.08907655    0.04751831
     atom   23 type  1   force =     0.01165176    0.07414817    0.05167687
     atom   24 type  1   force =     0.00160810    0.11893717    0.03473260
     atom   25 type  1   force =     0.00016716   -0.12179373   -0.03446132
     atom   26 type  1   force =    -0.01315549   -0.07324126   -0.05163997
     atom   27 type  1   force =    -0.00066216   -0.09157097   -0.04785462
     atom   28 type  1   force =     0.11359336   -0.04568248   -0.08676120
     atom   29 type  1   force =    -0.08047215   -0.05372742    0.03578415
     atom   30 type  1   force =     0.00385678   -0.01614098   -0.00795042
     atom   31 type  2   force =    -0.09368547    0.00773164   -0.23653728
     atom   32 type  2   force =     0.02233063    0.01402205   -0.25602119
     atom   33 type  2   force =    -0.03225600   -0.09854838   -0.00649899
     atom   34 type  2   force =     0.14971840   -0.04049997   -0.03851008
     atom   35 type  2   force =    -0.02169777   -0.01417397    0.25667675
     atom   36 type  2   force =     0.09267135   -0.00787248    0.23600006
     atom   37 type  2   force =    -0.14972328    0.04099939    0.03700999
     atom   38 type  2   force =     0.03323745    0.10057346    0.00631026
     atom   39 type  3   force =    -0.00017822   -0.00270529    0.00040342
     The ionic contribution  to forces
     atom    1 type  1   force =    -6.92759251   -7.44903448   -7.15717003
     atom    2 type  1   force =    -9.18165011   -5.95130231    7.12881314
     atom    3 type  1   force =    -9.21518146    3.50096597   -4.30374755
     atom    4 type  1   force =    -6.91955884    2.24006945    4.70027325
     atom    5 type  1   force =     2.41103231   -8.56522932   -9.78350737
     atom    6 type  1   force =     2.01976611   -8.46134986    9.36362175
     atom    7 type  1   force =    -1.98472337    8.42379806   -9.40557007
     atom    8 type  1   force =    -2.36126192    8.57113888    9.78657216
     atom    9 type  1   force =     6.90509333   -2.24420513   -4.69002142
     atom   10 type  1   force =     9.18774133   -3.50988189    4.28848663
     atom   11 type  1   force =     9.19378371    5.95799250   -7.11166034
     atom   12 type  1   force =     6.91534246    7.47474048    7.12277892
     atom   13 type  1   force =   -11.80371095  -11.47673131    0.13877852
     atom   14 type  1   force =   -11.78550752    4.72260215    0.00516411
     atom   15 type  1   force =     2.89751198  -14.76663259    0.07078941
     atom   16 type  1   force =    -2.79911459   14.64974776   -0.00402216
     atom   17 type  1   force =    11.74541841   -4.73941592    0.00502722
     atom   18 type  1   force =    11.77501186   11.54446565   -0.10945994
     atom   19 type  1   force =    -3.04527254    4.64632377   -7.98037488
     atom   20 type  1   force =    13.68144298    4.90382267   -7.03578462
     atom   21 type  1   force =   -11.57899927    4.05498847    6.20381744
     atom   22 type  1   force =     1.42649593   11.07835124    8.16321537
     atom   23 type  1   force =    -7.70410526    9.82028390    7.81795379
     atom   24 type  1   force =     6.17211073   10.74332451    7.19928560
     atom   25 type  1   force =    -6.15857450  -10.68966084   -7.21262013
     atom   26 type  1   force =     7.73628218   -9.84490973   -7.77830958
     atom   27 type  1   force =    -1.34824013  -11.05478939   -8.14749639
     atom   28 type  1   force =    11.56499636   -4.06925591   -6.18017849
     atom   29 type  1   force =   -13.67408910   -4.89602511    7.06182993
     atom   30 type  1   force =     3.09118036   -4.67526081    7.97956379
     atom   31 type  2   force =   -28.83707234    5.84445031  -31.56167347
     atom   32 type  2   force =    11.63069346   11.21145438  -40.26795823
     atom   33 type  2   force =   -13.35850892  -23.20351003    5.70958207
     atom   34 type  2   force =    42.64042532  -11.99882101    2.65700675
     atom   35 type  2   force =   -11.47750526  -11.22651335   40.29111909
     atom   36 type  2   force =    28.81272978   -5.89126023   31.48664439
     atom   37 type  2   force =   -42.67022466   11.91147406   -2.61443833
     atom   38 type  2   force =    13.57812679   23.24015235   -5.59174754
     atom   39 type  3   force =    -0.55429215    0.17364266   -0.24458279
     The local contribution  to forces
     atom    1 type  1   force =     6.97073190    7.73837665    7.29849740
     atom    2 type  1   force =     9.40291714    6.15483593   -7.25006823
     atom    3 type  1   force =     9.46601979   -3.65320806    4.29300699
     atom    4 type  1   force =     7.02032758   -2.29599345   -4.90635685
     atom    5 type  1   force =    -2.40306946    8.87435402   10.02285709
     atom    6 type  1   force =    -2.00428406    8.73087063   -9.44225105
     atom    7 type  1   force =     1.96710998   -8.69618688    9.48416761
     atom    8 type  1   force =     2.35422709   -8.88154869  -10.02426722
     atom    9 type  1   force =    -7.00591504    2.29891223    4.89610737
     atom   10 type  1   force =    -9.43749200    3.65995750   -4.27899816
     atom   11 type  1   force =    -9.41215700   -6.15981704    7.23397773
     atom   12 type  1   force =    -6.95866353   -7.76079681   -7.26605076
     atom   13 type  1   force =    11.98542060   11.81287980   -0.12817134
     atom   14 type  1   force =    12.07013556   -4.90064143    0.08220367
     atom   15 type  1   force =    -2.85099291   15.05362596   -0.12635337
     atom   16 type  1   force =     2.75735291  -14.91946057    0.05724021
     atom   17 type  1   force =   -12.03078403    4.91601731   -0.09213989
     atom   18 type  1   force =   -11.95816307  -11.87651903    0.09887612
     atom   19 type  1   force =     3.04456286   -4.64294067    7.96161851
     atom   20 type  1   force =   -13.78348259   -4.95767412    7.06782574
     atom   21 type  1   force =    11.68135191   -4.09021716   -6.30659562
     atom   22 type  1   force =    -1.45372051  -11.17427614   -8.21293597
     atom   23 type  1   force =     7.70196281   -9.90655983   -7.87359985
     atom   24 type  1   force =    -6.14411197  -10.88173587   -7.23201833
     atom   25 type  1   force =     6.12789332   10.83245452    7.24364727
     atom   26 type  1   force =    -7.73059507    9.92942779    7.83554645
     atom   27 type  1   force =     1.37778946   11.15339692    8.19821954
     atom   28 type  1   force =   -11.66581169    4.10473373    6.28468195
     atom   29 type  1   force =    13.77781103    4.94941812   -7.09144603
     atom   30 type  1   force =    -3.09138391    4.67382616   -7.96215694
     atom   31 type  2   force =    28.98592320   -5.88264515   31.90947591
     atom   32 type  2   force =   -11.64343733  -11.27054989   40.62436643
     atom   33 type  2   force =    13.37839020   23.32788220   -5.67605765
     atom   34 type  2   force =   -42.82101500   12.05806867   -2.62498234
     atom   35 type  2   force =    11.49093070   11.28804417  -40.64078204
     atom   36 type  2   force =   -28.95847838    5.92862478  -31.84192380
     atom   37 type  2   force =    42.85497136  -11.97302582    2.57780080
     atom   38 type  2   force =   -13.59017175  -23.35758110    5.56701235
     atom   39 type  3   force =     0.55399713   -0.17806524    0.24573431
     The core correction contribution to forces
     atom    1 type  1   force =     0.00000000    0.00000000    0.00000000
     atom    2 type  1   force =     0.00000000    0.00000000    0.00000000
     atom    3 type  1   force =     0.00000000    0.00000000    0.00000000
     atom    4 type  1   force =     0.00000000    0.00000000    0.00000000
     atom    5 type  1   force =     0.00000000    0.00000000    0.00000000
     atom    6 type  1   force =     0.00000000    0.00000000    0.00000000
     atom    7 type  1   force =     0.00000000    0.00000000    0.00000000
     atom    8 type  1   force =     0.00000000    0.00000000    0.00000000
     atom    9 type  1   force =     0.00000000    0.00000000    0.00000000
     atom   10 type  1   force =     0.00000000    0.00000000    0.00000000
     atom   11 type  1   force =     0.00000000    0.00000000    0.00000000
     atom   12 type  1   force =     0.00000000    0.00000000    0.00000000
     atom   13 type  1   force =     0.00000000    0.00000000    0.00000000
     atom   14 type  1   force =     0.00000000    0.00000000    0.00000000
     atom   15 type  1   force =     0.00000000    0.00000000    0.00000000
     atom   16 type  1   force =     0.00000000    0.00000000    0.00000000
     atom   17 type  1   force =     0.00000000    0.00000000    0.00000000
     atom   18 type  1   force =     0.00000000    0.00000000    0.00000000
     atom   19 type  1   force =     0.00000000    0.00000000    0.00000000
     atom   20 type  1   force =     0.00000000    0.00000000    0.00000000
     atom   21 type  1   force =     0.00000000    0.00000000    0.00000000
     atom   22 type  1   force =     0.00000000    0.00000000    0.00000000
     atom   23 type  1   force =     0.00000000    0.00000000    0.00000000
     atom   24 type  1   force =     0.00000000    0.00000000    0.00000000
     atom   25 type  1   force =     0.00000000    0.00000000    0.00000000
     atom   26 type  1   force =     0.00000000    0.00000000    0.00000000
     atom   27 type  1   force =     0.00000000    0.00000000    0.00000000
     atom   28 type  1   force =     0.00000000    0.00000000    0.00000000
     atom   29 type  1   force =     0.00000000    0.00000000    0.00000000
     atom   30 type  1   force =     0.00000000    0.00000000    0.00000000
     atom   31 type  2   force =    -0.00713617    0.00271949   -0.03497101
     atom   32 type  2   force =     0.00345561    0.00210732   -0.03474286
     atom   33 type  2   force =    -0.00668263   -0.01309592    0.00056799
     atom   34 type  2   force =     0.01284009   -0.00192457   -0.00496702
     atom   35 type  2   force =    -0.00340048   -0.00205792    0.03451752
     atom   36 type  2   force =     0.00702833   -0.00254557    0.03522112
     atom   37 type  2   force =    -0.01257540    0.00207708    0.00486422
     atom   38 type  2   force =     0.00664313    0.01316742   -0.00072279
     atom   39 type  3   force =     0.00000000    0.00000000    0.00000000
     The Hubbard contrib.    to forces
     atom    1 type  1   force =     0.00000000    0.00000000    0.00000000
     atom    2 type  1   force =     0.00000000    0.00000000    0.00000000
     atom    3 type  1   force =     0.00000000    0.00000000    0.00000000
     atom    4 type  1   force =     0.00000000    0.00000000    0.00000000
     atom    5 type  1   force =     0.00000000    0.00000000    0.00000000
     atom    6 type  1   force =     0.00000000    0.00000000    0.00000000
     atom    7 type  1   force =     0.00000000    0.00000000    0.00000000
     atom    8 type  1   force =     0.00000000    0.00000000    0.00000000
     atom    9 type  1   force =     0.00000000    0.00000000    0.00000000
     atom   10 type  1   force =     0.00000000    0.00000000    0.00000000
     atom   11 type  1   force =     0.00000000    0.00000000    0.00000000
     atom   12 type  1   force =     0.00000000    0.00000000    0.00000000
     atom   13 type  1   force =     0.00000000    0.00000000    0.00000000
     atom   14 type  1   force =     0.00000000    0.00000000    0.00000000
     atom   15 type  1   force =     0.00000000    0.00000000    0.00000000
     atom   16 type  1   force =     0.00000000    0.00000000    0.00000000
     atom   17 type  1   force =     0.00000000    0.00000000    0.00000000
     atom   18 type  1   force =     0.00000000    0.00000000    0.00000000
     atom   19 type  1   force =     0.00000000    0.00000000    0.00000000
     atom   20 type  1   force =     0.00000000    0.00000000    0.00000000
     atom   21 type  1   force =     0.00000000    0.00000000    0.00000000
     atom   22 type  1   force =     0.00000000    0.00000000    0.00000000
     atom   23 type  1   force =     0.00000000    0.00000000    0.00000000
     atom   24 type  1   force =     0.00000000    0.00000000    0.00000000
     atom   25 type  1   force =     0.00000000    0.00000000    0.00000000
     atom   26 type  1   force =     0.00000000    0.00000000    0.00000000
     atom   27 type  1   force =     0.00000000    0.00000000    0.00000000
     atom   28 type  1   force =     0.00000000    0.00000000    0.00000000
     atom   29 type  1   force =     0.00000000    0.00000000    0.00000000
     atom   30 type  1   force =     0.00000000    0.00000000    0.00000000
     atom   31 type  2   force =     0.00000000    0.00000000    0.00000000
     atom   32 type  2   force =     0.00000000    0.00000000    0.00000000
     atom   33 type  2   force =     0.00000000    0.00000000    0.00000000
     atom   34 type  2   force =     0.00000000    0.00000000    0.00000000
     atom   35 type  2   force =     0.00000000    0.00000000    0.00000000
     atom   36 type  2   force =     0.00000000    0.00000000    0.00000000
     atom   37 type  2   force =     0.00000000    0.00000000    0.00000000
     atom   38 type  2   force =     0.00000000    0.00000000    0.00000000
     atom   39 type  3   force =     0.00000000    0.00000000    0.00000000
     The SCF correction term to forces
     atom    1 type  1   force =    -0.00033542    0.00112456    0.00230860
     atom    2 type  1   force =    -0.00064386   -0.00154128   -0.00120445
     atom    3 type  1   force =     0.00143175    0.00004858    0.00136732
     atom    4 type  1   force =     0.00067012   -0.00060147   -0.00440082
     atom    5 type  1   force =    -0.00319730    0.00090820    0.00219212
     atom    6 type  1   force =     0.00391036    0.00100216   -0.00152491
     atom    7 type  1   force =    -0.00168367   -0.00146165    0.00138909
     atom    8 type  1   force =     0.00211192    0.00071374   -0.00213621
     atom    9 type  1   force =    -0.00100726    0.00111683    0.00428964
     atom   10 type  1   force =    -0.00223365    0.00112586   -0.00027774
     atom   11 type  1   force =    -0.00154680    0.00060279    0.00029947
     atom   12 type  1   force =     0.00070539   -0.00282781   -0.00075648
     atom   13 type  1   force =     0.00190758   -0.00124591   -0.00171868
     atom   14 type  1   force =    -0.00148264    0.00102706   -0.00468249
     atom   15 type  1   force =    -0.00432993   -0.00058433    0.00045094
     atom   16 type  1   force =     0.00111277   -0.00332514   -0.00031743
     atom   17 type  1   force =     0.00279403   -0.00145829    0.00513623
     atom   18 type  1   force =    -0.00117533    0.00155619    0.00105247
     atom   19 type  1   force =    -0.00102799   -0.00175563   -0.00079342
     atom   20 type  1   force =    -0.00284775    0.00352244   -0.00013003
     atom   21 type  1   force =     0.00397775   -0.00293199   -0.00532296
     atom   22 type  1   force =     0.00179378    0.00004637   -0.00120528
     atom   23 type  1   force =     0.00241210   -0.00020347   -0.00198196
     atom   24 type  1   force =     0.00087980   -0.00078289    0.00295528
     atom   25 type  1   force =     0.00020517   -0.00133500   -0.00093939
     atom   26 type  1   force =    -0.00567563    0.00043994    0.00001139
     atom   27 type  1   force =    -0.00297854   -0.00113184    0.00050984
     atom   28 type  1   force =    -0.00594795    0.00381856    0.00474656
     atom   29 type  1   force =     0.00100935   -0.00305894   -0.00264929
     atom   30 type  1   force =     0.00163508   -0.00040082    0.00132319
     atom   31 type  2   force =    -0.00218711   -0.00129403    0.00151310
     atom   32 type  2   force =    -0.00737538    0.00158764    0.00164401
     atom   33 type  2   force =     0.00121704   -0.00719482   -0.00792685
     atom   34 type  2   force =    -0.00971862    0.00516649    0.01919350
     atom   35 type  2   force =     0.00615538   -0.00374086   -0.00791806
     atom   36 type  2   force =     0.00055468    0.00162326    0.00484495
     atom   37 type  2   force =     0.00526885   -0.00576603   -0.01351079
     atom   38 type  2   force =    -0.00792057    0.00061772    0.00002066
     atom   39 type  3   force =    -0.00015318    0.00084579   -0.00020211

     Total force =     0.297121     Total SCF correction =     0.039952
     SCF correction compared to forces is large: reduce conv_thr to get better values


     Computing stress (Cartesian axis) and pressure


     negative rho (up, down):  2.672E-01 2.674E-01
          total   stress  (Ry/bohr**3)                   (kbar)     P=      -31.47
  -0.00021241   0.00001444  -0.00000744          -31.25        2.12       -1.09
   0.00001444  -0.00016921   0.00000382            2.12      -24.89        0.56
  -0.00000744   0.00000382  -0.00026007           -1.09        0.56      -38.26


     Molecular Dynamics Calculation

     Starting temperature  =   300.00 K

     temperature is set once at start

     mass Be               =     9.01
     mass W                =   183.84
     mass H                =     2.01
     Time step             =     2.10 a.u.,  0.1016 femto-seconds

     Entering Dynamics:    iteration =     1
                           time      =   0.0001 pico-seconds


ATOMIC_POSITIONS (angstrom)
Be            5.2225871447        3.0000076920        3.0000036307
Be            5.2225920187        3.0000032502       10.3072119946
Be            3.0005443943        6.8486956336        3.0000031088
Be            3.0005413727        6.8486973956       10.3072119999
Be            9.6666801009        3.0000082309        3.0000046071
Be            9.6666820538        3.0000056234       10.3072118068
Be            7.4446325767        6.8486928347        3.0000039179
Be            7.4446344395        6.8486903101       10.3072110974
Be           14.1107731197        3.0000011288        3.0000037301
Be           14.1107701155        3.0000029028       10.3072126393
Be           11.8887224597        6.8486951889        3.0000036611
Be           11.8887274077        6.8486907541       10.3072121134
Be            5.2225894489        3.0000074748        6.6536078071
Be            3.0005450883        6.8486951026        6.6536072163
Be            9.6666832969        3.0000050258        6.6536080347
Be            7.4446310739        6.8486944705        6.6536075272
Be           14.1107694959        3.0000033469        6.6536085015
Be           11.8887251721        6.8486908807        6.6536078370
Be            7.4446328654        5.5394965222        4.8268023533
Be           11.8887242437        5.5394947057        4.8268032636
Be            4.1343427179        6.1940971881        8.4804086065
Be            8.5784343627        6.1940952433        8.4804112839
Be            6.3108313187        6.1940944578        8.4804109226
Be           10.7549281380        6.1940933320        8.4804124718
Be            6.3563865998        3.6546050010        4.8268033017
Be           10.8004832191        3.6546038719        4.8268047196
Be            8.5328801646        3.6546030463        4.8268044028
Be           12.9769716355        3.6546013004        4.8268071175
Be            5.2225900833        4.3092039245        8.4804122678
Be            9.6666815695        4.3092018529        8.4804132992
W             5.2225869511        5.5657988462        3.4622967928
W             9.6666808523        5.5657987603        3.4622967196
W             7.4446336646        4.2828995629        7.1159043969
W            11.8887277766        4.2828996775        7.1159043139
W             7.4446337504        4.2828998138        9.8449188137
W            11.8887276530        4.2828997234        9.8449187244
W             5.2225868249        5.5657988796        6.1913115914
W             9.6666809515        5.5657990270        6.1913115158
H             6.9776656806        9.7999960450        6.1159051196


     kinetic energy (Ekin) =         161.87890716 Ry
     temperature           =      448397.50810729 K 
     Ekin + Etot (const)   =       -1954.33717381 Ry
     Ions kinetic stress =         1049.08 (kbar)
                                   3147.24           0.00           0.00
                                      0.00           0.00           0.00
                                      0.00           0.00           0.00



     Linear momentum :    0.0000000000    0.0000000000    0.0000000000

     File outdir/pwscf.msd.dat deleted, as requested

     Writing config-only to output data dir outdir/pwscf.save/
     NEW-OLD atomic charge density approx. for the potential

     negative rho (up, down):  2.672E-01 2.674E-01
     Generating pointlists ...

     total cpu time spent up to now is     2322.4 secs

     Self-consistent Calculation

     iteration #  1     ecut=   120.00 Ry     beta= 0.70
     Davidson diagonalization with overlap
     ethr =  1.00E-06,  avg # of iterations = 14.0

     negative rho (up, down):  2.675E-01 2.678E-01

     total cpu time spent up to now is     2481.3 secs

     total energy              =   -2116.20491045 Ry
     estimated scf accuracy    <       0.06438375 Ry

     total magnetization       =     0.24 Bohr mag/cell
     absolute magnetization    =     2.92 Bohr mag/cell

     iteration #  2     ecut=   120.00 Ry     beta= 0.70
     Davidson diagonalization with overlap
     ethr =  2.76E-05,  avg # of iterations =  2.5

     negative rho (up, down):  2.673E-01 2.675E-01

     total cpu time spent up to now is     2543.1 secs

     total energy              =   -2116.19993549 Ry
     estimated scf accuracy    <       0.32826675 Ry

     total magnetization       =     0.18 Bohr mag/cell
     absolute magnetization    =     3.19 Bohr mag/cell

     iteration #  3     ecut=   120.00 Ry     beta= 0.70
     Davidson diagonalization with overlap
     ethr =  2.76E-05,  avg # of iterations =  2.0

     negative rho (up, down):  2.671E-01 2.674E-01

     total cpu time spent up to now is     2634.3 secs

     total energy              =   -2116.21605168 Ry
     estimated scf accuracy    <       0.00502519 Ry

     total magnetization       =     0.21 Bohr mag/cell
     absolute magnetization    =     3.19 Bohr mag/cell

     iteration #  4     ecut=   120.00 Ry     beta= 0.70
     Davidson diagonalization with overlap
     ethr =  2.16E-06,  avg # of iterations =  5.5

     negative rho (up, down):  2.671E-01 2.674E-01

     total cpu time spent up to now is     2729.8 secs

     total energy              =   -2116.21700727 Ry
     estimated scf accuracy    <       0.01225362 Ry

     total magnetization       =     0.16 Bohr mag/cell
     absolute magnetization    =     3.31 Bohr mag/cell

     iteration #  5     ecut=   120.00 Ry     beta= 0.70
     Davidson diagonalization with overlap
     ethr =  2.16E-06,  avg # of iterations =  1.5

     negative rho (up, down):  2.671E-01 2.674E-01

     total cpu time spent up to now is     2841.1 secs

     total energy              =   -2116.21728010 Ry
     estimated scf accuracy    <       0.00287859 Ry

     total magnetization       =     0.13 Bohr mag/cell
     absolute magnetization    =     3.43 Bohr mag/cell

     iteration #  6     ecut=   120.00 Ry     beta= 0.70
     Davidson diagonalization with overlap
     ethr =  1.24E-06,  avg # of iterations =  2.0

     negative rho (up, down):  2.672E-01 2.675E-01

     Magnetic moment per site  (integrated on atomic sphere of radius R)
     atom   1 (R=0.052)  charge=  2.6316   -0.0355
     atom   2 (R=0.052)  charge=  2.6323   -0.0076
     atom   3 (R=0.052)  charge=  2.5964   -0.0212
     atom   4 (R=0.052)  charge=  2.5908   -0.0941
     atom   5 (R=0.052)  charge=  2.6641   -0.0357
     atom   6 (R=0.052)  charge=  2.6911    0.0013
     atom   7 (R=0.052)  charge=  2.6905    0.0007
     atom   8 (R=0.052)  charge=  2.6645   -0.0244
     atom   9 (R=0.052)  charge=  2.5913    0.0934
     atom  10 (R=0.052)  charge=  2.5960    0.0299
     atom  11 (R=0.052)  charge=  2.6316   -0.0232
     atom  12 (R=0.052)  charge=  2.6304    0.0008
     atom  13 (R=0.052)  charge=  2.6954   -0.0105
     atom  14 (R=0.052)  charge=  2.6238   -0.0214
     atom  15 (R=0.052)  charge=  2.7819    0.0000
     atom  16 (R=0.052)  charge=  2.7794   -0.0148
     atom  17 (R=0.052)  charge=  2.6245    0.0355
     atom  18 (R=0.052)  charge=  2.6970   -0.0015
     atom  19 (R=0.052)  charge=  2.9439    0.0010
     atom  20 (R=0.052)  charge=  2.8824   -0.0041
     atom  21 (R=0.052)  charge=  2.8119   -0.0157
     atom  22 (R=0.052)  charge=  2.9010    0.0012
     atom  23 (R=0.052)  charge=  2.9001    0.0028
     atom  24 (R=0.052)  charge=  2.8765   -0.0009
     atom  25 (R=0.052)  charge=  2.8754    0.0001
     atom  26 (R=0.052)  charge=  2.9004   -0.0038
     atom  27 (R=0.052)  charge=  2.9009    0.0015
     atom  28 (R=0.052)  charge=  2.8124    0.0172
     atom  29 (R=0.052)  charge=  2.8826    0.0019
     atom  30 (R=0.052)  charge=  2.9444   -0.0014
     atom  31 (R=0.063)  charge= 10.9342   -0.0990
     atom  32 (R=0.063)  charge= 10.9235   -0.0858
     atom  33 (R=0.063)  charge= 10.9952   -0.0234
     atom  34 (R=0.063)  charge= 10.9190    0.0237
     atom  35 (R=0.063)  charge= 10.9129   -0.0083
     atom  36 (R=0.063)  charge= 10.9313    0.0524
     atom  37 (R=0.063)  charge= 10.9288   -0.0047
     atom  38 (R=0.063)  charge= 10.9903    0.0049
     atom  39 (R=0.072)  charge=  0.9269    0.7643

     total cpu time spent up to now is     2897.1 secs

     End of self-consistent calculation

 ------ SPIN UP ------------


          k = 0.0000 0.0000 0.0000 (168028 PWs)   bands (ev):

  -103.4166-103.3173-102.9903-102.9869-102.9701-102.9503-102.7059-102.6995
  -102.6219-102.6099-102.5655-102.5648-102.3223-102.3030-101.6666-101.6593
  -101.4197-101.3816-100.9243-100.9057-100.5040-100.4896-100.4699-100.4647
  -100.4186-100.4076-100.4023-100.3973-100.0574-100.0494 -74.9290 -74.9035
   -74.8832 -74.8723 -74.8594 -74.8497 -74.8026 -74.7700 -39.3772 -39.3505
   -39.3198 -39.2637 -39.2347 -39.1897 -39.1651 -39.0948 -39.0661 -39.0471
   -39.0259 -39.0038 -38.9932 -38.9793 -38.9600 -38.9281 -38.9254 -38.8877
   -38.8810 -38.8344 -38.7977 -38.7852 -38.7474 -38.7292  -8.7822  -7.7162
    -7.2625  -6.5874  -6.3610  -6.2873  -5.8380  -5.6746  -5.5293  -5.3392
    -5.1864  -4.8946  -4.8335  -4.7992  -4.6057  -4.1967  -4.1728  -4.1257
    -3.9898  -3.8853  -3.7557  -3.6798  -3.6323  -3.5306  -3.3392  -3.2070
    -3.1905  -3.1304  -3.0737  -2.9416  -2.7945  -2.6699  -2.6342  -2.5530
    -2.4888  -2.4332  -2.3770  -2.2981  -2.1787  -2.1076  -2.0969  -1.9970
    -1.9279  -1.8663  -1.8479  -1.7790  -1.5881  -1.4355  -1.4066  -1.2996
    -1.2944  -1.2126  -1.2073  -1.1132  -1.0378  -1.0079  -0.9535  -0.9293
    -0.8941  -0.7727  -0.7387  -0.6735  -0.6400  -0.5742  -0.5538  -0.3647
    -0.3553  -0.3272  -0.2781  -0.1831  -0.1572  -0.0624  -0.0237  -0.0032
     0.0425   0.0778   0.1546   0.2719

 ------ SPIN DOWN ----------


          k = 0.0000 0.0000 0.0000 (168028 PWs)   bands (ev):

  -103.3970-103.3391-103.0010-102.9679-102.9666-102.9419-102.7158-102.7120
  -102.6366-102.6221-102.5920-102.5851-102.3234-102.3111-101.6661-101.6583
  -101.4200-101.3953-100.9185-100.9109-100.5037-100.4901-100.4685-100.4636
  -100.4166-100.4100-100.4009-100.3998-100.0565-100.0502 -74.9333 -74.9106
   -74.8895 -74.8757 -74.8705 -74.8632 -74.8133 -74.7806 -39.3806 -39.3556
   -39.3281 -39.2765 -39.2466 -39.1897 -39.1733 -39.1011 -39.0715 -39.0594
   -39.0489 -39.0245 -39.0115 -39.0002 -38.9820 -38.9448 -38.9354 -38.9030
   -38.8950 -38.8373 -38.8091 -38.7965 -38.7478 -38.7354  -8.7879  -7.7213
    -7.2695  -6.5913  -6.3682  -6.2998  -5.8557  -5.6795  -5.5390  -5.3446
    -5.1993  -4.9113  -4.8375  -4.8000  -4.6225  -4.2149  -4.1460  -4.1086
    -3.9798  -3.8121  -3.6985  -3.6506  -3.5382  -3.3734  -3.2517  -3.2075
    -3.1383  -3.0838  -2.9588  -2.8060  -2.6907  -2.6485  -2.5612  -2.5127
    -2.4660  -2.4039  -2.3198  -2.2296  -2.1478  -2.1211  -2.0198  -1.9510
    -1.8945  -1.8698  -1.8160  -1.5931  -1.4720  -1.4429  -1.3408  -1.3108
    -1.2705  -1.2282  -1.1719  -1.1185  -1.0559  -1.0038  -0.9649  -0.9298
    -0.8439  -0.7819  -0.7462  -0.7157  -0.6220  -0.5856  -0.4564  -0.3675
    -0.3505  -0.3037  -0.2400  -0.1933  -0.1300  -0.0807  -0.0422  -0.0265
     0.0618   0.0666   0.1256   0.2185

     the Fermi energy is    -1.0652 ev

!    total energy              =   -2116.21695890 Ry
     estimated scf accuracy    <       0.00079131 Ry
     smearing contrib. (-TS)   =      -0.12228251 Ry
     internal energy E=F+TS    =   -2116.09467639 Ry

     total magnetization       =     0.10 Bohr mag/cell
     absolute magnetization    =     3.49 Bohr mag/cell

     convergence has been achieved in   6 iterations

     negative rho (up, down):  2.672E-01 2.675E-01

     Forces acting on atoms (cartesian axes, Ry/au):

     atom    1 type  1   force =     0.00387494    0.05313457    0.02326076
     atom    2 type  1   force =     0.03866276    0.02408211   -0.02538143
     atom    3 type  1   force =     0.03207118   -0.01997405    0.02010393
     atom    4 type  1   force =     0.01242072   -0.00754407   -0.02388304
     atom    5 type  1   force =    -0.00319568    0.05791879    0.03143177
     atom    6 type  1   force =     0.00691631    0.03921732   -0.02618950
     atom    7 type  1   force =    -0.00536747   -0.03875721    0.02566299
     atom    8 type  1   force =     0.00481632   -0.05842628   -0.03140077
     atom    9 type  1   force =    -0.01344178    0.00763127    0.02480760
     atom   10 type  1   force =    -0.03344139    0.01967376   -0.02090796
     atom   11 type  1   force =    -0.03789065   -0.02349483    0.02551999
     atom   12 type  1   force =    -0.00390351   -0.05267903   -0.02441052
     atom   13 type  1   force =     0.01931438    0.05159480    0.00075770
     atom   14 type  1   force =     0.03858855   -0.02433735   -0.00220019
     atom   15 type  1   force =     0.02023585    0.03637836    0.00119710
     atom   16 type  1   force =    -0.01871600   -0.02639192   -0.00151399
     atom   17 type  1   force =    -0.03986494    0.02377598    0.00294564
     atom   18 type  1   force =    -0.01871543   -0.05424488   -0.00064178
     atom   19 type  1   force =    -0.00226212    0.01675021   -0.01093616
     atom   20 type  1   force =    -0.02426167    0.00256494   -0.00449339
     atom   21 type  1   force =    -0.00930008    0.00730840   -0.01982028
     atom   22 type  1   force =    -0.02596443   -0.00786774   -0.00193251
     atom   23 type  1   force =     0.01233758   -0.01369883   -0.00362335
     atom   24 type  1   force =     0.02995483   -0.01951728    0.00379805
     atom   25 type  1   force =    -0.02927237    0.01950007   -0.00382568
     atom   26 type  1   force =    -0.01096715    0.01213134    0.00562489
     atom   27 type  1   force =     0.02877058    0.00705028    0.00274867
     atom   28 type  1   force =     0.00797056   -0.00728275    0.02147005
     atom   29 type  1   force =     0.02499954   -0.00206263    0.00573221
     atom   30 type  1   force =     0.00410787   -0.01766700    0.01061839
     atom   31 type  2   force =     0.04373368   -0.02852391    0.07712808
     atom   32 type  2   force =     0.00365866   -0.04109094    0.06833043
     atom   33 type  2   force =    -0.01908668    0.00443291    0.01545431
     atom   34 type  2   force =    -0.02945750    0.02284113    0.01356563
     atom   35 type  2   force =    -0.00580591    0.04115011   -0.07085417
     atom   36 type  2   force =    -0.04435983    0.02820696   -0.07564891
     atom   37 type  2   force =     0.02858200   -0.02520721   -0.01354893
     atom   38 type  2   force =     0.01593037   -0.00220042   -0.01991057
     atom   39 type  3   force =    -0.00167209   -0.00437496    0.00096496
     The non-local contrib.  to forces
     atom    1 type  1   force =    -0.03769074   -0.23773456   -0.12053002
     atom    2 type  1   force =    -0.18182989   -0.17760218    0.09872447
     atom    3 type  1   force =    -0.21924577    0.13101930    0.02921940
     atom    4 type  1   force =    -0.08763607    0.04857271    0.18662298
     atom    5 type  1   force =    -0.00603585   -0.25145172   -0.21312707
     atom    6 type  1   force =    -0.01397885   -0.23170449    0.05599402
     atom    7 type  1   force =     0.01450718    0.23478883   -0.05569675
     atom    8 type  1   force =     0.00955735    0.25227056    0.21031674
     atom    9 type  1   force =     0.08788165   -0.04843482   -0.18664533
     atom   10 type  1   force =     0.21803156   -0.13120946   -0.02892663
     atom   11 type  1   force =     0.18299194    0.17882026   -0.09889825
     atom   12 type  1   force =     0.03776613    0.23749114    0.12131625
     atom   13 type  1   force =    -0.16423046   -0.28010750   -0.00740919
     atom   14 type  1   force =    -0.24449657    0.15236683   -0.08483363
     atom   15 type  1   force =    -0.02154409   -0.24876418    0.05676509
     atom   16 type  1   force =     0.02285152    0.24385382   -0.05380165
     atom   17 type  1   force =     0.24313390   -0.15125978    0.08523893
     atom   18 type  1   force =     0.16540465    0.27702952    0.00872495
     atom   19 type  1   force =    -0.00056424    0.01597223    0.00871909
     atom   20 type  1   force =     0.08030294    0.05299046   -0.03678162
     atom   21 type  1   force =    -0.11351569    0.04428216    0.08699623
     atom   22 type  1   force =    -0.00065953    0.08775773    0.04926829
     atom   23 type  1   force =     0.01160712    0.07449316    0.05437343
     atom   24 type  1   force =     0.00098533    0.11994172    0.03388746
     atom   25 type  1   force =     0.00139245   -0.12289648   -0.03405533
     atom   26 type  1   force =    -0.01121301   -0.07297504   -0.05179382
     atom   27 type  1   force =     0.00221454   -0.08956438   -0.04925214
     atom   28 type  1   force =     0.11265484   -0.04533184   -0.08633114
     atom   29 type  1   force =    -0.07987462   -0.05253076    0.03839941
     atom   30 type  1   force =     0.00263705   -0.01616156   -0.00742494
     atom   31 type  2   force =    -0.09366413    0.00800863   -0.23619770
     atom   32 type  2   force =     0.02081701    0.01396272   -0.25644952
     atom   33 type  2   force =    -0.03387539   -0.09979243   -0.01021231
     atom   34 type  2   force =     0.14785433   -0.03931522   -0.03247635
     atom   35 type  2   force =    -0.02193709   -0.01445571    0.25490383
     atom   36 type  2   force =     0.09225048   -0.00735118    0.23837255
     atom   37 type  2   force =    -0.14732246    0.04209788    0.03171341
     atom   38 type  2   force =     0.02926478    0.10119885    0.00593636
     atom   39 type  3   force =    -0.00021789   -0.00189094    0.00031365
     The ionic contribution  to forces
     atom    1 type  1   force =    -6.92205504   -7.44295417   -7.16501869
     atom    2 type  1   force =    -9.17691920   -5.94869951    7.13363172
     atom    3 type  1   force =    -9.21878415    3.49764732   -4.30891236
     atom    4 type  1   force =    -6.92147232    2.23824869    4.70413069
     atom    5 type  1   force =     2.41386778   -8.57119042   -9.77578186
     atom    6 type  1   force =     2.02284365   -8.46404657    9.35866697
     atom    7 type  1   force =    -1.96985357    8.42509823   -9.40403522
     atom    8 type  1   force =    -2.35174041    8.57166371    9.78578036
     atom    9 type  1   force =     6.89949669   -2.24484397   -4.68872162
     atom   10 type  1   force =     9.18308691   -3.51032504    4.28738514
     atom   11 type  1   force =     9.18949754    5.96065614   -7.10741406
     atom   12 type  1   force =     6.91263237    7.47629418    7.11951025
     atom   13 type  1   force =   -11.80000273  -11.45084672    0.14384225
     atom   14 type  1   force =   -11.79463324    4.71439984    0.00714307
     atom   15 type  1   force =     2.89538587  -14.78858610    0.06638620
     atom   16 type  1   force =    -2.75954053   14.65810875   -0.00561224
     atom   17 type  1   force =    11.73796849   -4.74054216    0.00464681
     atom   18 type  1   force =    11.76611100   11.55047235   -0.11098746
     atom   19 type  1   force =    -3.02906702    4.64744041   -7.97970461
     atom   20 type  1   force =    13.67658427    4.90578083   -7.03364905
     atom   21 type  1   force =   -11.57921549    4.04932042    6.20979392
     atom   22 type  1   force =     1.43672118   11.08474335    8.15746925
     atom   23 type  1   force =    -7.69104286    9.81541733    7.82225486
     atom   24 type  1   force =     6.17009476   10.74807401    7.19398170
     atom   25 type  1   force =    -6.14173196  -10.68177149   -7.21615575
     atom   26 type  1   force =     7.73279053   -9.85139997   -7.77449131
     atom   27 type  1   force =    -1.33563244  -11.06511619   -8.14275580
     atom   28 type  1   force =    11.55848790   -4.07099122   -6.17870334
     atom   29 type  1   force =   -13.66823405   -4.89319441    7.06630839
     atom   30 type  1   force =     3.09469963   -4.67803148    7.97490640
     atom   31 type  2   force =   -28.81722694    5.83418900  -31.57788051
     atom   32 type  2   force =    11.64282216   11.22161233  -40.25117047
     atom   33 type  2   force =   -13.30040567  -23.20735322    5.70770247
     atom   34 type  2   force =    42.62289769  -12.00533044    2.65100178
     atom   35 type  2   force =   -11.44717366  -11.22730076   40.28919525
     atom   36 type  2   force =    28.80417139   -5.89372717   31.47679953
     atom   37 type  2   force =   -42.64671460   11.88650653   -2.61352371
     atom   38 type  2   force =    13.58923731   23.26346327   -5.59262183
     atom   39 type  3   force =    -0.77795126    0.18711434   -0.23339709
     The local contribution  to forces
     atom    1 type  1   force =     6.96250705    7.73743268    7.31248687
     atom    2 type  1   force =     9.39393661    6.14755385   -7.25905433
     atom    3 type  1   force =     9.47664186   -3.65068033    4.30315728
     atom    4 type  1   force =     7.02030477   -2.29296915   -4.91357425
     atom    5 type  1   force =    -2.41386734    8.87863273   10.02150901
     atom    6 type  1   force =    -1.99681905    8.73423247   -9.44303438
     atom    7 type  1   force =     1.94192445   -8.69935501    9.48943971
     atom    8 type  1   force =     2.34552102   -8.87822528  -10.02840316
     atom    9 type  1   force =    -6.99782895    2.29975550    4.89742005
     atom   10 type  1   force =    -9.43695883    3.66330040   -4.28113065
     atom   11 type  1   force =    -9.41002595   -6.16230377    7.23248561
     atom   12 type  1   force =    -6.95325516   -7.77011093   -7.26677459
     atom   13 type  1   force =    11.98418783   11.78078700   -0.13859935
     atom   14 type  1   force =    12.08076337   -4.89053247    0.07418094
     atom   15 type  1   force =    -2.85842340   15.07180458   -0.12277496
     atom   16 type  1   force =     2.71397342  -14.92639686    0.05540575
     atom   17 type  1   force =   -12.01950914    4.91534243   -0.08827496
     atom   18 type  1   force =   -11.95066736  -11.88019008    0.10173424
     atom   19 type  1   force =     3.02006365   -4.64634453    7.95962770
     atom   20 type  1   force =   -13.78066698   -4.95629753    7.06512276
     atom   21 type  1   force =    11.68114477   -4.08376281   -6.31779231
     atom   22 type  1   force =    -1.46358545  -11.17781224   -8.21258489
     atom   23 type  1   force =     7.68879349   -9.90048286   -7.88565416
     atom   24 type  1   force =    -6.14087988  -10.88894211   -7.22339253
     atom   25 type  1   force =     6.10810564   10.82593439    7.24572864
     atom   26 type  1   force =    -7.73391676    9.93497683    7.83116387
     atom   27 type  1   force =     1.35730850   11.16007623    8.19629985
     atom   28 type  1   force =   -11.65828699    4.10631395    6.28290852
     atom   29 type  1   force =    13.77035766    4.94386284   -7.10357699
     atom   30 type  1   force =    -3.09147344    4.67588042   -7.95826644
     atom   31 type  2   force =    28.95232301   -5.86867979   31.92936666
     atom   32 type  2   force =   -11.67300348  -11.27902064   40.61616539
     atom   33 type  2   force =    13.31297673   23.32088603   -5.69978540
     atom   34 type  2   force =   -42.80978189   12.06604077   -2.59138919
     atom   35 type  2   force =    11.45986696   11.28566976  -40.66591651
     atom   36 type  2   force =   -28.93876015    5.92734939  -31.82085112
     atom   37 type  2   force =    42.83151437  -11.95041887    2.54463962
     atom   38 type  2   force =   -13.62434085  -23.37817719    5.56572221
     atom   39 type  3   force =     0.77625213   -0.18964479    0.23383273
     The core correction contribution to forces
     atom    1 type  1   force =     0.00000000    0.00000000    0.00000000
     atom    2 type  1   force =     0.00000000    0.00000000    0.00000000
     atom    3 type  1   force =     0.00000000    0.00000000    0.00000000
     atom    4 type  1   force =     0.00000000    0.00000000    0.00000000
     atom    5 type  1   force =     0.00000000    0.00000000    0.00000000
     atom    6 type  1   force =     0.00000000    0.00000000    0.00000000
     atom    7 type  1   force =     0.00000000    0.00000000    0.00000000
     atom    8 type  1   force =     0.00000000    0.00000000    0.00000000
     atom    9 type  1   force =     0.00000000    0.00000000    0.00000000
     atom   10 type  1   force =     0.00000000    0.00000000    0.00000000
     atom   11 type  1   force =     0.00000000    0.00000000    0.00000000
     atom   12 type  1   force =     0.00000000    0.00000000    0.00000000
     atom   13 type  1   force =     0.00000000    0.00000000    0.00000000
     atom   14 type  1   force =     0.00000000    0.00000000    0.00000000
     atom   15 type  1   force =     0.00000000    0.00000000    0.00000000
     atom   16 type  1   force =     0.00000000    0.00000000    0.00000000
     atom   17 type  1   force =     0.00000000    0.00000000    0.00000000
     atom   18 type  1   force =     0.00000000    0.00000000    0.00000000
     atom   19 type  1   force =     0.00000000    0.00000000    0.00000000
     atom   20 type  1   force =     0.00000000    0.00000000    0.00000000
     atom   21 type  1   force =     0.00000000    0.00000000    0.00000000
     atom   22 type  1   force =     0.00000000    0.00000000    0.00000000
     atom   23 type  1   force =     0.00000000    0.00000000    0.00000000
     atom   24 type  1   force =     0.00000000    0.00000000    0.00000000
     atom   25 type  1   force =     0.00000000    0.00000000    0.00000000
     atom   26 type  1   force =     0.00000000    0.00000000    0.00000000
     atom   27 type  1   force =     0.00000000    0.00000000    0.00000000
     atom   28 type  1   force =     0.00000000    0.00000000    0.00000000
     atom   29 type  1   force =     0.00000000    0.00000000    0.00000000
     atom   30 type  1   force =     0.00000000    0.00000000    0.00000000
     atom   31 type  2   force =    -0.00691158    0.00273052   -0.03475577
     atom   32 type  2   force =     0.00348657    0.00209148   -0.03493717
     atom   33 type  2   force =    -0.00681328   -0.01308582    0.00042298
     atom   34 type  2   force =     0.01276943   -0.00182915   -0.00448912
     atom   35 type  2   force =    -0.00331889   -0.00215736    0.03481683
     atom   36 type  2   force =     0.00685920   -0.00247711    0.03543897
     atom   37 type  2   force =    -0.01212132    0.00225645    0.00464023
     atom   38 type  2   force =     0.00648411    0.01324623   -0.00083451
     atom   39 type  3   force =     0.00000000    0.00000000    0.00000000
     The Hubbard contrib.    to forces
     atom    1 type  1   force =     0.00000000    0.00000000    0.00000000
     atom    2 type  1   force =     0.00000000    0.00000000    0.00000000
     atom    3 type  1   force =     0.00000000    0.00000000    0.00000000
     atom    4 type  1   force =     0.00000000    0.00000000    0.00000000
     atom    5 type  1   force =     0.00000000    0.00000000    0.00000000
     atom    6 type  1   force =     0.00000000    0.00000000    0.00000000
     atom    7 type  1   force =     0.00000000    0.00000000    0.00000000
     atom    8 type  1   force =     0.00000000    0.00000000    0.00000000
     atom    9 type  1   force =     0.00000000    0.00000000    0.00000000
     atom   10 type  1   force =     0.00000000    0.00000000    0.00000000
     atom   11 type  1   force =     0.00000000    0.00000000    0.00000000
     atom   12 type  1   force =     0.00000000    0.00000000    0.00000000
     atom   13 type  1   force =     0.00000000    0.00000000    0.00000000
     atom   14 type  1   force =     0.00000000    0.00000000    0.00000000
     atom   15 type  1   force =     0.00000000    0.00000000    0.00000000
     atom   16 type  1   force =     0.00000000    0.00000000    0.00000000
     atom   17 type  1   force =     0.00000000    0.00000000    0.00000000
     atom   18 type  1   force =     0.00000000    0.00000000    0.00000000
     atom   19 type  1   force =     0.00000000    0.00000000    0.00000000
     atom   20 type  1   force =     0.00000000    0.00000000    0.00000000
     atom   21 type  1   force =     0.00000000    0.00000000    0.00000000
     atom   22 type  1   force =     0.00000000    0.00000000    0.00000000
     atom   23 type  1   force =     0.00000000    0.00000000    0.00000000
     atom   24 type  1   force =     0.00000000    0.00000000    0.00000000
     atom   25 type  1   force =     0.00000000    0.00000000    0.00000000
     atom   26 type  1   force =     0.00000000    0.00000000    0.00000000
     atom   27 type  1   force =     0.00000000    0.00000000    0.00000000
     atom   28 type  1   force =     0.00000000    0.00000000    0.00000000
     atom   29 type  1   force =     0.00000000    0.00000000    0.00000000
     atom   30 type  1   force =     0.00000000    0.00000000    0.00000000
     atom   31 type  2   force =     0.00000000    0.00000000    0.00000000
     atom   32 type  2   force =     0.00000000    0.00000000    0.00000000
     atom   33 type  2   force =     0.00000000    0.00000000    0.00000000
     atom   34 type  2   force =     0.00000000    0.00000000    0.00000000
     atom   35 type  2   force =     0.00000000    0.00000000    0.00000000
     atom   36 type  2   force =     0.00000000    0.00000000    0.00000000
     atom   37 type  2   force =     0.00000000    0.00000000    0.00000000
[...]
     atom    3 type  1   force =     9.44760394   -3.66314625    4.29316469
     atom    4 type  1   force =     6.98785069   -2.30575429   -4.90442691
     atom    5 type  1   force =    -2.32152719    8.88154016   10.06441125
     atom    6 type  1   force =    -1.93609265    8.75520943   -9.48271844
     atom    7 type  1   force =     2.01987827   -8.75466437    9.46655168
     atom    8 type  1   force =     2.40013851   -8.92283965  -10.02502708
     atom    9 type  1   force =    -7.03730056    2.28813574    4.93473836
     atom   10 type  1   force =    -9.48352482    3.65562684   -4.31650774
     atom   11 type  1   force =    -9.40153146   -6.14726619    7.30431150
     atom   12 type  1   force =    -6.94913955   -7.78576756   -7.32382594
     atom   13 type  1   force =    11.95460233   11.92593936   -0.11572407
     atom   14 type  1   force =    12.03043592   -4.93309442    0.08747816
     atom   15 type  1   force =    -2.66645418   15.02350383   -0.13962704
     atom   16 type  1   force =     2.83907524  -15.12100866    0.09476553
     atom   17 type  1   force =   -12.11826643    4.89341889   -0.10102048
     atom   18 type  1   force =   -11.97600966  -11.74821846    0.07865416
     atom   19 type  1   force =     3.09496513   -4.68491893    7.93532603
     atom   20 type  1   force =   -13.77122664   -4.92173938    7.10015880
     atom   21 type  1   force =    11.64428342   -4.11172464   -6.29208231
     atom   22 type  1   force =    -1.37816922  -11.20596960   -8.19072863
     atom   23 type  1   force =     7.73378272   -9.96398006   -7.84048299
     atom   24 type  1   force =    -6.06388836  -10.86243662   -7.26243843
     atom   25 type  1   force =     6.12917757   10.90225824    7.21205017
     atom   26 type  1   force =    -7.67516065    9.89839169    7.86942199
     atom   27 type  1   force =     1.50685242   11.19805196    8.17796570
     atom   28 type  1   force =   -11.68373896    4.06232582    6.32111629
     atom   29 type  1   force =    13.78281645    4.95826387   -7.07658841
     atom   30 type  1   force =    -2.99565757    4.67438539   -7.96354816
     atom   31 type  2   force =    28.93552095   -5.95495225   31.84857322
     atom   32 type  2   force =   -11.36592783  -11.28049125   40.70477810
     atom   33 type  2   force =    13.56216369   23.47085317   -5.59753670
     atom   34 type  2   force =   -42.74907371   11.97673123   -2.66365168
     atom   35 type  2   force =    11.62196246   11.33712983  -40.62386783
     atom   36 type  2   force =   -28.86886010    5.92202634  -31.95634102
     atom   37 type  2   force =    42.79116960  -12.08826943    2.57836451
     atom   38 type  2   force =   -13.18548904  -23.36565046    5.54844288
     atom   39 type  3   force =    -1.16770938    0.01317785    0.25489511
     The core correction contribution to forces
     atom    1 type  1   force =     0.00000000    0.00000000    0.00000000
     atom    2 type  1   force =     0.00000000    0.00000000    0.00000000
     atom    3 type  1   force =     0.00000000    0.00000000    0.00000000
     atom    4 type  1   force =     0.00000000    0.00000000    0.00000000
     atom    5 type  1   force =     0.00000000    0.00000000    0.00000000
     atom    6 type  1   force =     0.00000000    0.00000000    0.00000000
     atom    7 type  1   force =     0.00000000    0.00000000    0.00000000
     atom    8 type  1   force =     0.00000000    0.00000000    0.00000000
     atom    9 type  1   force =     0.00000000    0.00000000    0.00000000
     atom   10 type  1   force =     0.00000000    0.00000000    0.00000000
     atom   11 type  1   force =     0.00000000    0.00000000    0.00000000
     atom   12 type  1   force =     0.00000000    0.00000000    0.00000000
     atom   13 type  1   force =     0.00000000    0.00000000    0.00000000
     atom   14 type  1   force =     0.00000000    0.00000000    0.00000000
     atom   15 type  1   force =     0.00000000    0.00000000    0.00000000
     atom   16 type  1   force =     0.00000000    0.00000000    0.00000000
     atom   17 type  1   force =     0.00000000    0.00000000    0.00000000
     atom   18 type  1   force =     0.00000000    0.00000000    0.00000000
     atom   19 type  1   force =     0.00000000    0.00000000    0.00000000
     atom   20 type  1   force =     0.00000000    0.00000000    0.00000000
     atom   21 type  1   force =     0.00000000    0.00000000    0.00000000
     atom   22 type  1   force =     0.00000000    0.00000000    0.00000000
     atom   23 type  1   force =     0.00000000    0.00000000    0.00000000
     atom   24 type  1   force =     0.00000000    0.00000000    0.00000000
     atom   25 type  1   force =     0.00000000    0.00000000    0.00000000
     atom   26 type  1   force =     0.00000000    0.00000000    0.00000000
     atom   27 type  1   force =     0.00000000    0.00000000    0.00000000
     atom   28 type  1   force =     0.00000000    0.00000000    0.00000000
     atom   29 type  1   force =     0.00000000    0.00000000    0.00000000
     atom   30 type  1   force =     0.00000000    0.00000000    0.00000000
     atom   31 type  2   force =    -0.00716658    0.00189912   -0.03593440
     atom   32 type  2   force =     0.00305385    0.00305658   -0.03491767
     atom   33 type  2   force =    -0.00619414   -0.01346538    0.00044706
     atom   34 type  2   force =     0.01220301   -0.00211777   -0.00478456
     atom   35 type  2   force =    -0.00305867   -0.00195172    0.03479113
     atom   36 type  2   force =     0.00710570   -0.00213076    0.03583172
     atom   37 type  2   force =    -0.01259294    0.00197259    0.00393734
     atom   38 type  2   force =     0.00660159    0.01348111   -0.00077582
     atom   39 type  3   force =     0.00000000    0.00000000    0.00000000
     The Hubbard contrib.    to forces
     atom    1 type  1   force =     0.00000000    0.00000000    0.00000000
     atom    2 type  1   force =     0.00000000    0.00000000    0.00000000
     atom    3 type  1   force =     0.00000000    0.00000000    0.00000000
     atom    4 type  1   force =     0.00000000    0.00000000    0.00000000
     atom    5 type  1   force =     0.00000000    0.00000000    0.00000000
     atom    6 type  1   force =     0.00000000    0.00000000    0.00000000
     atom    7 type  1   force =     0.00000000    0.00000000    0.00000000
     atom    8 type  1   force =     0.00000000    0.00000000    0.00000000
     atom    9 type  1   force =     0.00000000    0.00000000    0.00000000
     atom   10 type  1   force =     0.00000000    0.00000000    0.00000000
     atom   11 type  1   force =     0.00000000    0.00000000    0.00000000
     atom   12 type  1   force =     0.00000000    0.00000000    0.00000000
     atom   13 type  1   force =     0.00000000    0.00000000    0.00000000
     atom   14 type  1   force =     0.00000000    0.00000000    0.00000000
     atom   15 type  1   force =     0.00000000    0.00000000    0.00000000
     atom   16 type  1   force =     0.00000000    0.00000000    0.00000000
     atom   17 type  1   force =     0.00000000    0.00000000    0.00000000
     atom   18 type  1   force =     0.00000000    0.00000000    0.00000000
     atom   19 type  1   force =     0.00000000    0.00000000    0.00000000
     atom   20 type  1   force =     0.00000000    0.00000000    0.00000000
     atom   21 type  1   force =     0.00000000    0.00000000    0.00000000
     atom   22 type  1   force =     0.00000000    0.00000000    0.00000000
     atom   23 type  1   force =     0.00000000    0.00000000    0.00000000
     atom   24 type  1   force =     0.00000000    0.00000000    0.00000000
     atom   25 type  1   force =     0.00000000    0.00000000    0.00000000
     atom   26 type  1   force =     0.00000000    0.00000000    0.00000000
     atom   27 type  1   force =     0.00000000    0.00000000    0.00000000
     atom   28 type  1   force =     0.00000000    0.00000000    0.00000000
     atom   29 type  1   force =     0.00000000    0.00000000    0.00000000
     atom   30 type  1   force =     0.00000000    0.00000000    0.00000000
     atom   31 type  2   force =     0.00000000    0.00000000    0.00000000
     atom   32 type  2   force =     0.00000000    0.00000000    0.00000000
     atom   33 type  2   force =     0.00000000    0.00000000    0.00000000
     atom   34 type  2   force =     0.00000000    0.00000000    0.00000000
     atom   35 type  2   force =     0.00000000    0.00000000    0.00000000
     atom   36 type  2   force =     0.00000000    0.00000000    0.00000000
     atom   37 type  2   force =     0.00000000    0.00000000    0.00000000
     atom   38 type  2   force =     0.00000000    0.00000000    0.00000000
     atom   39 type  3   force =     0.00000000    0.00000000    0.00000000
     The SCF correction term to forces
     atom    1 type  1   force =     0.00301694    0.00103582   -0.00109163
     atom    2 type  1   force =     0.00299688   -0.00047470    0.00092026
     atom    3 type  1   force =     0.00541570   -0.00025663   -0.00059750
     atom    4 type  1   force =     0.00447496    0.00043849    0.00073282
     atom    5 type  1   force =    -0.00265342   -0.00092136   -0.00016534
     atom    6 type  1   force =    -0.00580797   -0.00220316    0.00100357
     atom    7 type  1   force =    -0.00080683   -0.00011237   -0.00072264
     atom    8 type  1   force =    -0.00043593    0.00079756    0.00102067
     atom    9 type  1   force =    -0.00296586   -0.00153602    0.00001505
     atom   10 type  1   force =    -0.00032987   -0.00204342    0.00069948
     atom   11 type  1   force =    -0.00461800    0.00161109    0.00167562
     atom   12 type  1   force =    -0.00480857    0.00400016    0.00013163
     atom   13 type  1   force =     0.00238741   -0.00169489   -0.00055183
     atom   14 type  1   force =     0.00359489    0.00124068   -0.00031945
     atom   15 type  1   force =    -0.00117322   -0.00335262   -0.00145773
     atom   16 type  1   force =     0.00102318    0.00246912   -0.00089000
     atom   17 type  1   force =    -0.00480649   -0.00236319   -0.00251992
     atom   18 type  1   force =    -0.00439840    0.00705763   -0.00221925
     atom   19 type  1   force =    -0.00011258    0.00082536   -0.00234770
     atom   20 type  1   force =    -0.00433264    0.00164744   -0.00044934
     atom   21 type  1   force =     0.00351446    0.00081220    0.00099458
     atom   22 type  1   force =    -0.00135398    0.00175560   -0.00005801
     atom   23 type  1   force =     0.00129434    0.00131985    0.00115764
     atom   24 type  1   force =    -0.00433836    0.00426679   -0.00266000
     atom   25 type  1   force =     0.00091558   -0.00034958   -0.00211744
     atom   26 type  1   force =    -0.00288466   -0.00118705   -0.00030359
     atom   27 type  1   force =    -0.00077601   -0.00075628   -0.00135459
     atom   28 type  1   force =    -0.00319091   -0.00269844   -0.00159585
     atom   29 type  1   force =     0.00225326   -0.00051770    0.00122822
     atom   30 type  1   force =    -0.00467918   -0.00040640   -0.00151825
     atom   31 type  2   force =     0.00939304    0.00180247   -0.00669955
     atom   32 type  2   force =    -0.00908462    0.00417088   -0.00364367
     atom   33 type  2   force =     0.00108075   -0.00277305   -0.00023147
     atom   34 type  2   force =    -0.01506564   -0.00263611   -0.01346820
     atom   35 type  2   force =    -0.00209135   -0.00197147    0.00690122
     atom   36 type  2   force =    -0.01589756   -0.00063943   -0.00129277
     atom   37 type  2   force =     0.00860897    0.00253671   -0.00692078
     atom   38 type  2   force =    -0.00541342    0.00617901   -0.00513740
     atom   39 type  3   force =     0.00026268   -0.00091620   -0.00008748

     Total force =     0.283770     Total SCF correction =     0.041623
     SCF correction compared to forces is large: reduce conv_thr to get better values


     Computing stress (Cartesian axis) and pressure


     negative rho (up, down):  2.665E-01 2.680E-01
          total   stress  (Ry/bohr**3)                   (kbar)     P=      -32.21
  -0.00022025   0.00001656  -0.00000949          -32.40        2.44       -1.40
   0.00001656  -0.00017691   0.00000735            2.44      -26.02        1.08
  -0.00000949   0.00000735  -0.00025963           -1.40        1.08      -38.19


     Entering Dynamics:    iteration =    30
                           time      =   0.0030 pico-seconds


ATOMIC_POSITIONS (angstrom)
Be            5.2386825675        3.0066814199        3.0030075972
Be            5.2430051782        3.0029322152       10.3039039290
Be            3.0204698859        6.8462212366        3.0028567338
Be            3.0176712900        6.8478501999       10.3042979821
Be            9.6817903113        3.0070386309        3.0037844843
Be            9.6832040520        3.0050243574       10.3037694346
Be            7.4594854130        6.8436561327        3.0034501980
Be            7.4608542836        6.8416574868       10.3034376846
Be           14.1249542339        3.0008605878        3.0029037145
Be           14.1222332212        3.0024921726       10.3044049203
Be           11.8996258393        6.8457852517        3.0032459496
Be           11.9038827271        6.8419930243       10.3041676050
Be            5.2403730724        3.0057706389        6.6535353607
Be            3.0212369546        6.8467939756        6.6531523084
Be            9.6847847613        3.0045688467        6.6537270882
Be            7.4576982137        6.8444119481        6.6534402908
Be           14.1214391010        3.0027469907        6.6538725723
Be           11.9020123678        6.8420252790        6.6534813596
Be            7.4598383097        5.5417040631        4.8255423805
Be           11.9012023012        5.5396604499        4.8261951055
Be            4.1487703015        6.1949981565        8.4777052256
Be            8.5908112779        6.1932365704        8.4799321005
Be            6.3279467164        6.1924895686        8.4795374466
Be           10.7741193324        6.1916253264        8.4806690285
Be            6.3685988094        3.6573050433        4.8265764047
Be           10.8146487920        3.6561891766        4.8275452187
Be            8.5517569030        3.6555002803        4.8273129198
Be           12.9938349949        3.6535924636        4.8293569400
Be            5.2414756203        4.3090787033        8.4809900570
Be            9.6828212168        4.3070058427        8.4815479286
W             5.2385042063        5.5656144768        3.4627635574
W             9.6823621754        5.5655496124        3.4627394918
W             7.4601690927        4.2829143748        7.1160141365
W            11.9041872505        4.2830478184        7.1159688888
W             7.4602485379        4.2831495774        9.8444880036
W            11.9041032484        4.2830759348        9.8444516065
W             5.2384236150        5.5656455777        6.1912661827
W             9.6824406101        5.5657892239        6.1912016187
H            -6.5498724290        9.7988264085        6.1170716958


     kinetic energy (Ekin) =         161.94194302 Ry
     temperature           =      448572.11467963 K 
     Ekin + Etot (const)   =       -1954.29720722 Ry
     Ions kinetic stress =         1049.49 (kbar)
                                   3148.30           0.83          -0.54
                                      0.83           0.12           0.00
                                     -0.54           0.00           0.04



     Linear momentum :   -0.0000000000   -0.0000000000    0.0000000000

     The maximum number of steps has been reached.

     End of molecular dynamics calculation

     diffusion coefficients :
     atom     1   D =       0.00000181 cm^2/s
     atom     2   D =       0.00000251 cm^2/s
     atom     3   D =       0.00000237 cm^2/s
     atom     4   D =       0.00000176 cm^2/s
     atom     5   D =       0.00000169 cm^2/s
     atom     6   D =       0.00000180 cm^2/s
     atom     7   D =       0.00000150 cm^2/s
     atom     8   D =       0.00000189 cm^2/s
     atom     9   D =       0.00000123 cm^2/s
     atom    10   D =       0.00000086 cm^2/s
     atom    11   D =       0.00000082 cm^2/s
     atom    12   D =       0.00000164 cm^2/s
     atom    13   D =       0.00000202 cm^2/s
     atom    14   D =       0.00000249 cm^2/s
     atom    15   D =       0.00000201 cm^2/s
     atom    16   D =       0.00000111 cm^2/s
     atom    17   D =       0.00000073 cm^2/s
     atom    18   D =       0.00000129 cm^2/s
     atom    19   D =       0.00000139 cm^2/s
     atom    20   D =       0.00000093 cm^2/s
     atom    21   D =       0.00000127 cm^2/s
     atom    22   D =       0.00000092 cm^2/s
     atom    23   D =       0.00000172 cm^2/s
     atom    24   D =       0.00000216 cm^2/s
     atom    25   D =       0.00000093 cm^2/s
     atom    26   D =       0.00000120 cm^2/s
     atom    27   D =       0.00000207 cm^2/s
     atom    28   D =       0.00000170 cm^2/s
     atom    29   D =       0.00000207 cm^2/s
     atom    30   D =       0.00000155 cm^2/s
     atom    31   D =       0.00000148 cm^2/s
     atom    32   D =       0.00000144 cm^2/s
     atom    33   D =       0.00000141 cm^2/s
     atom    34   D =       0.00000140 cm^2/s
     atom    35   D =       0.00000143 cm^2/s
     atom    36   D =       0.00000139 cm^2/s
     atom    37   D =       0.00000147 cm^2/s
     atom    38   D =       0.00000145 cm^2/s
     atom    39   D =       1.07088979 cm^2/s

     < D > =       0.02746022 cm^2/s

     Writing all to output data dir outdir/pwscf.save/

     init_run     :     44.64s CPU     50.00s WALL (       1 calls)
     electrons    :  17856.14s CPU  21298.24s WALL (      30 calls)
     update_pot   :     44.98s CPU     49.33s WALL (      29 calls)
     forces       :    933.64s CPU   1081.94s WALL (      30 calls)
     stress       :   1188.43s CPU   1470.27s WALL (      30 calls)

     Called by init_run:
     wfcinit      :     40.01s CPU     44.63s WALL (       1 calls)
     potinit      :      0.80s CPU      0.92s WALL (       1 calls)
     hinit0       :      1.01s CPU      1.13s WALL (       1 calls)

     Called by electrons:
     c_bands      :  14748.69s CPU  17545.94s WALL (     243 calls)
     sum_band     :   2177.19s CPU   2652.71s WALL (     243 calls)
     v_of_rho     :     67.45s CPU     84.81s WALL (     273 calls)
     newd         :    959.35s CPU   1121.16s WALL (     273 calls)
     mix_rho      :     10.11s CPU     13.85s WALL (     243 calls)

     Called by c_bands:
     init_us_2    :     28.32s CPU     28.62s WALL (    1094 calls)
     init_us_2:cp :     28.30s CPU     28.61s WALL (    1094 calls)
     regterg      :  14645.23s CPU  17352.86s WALL (     486 calls)

     Called by *egterg:
     rdiaghg      :    112.89s CPU    113.99s WALL (    2882 calls)
     h_psi        :   7224.32s CPU   8010.81s WALL (    2942 calls)
     s_psi        :   2662.29s CPU   2668.52s WALL (    2942 calls)
     g_psi        :      3.43s CPU      3.52s WALL (    2454 calls)

     Called by h_psi:
     h_psi:calbec :   3570.32s CPU   4090.23s WALL (    2942 calls)
     vloc_psi     :    637.18s CPU    893.82s WALL (    2942 calls)
     add_vuspsi   :   3008.87s CPU   3018.33s WALL (    2942 calls)

     General routines
     calbec       :   5587.96s CPU   6548.49s WALL (    3728 calls)
     fft          :     73.43s CPU    278.97s WALL (    5144 calls)
     ffts         :      1.39s CPU      2.12s WALL (     243 calls)
     fftw         :    648.53s CPU    941.29s WALL (  210412 calls)

     Parallel routines

     PWSCF        :      5h36m CPU      6h41m WALL


   This run was terminated on:  11:12:30  14Jun2023            

=------------------------------------------------------------------------------=
   JOB DONE.
=------------------------------------------------------------------------------=
