
     Program PWSCF v.7.2 starts on 14Jun2023 at 13:50:52 

     This program is part of the open-source Quantum ESPRESSO suite
     for quantum simulation of materials; please cite
         "P. Giannozzi et al., J. Phys.:Condens. Matter 21 395502 (2009);
         "P. Giannozzi et al., J. Phys.:Condens. Matter 29 465901 (2017);
         "P. Giannozzi et al., J. Chem. Phys. 152 154105 (2020);
          URL http://www.quantum-espresso.org", 
     in publications or presentations arising from this work. More details at
     http://www.quantum-espresso.org/quote

     Parallel version (MPI), running on    42 processors

     MPI processes distributed on     1 nodes
     175971 MiB available memory on the printing compute node when the environment starts

     Reading input from md_data/md_Be30W8H_20steps_2000eV_incident0_polar0.in
Warning: card &CELL ignored
Warning: card / ignored

     Current dimensions of program PWSCF are:
     Max number of different atomic species (ntypx) = 10
     Max number of k-points (npk) =  40000
     Max angular momentum in pseudopotentials (lmaxx) =  4

     File outdir/pwscf.update deleted, as requested

     File outdir/pwscf.md deleted, as requested

     gamma-point specific algorithms are used

     R & G space division:  proc/nbgrp/npool/nimage =      42
     Subspace diagonalization in iterative solution of the eigenvalue problem:
     a serial algorithm will be used


     Parallelization info
     --------------------
     sticks:   dense  smooth     PW     G-vecs:    dense   smooth      PW
     Min         546     546    135                63978    63978    7996
     Max         548     548    138                63988    63988    8006
     Sum       22965   22965   5749              2687239  2687239  336055

     Using Slab Decomposition



     bravais-lattice index     =            0
     lattice parameter (alat)  =      32.3337  a.u.
     unit-cell volume          =   15132.7767 (a.u.)^3
     number of atoms/cell      =           39
     number of atomic types    =            3
     number of electrons       =       233.00
     number of Kohn-Sham states=          140
     kinetic-energy cutoff     =     120.0000  Ry
     charge density cutoff     =     480.0000  Ry
     scf convergence threshold =      1.0E-03
     mixing beta               =       0.7000
     number of iterations used =            8  TF        mixing
     energy convergence thresh.=      0.0E+00
     force convergence thresh. =      0.0E+00
     Exchange-correlation=  SLA  PW   PBX  PBC
                           (   1   4   3   4   0   0   0)
     nstep                     =           20


     celldm(1)=  32.333659  celldm(2)=   0.000000  celldm(3)=   0.000000
     celldm(4)=   0.000000  celldm(5)=   0.000000  celldm(6)=   0.000000

     crystal axes: (cart. coord. in units of alat)
               a(1) = (   1.000000   0.000000   0.000000 )  
               a(2) = (   0.000000   0.575603   0.000000 )  
               a(3) = (   0.000000   0.000000   0.777734 )  

     reciprocal axes: (cart. coord. in units 2 pi/alat)
               b(1) = (  1.000000  0.000000  0.000000 )  
               b(2) = (  0.000000  1.737309  0.000000 )  
               b(3) = (  0.000000  0.000000  1.285786 )  


     PseudoPot. # 1 for Be read from file:
     q-e/pseudo/be_pbe_v1.4.uspp.F.UPF
     MD5 check sum: 5ecff1440924c7c98ad504bef30f5264
     Pseudo is Ultrasoft, Zval =  4.0
     Generated by new atomic code, or converted to UPF format
     Using radial grid of  769 points,  6 beta functions with: 
                l(1) =   0
                l(2) =   0
                l(3) =   0
                l(4) =   1
                l(5) =   1
                l(6) =   2
     Q(r) pseudized with 10 coefficients,  rinner =    1.000   1.000   1.000
                                                       1.000   1.000

     PseudoPot. # 2 for W  read from file:
     q-e/pseudo/w_pbe_v1.2.uspp.F.UPF
     MD5 check sum: 9c083fa34c2a2ea0f02f1f893e16e1c8
     Pseudo is Ultrasoft + core correction, Zval = 14.0
     Generated by new atomic code, or converted to UPF format
     Using radial grid of  923 points,  8 beta functions with: 
                l(1) =   0
                l(2) =   0
                l(3) =   0
                l(4) =   1
                l(5) =   1
                l(6) =   2
                l(7) =   2
                l(8) =   3
     Q(r) pseudized with  6 coefficients,  rinner =    1.350   1.350   1.350
                                                       1.350   1.350   1.350
                                                       1.350

     PseudoPot. # 3 for H  read from file:
     q-e/pseudo/h_pbe_v1.4.uspp.F.UPF
     MD5 check sum: 761ae9a214b05c3daf00ab9f6b793d6f
     Pseudo is Ultrasoft, Zval =  1.0
     Generated by new atomic code, or converted to UPF format
     Using radial grid of  615 points,  2 beta functions with: 
                l(1) =   0
                l(2) =   0
     Q(r) pseudized with  8 coefficients,  rinner =    0.700

     atomic species   valence    mass     pseudopotential
        Be             4.00     9.01218     Be( 1.00)
        W             14.00   183.84000     W ( 1.00)
        H              1.00     2.01400     H ( 1.00)

     Starting magnetic structure 
     atomic species   magnetization
        Be           0.000
        W            0.000
        H            0.000

     No symmetry found



   Cartesian axes

     site n.     atom                  positions (alat units)
         1           Be  tau(   1) = (   0.3052002   0.1753336   0.1753336  )
         2           Be  tau(   2) = (   0.3052002   0.1753336   0.6024006  )
         3           Be  tau(   3) = (   0.1753336   0.4002691   0.1753336  )
         4           Be  tau(   4) = (   0.1753336   0.4002691   0.6024006  )
         5           Be  tau(   5) = (   0.5649333   0.1753336   0.1753336  )
         6           Be  tau(   6) = (   0.5649333   0.1753336   0.6024006  )
         7           Be  tau(   7) = (   0.4350667   0.4002691   0.1753336  )
         8           Be  tau(   8) = (   0.4350667   0.4002691   0.6024006  )
         9           Be  tau(   9) = (   0.8246664   0.1753336   0.1753336  )
        10           Be  tau(  10) = (   0.8246664   0.1753336   0.6024006  )
        11           Be  tau(  11) = (   0.6947998   0.4002691   0.1753336  )
        12           Be  tau(  12) = (   0.6947998   0.4002691   0.6024006  )
        13           Be  tau(  13) = (   0.3052002   0.1753336   0.3888671  )
        14           Be  tau(  14) = (   0.1753336   0.4002691   0.3888671  )
        15           Be  tau(  15) = (   0.5649333   0.1753336   0.3888671  )
        16           Be  tau(  16) = (   0.4350667   0.4002691   0.3888671  )
        17           Be  tau(  17) = (   0.8246664   0.1753336   0.3888671  )
        18           Be  tau(  18) = (   0.6947998   0.4002691   0.3888671  )
        19           Be  tau(  19) = (   0.4350667   0.3237532   0.2821004  )
        20           Be  tau(  20) = (   0.6947998   0.3237532   0.2821004  )
        21           Be  tau(  21) = (   0.2415983   0.3620112   0.4956338  )
        22           Be  tau(  22) = (   0.5013314   0.3620112   0.4956338  )
        23           Be  tau(  23) = (   0.3688021   0.3620112   0.4956338  )
        24           Be  tau(  24) = (   0.6285351   0.3620112   0.4956338  )
        25           Be  tau(  25) = (   0.3714649   0.2135916   0.2821004  )
        26           Be  tau(  26) = (   0.6311979   0.2135916   0.2821004  )
        27           Be  tau(  27) = (   0.4986686   0.2135916   0.2821004  )
        28           Be  tau(  28) = (   0.7584017   0.2135916   0.2821004  )
        29           Be  tau(  29) = (   0.3052002   0.2518495   0.4956338  )
        30           Be  tau(  30) = (   0.5649333   0.2518495   0.4956338  )
        31           W   tau(  31) = (   0.3052002   0.3252906   0.2023523  )
        32           W   tau(  32) = (   0.5649333   0.3252906   0.2023523  )
        33           W   tau(  33) = (   0.4350667   0.2503121   0.4158858  )
        34           W   tau(  34) = (   0.6947998   0.2503121   0.4158858  )
        35           W   tau(  35) = (   0.4350667   0.2503121   0.5753819  )
        36           W   tau(  36) = (   0.6947998   0.2503121   0.5753819  )
        37           W   tau(  37) = (   0.3052002   0.3252906   0.3618484  )
        38           W   tau(  38) = (   0.5649333   0.3252906   0.3618484  )
        39           H   tau(  39) = (   0.4350667   0.5727566   0.3574413  )

     number of k points=     1  Gaussian smearing, width (Ry)=  0.0220
                       cart. coord. in units 2pi/alat
        k(    1) = (   0.0000000   0.0000000   0.0000000), wk =   1.0000000

     Dense  grid:  1343620 G-vectors     FFT dimensions: ( 225, 135, 180)

     Estimated max dynamical RAM per process >     346.43 MB

     Estimated total dynamical RAM >      14.21 GB
     Generating pointlists ...
     new r_m :   0.0525 (alat units)  1.6966 (a.u.) for type    1
     new r_m :   0.0629 (alat units)  2.0323 (a.u.) for type    2
     new r_m :   0.0723 (alat units)  2.3384 (a.u.) for type    3

     Initial potential from superposition of free atoms

     starting charge     232.1926, renormalised to     233.0000

     negative rho (up, down):  2.536E-01 2.536E-01
     Starting wfcs are  255 randomized atomic wfcs

     total cpu time spent up to now is       38.8 secs

     Self-consistent Calculation

     iteration #  1     ecut=   120.00 Ry     beta= 0.70
     Davidson diagonalization with overlap
     ethr =  1.00E-02,  avg # of iterations =  2.0

     negative rho (up, down):  2.676E-01 2.677E-01

     total cpu time spent up to now is      122.4 secs

     total energy              =   -2115.79154153 Ry
     estimated scf accuracy    <      17.49535733 Ry

     total magnetization       =     0.00 Bohr mag/cell
     absolute magnetization    =     0.07 Bohr mag/cell

     iteration #  2     ecut=   120.00 Ry     beta= 0.70
     Davidson diagonalization with overlap
     ethr =  7.51E-03,  avg # of iterations =  1.0

     negative rho (up, down):  2.691E-01 2.692E-01

     total cpu time spent up to now is      193.9 secs

     total energy              =   -2115.30689106 Ry
     estimated scf accuracy    <       5.69152041 Ry

     total magnetization       =     0.00 Bohr mag/cell
     absolute magnetization    =     0.12 Bohr mag/cell

     iteration #  3     ecut=   120.00 Ry     beta= 0.70
     Davidson diagonalization with overlap
     ethr =  2.44E-03,  avg # of iterations =  3.0

     negative rho (up, down):  2.674E-01 2.675E-01

     total cpu time spent up to now is      262.1 secs

     total energy              =   -2115.62778601 Ry
     estimated scf accuracy    <       9.33075372 Ry

     total magnetization       =    -0.01 Bohr mag/cell
     absolute magnetization    =     0.14 Bohr mag/cell

     iteration #  4     ecut=   120.00 Ry     beta= 0.70
     Davidson diagonalization with overlap
     ethr =  2.44E-03,  avg # of iterations =  2.0

     negative rho (up, down):  2.677E-01 2.679E-01

     total cpu time spent up to now is      351.5 secs

     total energy              =   -2116.10190398 Ry
     estimated scf accuracy    <       0.82215250 Ry

     total magnetization       =    -0.05 Bohr mag/cell
     absolute magnetization    =     0.19 Bohr mag/cell

     iteration #  5     ecut=   120.00 Ry     beta= 0.70
     Davidson diagonalization with overlap
     ethr =  3.53E-04,  avg # of iterations = 10.0

     negative rho (up, down):  2.684E-01 2.686E-01

     total cpu time spent up to now is      439.1 secs

     total energy              =   -2116.16453762 Ry
     estimated scf accuracy    <       0.36681906 Ry

     total magnetization       =    -0.04 Bohr mag/cell
     absolute magnetization    =     0.11 Bohr mag/cell

     iteration #  6     ecut=   120.00 Ry     beta= 0.70
     Davidson diagonalization with overlap
     ethr =  1.57E-04,  avg # of iterations =  2.0

     negative rho (up, down):  2.686E-01 2.687E-01

     total cpu time spent up to now is      521.6 secs

     total energy              =   -2116.18422479 Ry
     estimated scf accuracy    <       0.26101262 Ry

     total magnetization       =    -0.03 Bohr mag/cell
     absolute magnetization    =     0.09 Bohr mag/cell

     iteration #  7     ecut=   120.00 Ry     beta= 0.70
     Davidson diagonalization with overlap
     ethr =  1.12E-04,  avg # of iterations =  2.0

     negative rho (up, down):  2.682E-01 2.683E-01

     total cpu time spent up to now is      577.8 secs

     total energy              =   -2116.18872754 Ry
     estimated scf accuracy    <       0.18866476 Ry

     total magnetization       =    -0.04 Bohr mag/cell
     absolute magnetization    =     0.08 Bohr mag/cell

     iteration #  8     ecut=   120.00 Ry     beta= 0.70
     Davidson diagonalization with overlap
     ethr =  8.10E-05,  avg # of iterations =  1.0

     negative rho (up, down):  2.682E-01 2.682E-01

     total cpu time spent up to now is      665.6 secs

     total energy              =   -2116.18145765 Ry
     estimated scf accuracy    <       0.12851031 Ry

     total magnetization       =    -0.04 Bohr mag/cell
     absolute magnetization    =     0.09 Bohr mag/cell

     iteration #  9     ecut=   120.00 Ry     beta= 0.70
     Davidson diagonalization with overlap
     ethr =  5.52E-05,  avg # of iterations =  1.0

     negative rho (up, down):  2.681E-01 2.682E-01

     total cpu time spent up to now is      712.9 secs

     total energy              =   -2116.18281486 Ry
     estimated scf accuracy    <       0.06499259 Ry

     total magnetization       =    -0.05 Bohr mag/cell
     absolute magnetization    =     0.11 Bohr mag/cell

     iteration # 10     ecut=   120.00 Ry     beta= 0.70
     Davidson diagonalization with overlap
     ethr =  2.79E-05,  avg # of iterations =  2.0

     negative rho (up, down):  2.679E-01 2.679E-01

     total cpu time spent up to now is      808.8 secs

     total energy              =   -2116.18594806 Ry
     estimated scf accuracy    <       0.03709739 Ry

     total magnetization       =    -0.05 Bohr mag/cell
     absolute magnetization    =     0.13 Bohr mag/cell

     iteration # 11     ecut=   120.00 Ry     beta= 0.70
     Davidson diagonalization with overlap
     ethr =  1.59E-05,  avg # of iterations =  4.0

     negative rho (up, down):  2.677E-01 2.677E-01

     total cpu time spent up to now is      865.3 secs

     total energy              =   -2116.18650286 Ry
     estimated scf accuracy    <       0.05364390 Ry

     total magnetization       =    -0.05 Bohr mag/cell
     absolute magnetization    =     0.17 Bohr mag/cell

     iteration # 12     ecut=   120.00 Ry     beta= 0.70
     Davidson diagonalization with overlap
     ethr =  1.59E-05,  avg # of iterations =  3.5

     negative rho (up, down):  2.675E-01 2.676E-01

     total cpu time spent up to now is      949.3 secs

     total energy              =   -2116.18914034 Ry
     estimated scf accuracy    <       0.01938284 Ry

     total magnetization       =    -0.05 Bohr mag/cell
     absolute magnetization    =     0.20 Bohr mag/cell

     iteration # 13     ecut=   120.00 Ry     beta= 0.70
     Davidson diagonalization with overlap
     ethr =  8.32E-06,  avg # of iterations =  6.5

     negative rho (up, down):  2.676E-01 2.677E-01

     total cpu time spent up to now is     1015.3 secs

     total energy              =   -2116.19130850 Ry
     estimated scf accuracy    <       0.01413797 Ry

     total magnetization       =    -0.05 Bohr mag/cell
     absolute magnetization    =     0.26 Bohr mag/cell

     iteration # 14     ecut=   120.00 Ry     beta= 0.70
     Davidson diagonalization with overlap
     ethr =  6.07E-06,  avg # of iterations =  2.0

     negative rho (up, down):  2.681E-01 2.681E-01

     total cpu time spent up to now is     1088.8 secs

     total energy              =   -2116.19370188 Ry
     estimated scf accuracy    <       0.00733439 Ry

     total magnetization       =    -0.02 Bohr mag/cell
     absolute magnetization    =     0.40 Bohr mag/cell

     iteration # 15     ecut=   120.00 Ry     beta= 0.70
     Davidson diagonalization with overlap
     ethr =  3.15E-06,  avg # of iterations = 13.0

     negative rho (up, down):  2.689E-01 2.688E-01

     total cpu time spent up to now is     1176.4 secs

     total energy              =   -2116.19520912 Ry
     estimated scf accuracy    <       0.00688243 Ry

     total magnetization       =     0.02 Bohr mag/cell
     absolute magnetization    =     0.66 Bohr mag/cell

     iteration # 16     ecut=   120.00 Ry     beta= 0.70
     Davidson diagonalization with overlap
     ethr =  2.95E-06,  avg # of iterations =  2.5

     negative rho (up, down):  2.675E-01 2.676E-01

     total cpu time spent up to now is     1246.2 secs

     total energy              =   -2116.19776327 Ry
     estimated scf accuracy    <       0.00394085 Ry

     total magnetization       =     0.11 Bohr mag/cell
     absolute magnetization    =     0.93 Bohr mag/cell

     iteration # 17     ecut=   120.00 Ry     beta= 0.70
     Davidson diagonalization with overlap
     ethr =  1.69E-06,  avg # of iterations =  6.0

     negative rho (up, down):  2.679E-01 2.679E-01

     total cpu time spent up to now is     1330.6 secs

     total energy              =   -2116.20188157 Ry
     estimated scf accuracy    <       0.00381000 Ry

     total magnetization       =     0.22 Bohr mag/cell
     absolute magnetization    =     1.23 Bohr mag/cell

     iteration # 18     ecut=   120.00 Ry     beta= 0.70
     Davidson diagonalization with overlap
     ethr =  1.64E-06,  avg # of iterations =  8.5

     negative rho (up, down):  2.696E-01 2.695E-01

     total cpu time spent up to now is     1421.4 secs

     total energy              =   -2116.20425079 Ry
     estimated scf accuracy    <       0.01727164 Ry

     total magnetization       =     0.48 Bohr mag/cell
     absolute magnetization    =     1.91 Bohr mag/cell

     iteration # 19     ecut=   120.00 Ry     beta= 0.70
     Davidson diagonalization with overlap
     ethr =  1.64E-06,  avg # of iterations =  4.0

     negative rho (up, down):  2.694E-01 2.693E-01

     total cpu time spent up to now is     1494.5 secs

     total energy              =   -2116.20425189 Ry
     estimated scf accuracy    <       0.01657467 Ry

     total magnetization       =     0.41 Bohr mag/cell
     absolute magnetization    =     1.79 Bohr mag/cell

     iteration # 20     ecut=   120.00 Ry     beta= 0.70
     Davidson diagonalization with overlap
     ethr =  1.64E-06,  avg # of iterations =  1.0

     negative rho (up, down):  2.694E-01 2.693E-01

     total cpu time spent up to now is     1547.6 secs

     total energy              =   -2116.20560665 Ry
     estimated scf accuracy    <       0.01568366 Ry

     total magnetization       =     0.41 Bohr mag/cell
     absolute magnetization    =     1.76 Bohr mag/cell

     iteration # 21     ecut=   120.00 Ry     beta= 0.70
     Davidson diagonalization with overlap
     ethr =  1.64E-06,  avg # of iterations =  1.5

     negative rho (up, down):  2.691E-01 2.690E-01

     total cpu time spent up to now is     1637.9 secs

     total energy              =   -2116.20807439 Ry
     estimated scf accuracy    <       0.01866381 Ry

     total magnetization       =     0.44 Bohr mag/cell
     absolute magnetization    =     1.85 Bohr mag/cell

     iteration # 22     ecut=   120.00 Ry     beta= 0.70
     Davidson diagonalization with overlap
     ethr =  1.64E-06,  avg # of iterations =  5.0

     negative rho (up, down):  2.707E-01 2.705E-01

     total cpu time spent up to now is     1691.3 secs

     total energy              =   -2116.20635446 Ry
     estimated scf accuracy    <       0.01862775 Ry

     total magnetization       =     0.50 Bohr mag/cell
     absolute magnetization    =     2.00 Bohr mag/cell

     iteration # 23     ecut=   120.00 Ry     beta= 0.70
     Davidson diagonalization with overlap
     ethr =  1.64E-06,  avg # of iterations =  2.5

     negative rho (up, down):  2.688E-01 2.687E-01

     total cpu time spent up to now is     1789.3 secs

     total energy              =   -2116.20723780 Ry
     estimated scf accuracy    <       0.01007355 Ry

     total magnetization       =     0.45 Bohr mag/cell
     absolute magnetization    =     1.89 Bohr mag/cell

     iteration # 24     ecut=   120.00 Ry     beta= 0.70
     Davidson diagonalization with overlap
     ethr =  1.64E-06,  avg # of iterations =  3.0

     negative rho (up, down):  2.696E-01 2.695E-01

     total cpu time spent up to now is     1839.0 secs

     total energy              =   -2116.20943718 Ry
     estimated scf accuracy    <       0.00597394 Ry

     total magnetization       =     0.45 Bohr mag/cell
     absolute magnetization    =     1.91 Bohr mag/cell

     iteration # 25     ecut=   120.00 Ry     beta= 0.70
     Davidson diagonalization with overlap
     ethr =  1.64E-06,  avg # of iterations =  3.0

     negative rho (up, down):  2.681E-01 2.680E-01

     total cpu time spent up to now is     1934.0 secs

     total energy              =   -2116.21107299 Ry
     estimated scf accuracy    <       0.00762071 Ry

     total magnetization       =     0.48 Bohr mag/cell
     absolute magnetization    =     2.06 Bohr mag/cell

     iteration # 26     ecut=   120.00 Ry     beta= 0.70
     Davidson diagonalization with overlap
     ethr =  1.64E-06,  avg # of iterations =  6.0

     negative rho (up, down):  2.673E-01 2.674E-01

     total cpu time spent up to now is     1997.2 secs

     total energy              =   -2116.21155336 Ry
     estimated scf accuracy    <       0.00300436 Ry

     total magnetization       =     0.46 Bohr mag/cell
     absolute magnetization    =     2.26 Bohr mag/cell

     iteration # 27     ecut=   120.00 Ry     beta= 0.70
     Davidson diagonalization with overlap
     ethr =  1.29E-06,  avg # of iterations = 11.0

     negative rho (up, down):  2.672E-01 2.674E-01

     total cpu time spent up to now is     2117.8 secs

     total energy              =   -2116.21575913 Ry
     estimated scf accuracy    <       0.00229152 Ry

     total magnetization       =     0.46 Bohr mag/cell
     absolute magnetization    =     2.72 Bohr mag/cell

     iteration # 28     ecut=   120.00 Ry     beta= 0.70
     Davidson diagonalization with overlap
     ethr =  9.83E-07,  avg # of iterations =  7.5

     negative rho (up, down):  2.672E-01 2.674E-01

     total cpu time spent up to now is     2174.9 secs

     total energy              =   -2116.21599021 Ry
     estimated scf accuracy    <       0.00146495 Ry

     total magnetization       =     0.44 Bohr mag/cell
     absolute magnetization    =     2.86 Bohr mag/cell

     iteration # 29     ecut=   120.00 Ry     beta= 0.70
     Davidson diagonalization with overlap
     ethr =  6.29E-07,  avg # of iterations =  4.5

     negative rho (up, down):  2.672E-01 2.674E-01

     Magnetic moment per site  (integrated on atomic sphere of radius R)
     atom   1 (R=0.052)  charge=  2.6318   -0.0248
     atom   2 (R=0.052)  charge=  2.6319   -0.0058
     atom   3 (R=0.052)  charge=  2.5955   -0.0102
     atom   4 (R=0.052)  charge=  2.5929   -0.0914
     atom   5 (R=0.052)  charge=  2.6644   -0.0236
     atom   6 (R=0.052)  charge=  2.6921    0.0011
     atom   7 (R=0.052)  charge=  2.6918    0.0006
     atom   8 (R=0.052)  charge=  2.6648   -0.0174
     atom   9 (R=0.052)  charge=  2.5939    0.0905
     atom  10 (R=0.052)  charge=  2.5959    0.0192
     atom  11 (R=0.052)  charge=  2.6320   -0.0121
     atom  12 (R=0.052)  charge=  2.6316   -0.0014
     atom  13 (R=0.052)  charge=  2.6963   -0.0046
     atom  14 (R=0.052)  charge=  2.6239   -0.0162
     atom  15 (R=0.052)  charge=  2.7816   -0.0014
     atom  16 (R=0.052)  charge=  2.7810   -0.0171
     atom  17 (R=0.052)  charge=  2.6246    0.0296
     atom  18 (R=0.052)  charge=  2.6970   -0.0011
     atom  19 (R=0.052)  charge=  2.9442    0.0005
     atom  20 (R=0.052)  charge=  2.8823   -0.0031
     atom  21 (R=0.052)  charge=  2.8125   -0.0170
     atom  22 (R=0.052)  charge=  2.9008    0.0013
     atom  23 (R=0.052)  charge=  2.9001    0.0019
     atom  24 (R=0.052)  charge=  2.8769    0.0000
     atom  25 (R=0.052)  charge=  2.8763    0.0001
     atom  26 (R=0.052)  charge=  2.9004   -0.0031
     atom  27 (R=0.052)  charge=  2.9006    0.0019
     atom  28 (R=0.052)  charge=  2.8128    0.0188
     atom  29 (R=0.052)  charge=  2.8823    0.0012
     atom  30 (R=0.052)  charge=  2.9444   -0.0006
     atom  31 (R=0.063)  charge= 10.9145   -0.0522
     atom  32 (R=0.063)  charge= 10.9239   -0.0529
     atom  33 (R=0.063)  charge= 10.9884   -0.0208
     atom  34 (R=0.063)  charge= 10.9339    0.0269
     atom  35 (R=0.063)  charge= 10.9283   -0.0020
     atom  36 (R=0.063)  charge= 10.9084    0.0201
     atom  37 (R=0.063)  charge= 10.9314   -0.0027
     atom  38 (R=0.063)  charge= 10.9895    0.0023
     atom  39 (R=0.072)  charge=  0.9054    0.7859

     total cpu time spent up to now is     2275.2 secs

     End of self-consistent calculation

 ------ SPIN UP ------------


          k = 0.0000 0.0000 0.0000 (168028 PWs)   bands (ev):

  -103.4370-103.3487-103.0004-102.9998-102.9710-102.9607-102.6954-102.6895
  -102.6237-102.6210-102.5543-102.5508-102.3249-102.3191-101.6672-101.6551
  -101.4243-101.3925-100.9300-100.9115-100.4959-100.4870-100.4698-100.4633
  -100.4088-100.4027-100.3937-100.3914-100.0495-100.0453 -74.9227 -74.9008
   -74.8815 -74.8774 -74.8605 -74.8520 -74.7729 -74.7609 -39.3708 -39.3471
   -39.3175 -39.2609 -39.2314 -39.1792 -39.1624 -39.0931 -39.0653 -39.0521
   -39.0309 -39.0085 -38.9909 -38.9655 -38.9574 -38.9297 -38.8955 -38.8850
   -38.8766 -38.8304 -38.7956 -38.7810 -38.7349 -38.7234  -8.7799  -7.7149
    -7.2599  -6.5857  -6.3616  -6.2852  -5.8366  -5.6753  -5.5294  -5.3394
    -5.1848  -4.8952  -4.8337  -4.8032  -4.6057  -4.1941  -4.1705  -4.1294
    -3.9997  -3.8833  -3.7554  -3.6825  -3.6342  -3.5355  -3.3415  -3.2032
    -3.1888  -3.1382  -3.0759  -2.9432  -2.7946  -2.6718  -2.6308  -2.5538
    -2.4855  -2.4317  -2.3791  -2.2988  -2.1812  -2.1063  -2.0881  -1.9948
    -1.9274  -1.8707  -1.8503  -1.7734  -1.5859  -1.4340  -1.4033  -1.3018
    -1.2965  -1.2168  -1.2011  -1.1168  -1.0386  -1.0106  -0.9601  -0.9358
    -0.9046  -0.7747  -0.7484  -0.6889  -0.6385  -0.5802  -0.5598  -0.4002
    -0.3740  -0.3343  -0.2797  -0.1794  -0.1635  -0.0629  -0.0233  -0.0191
     0.0350   0.0636   0.1402   0.2607

 ------ SPIN DOWN ----------


          k = 0.0000 0.0000 0.0000 (168028 PWs)   bands (ev):

  -103.4212-103.3677-103.0069-102.9857-102.9723-102.9484-102.7000-102.6980
  -102.6400-102.6251-102.5717-102.5648-102.3288-102.3201-101.6668-101.6541
  -101.4253-101.4084-100.9237-100.9170-100.4956-100.4869-100.4680-100.4622
  -100.4074-100.4046-100.3933-100.3929-100.0489-100.0456 -74.9265 -74.9047
   -74.8819 -74.8790 -74.8686 -74.8607 -74.7845 -74.7658 -39.3738 -39.3508
   -39.3233 -39.2712 -39.2408 -39.1785 -39.1675 -39.0958 -39.0597 -39.0563
   -39.0509 -39.0199 -39.0007 -38.9831 -38.9699 -38.9315 -38.9137 -38.8913
   -38.8893 -38.8323 -38.8026 -38.7905 -38.7363 -38.7271  -8.7847  -7.7190
    -7.2638  -6.5883  -6.3654  -6.2972  -5.8497  -5.6785  -5.5359  -5.3418
    -5.1939  -4.9075  -4.8341  -4.8038  -4.6179  -4.2077  -4.1422  -4.1024
    -3.9808  -3.8090  -3.6948  -3.6492  -3.5370  -3.3667  -3.2455  -3.1997
    -3.1442  -3.0836  -2.9546  -2.8025  -2.6857  -2.6431  -2.5583  -2.5058
    -2.4667  -2.4026  -2.3155  -2.2220  -2.1434  -2.1166  -2.0110  -1.9443
    -1.8859  -1.8628  -1.8129  -1.5865  -1.4623  -1.4317  -1.3298  -1.3050
    -1.2564  -1.2158  -1.1560  -1.0998  -1.0400  -0.9919  -0.9568  -0.9255
    -0.8113  -0.7809  -0.7330  -0.7138  -0.6026  -0.5890  -0.4393  -0.4038
    -0.3527  -0.3058  -0.2220  -0.1840  -0.0976  -0.0815  -0.0405  -0.0192
     0.0521   0.1047   0.1232   0.2251

     the Fermi energy is    -1.0605 ev

!    total energy              =   -2116.21608098 Ry
     estimated scf accuracy    <       0.00078139 Ry
     smearing contrib. (-TS)   =      -0.12320325 Ry
     internal energy E=F+TS    =   -2116.09287772 Ry

     total magnetization       =     0.40 Bohr mag/cell
     absolute magnetization    =     2.95 Bohr mag/cell

     convergence has been achieved in  29 iterations

     negative rho (up, down):  2.672E-01 2.674E-01

     Forces acting on atoms (cartesian axes, Ry/au):

     atom    1 type  1   force =     0.00361218    0.05414915    0.02555915
     atom    2 type  1   force =     0.03792354    0.02288030   -0.02602120
     atom    3 type  1   force =     0.03416852   -0.01988310    0.02188457
     atom    4 type  1   force =     0.01289761   -0.00747860   -0.02598417
     atom    5 type  1   force =    -0.00500985    0.05794249    0.03243252
     atom    6 type  1   force =     0.00873794    0.03958679   -0.02734349
     atom    7 type  1   force =    -0.00806671   -0.03958595    0.02758026
     atom    8 type  1   force =     0.00504680   -0.05735800   -0.03233741
     atom    9 type  1   force =    -0.01319143    0.00794604    0.02625877
     atom   10 type  1   force =    -0.03434009    0.02043470   -0.02148280
     atom   11 type  1   force =    -0.03832258   -0.02301311    0.02577260
     atom   12 type  1   force =    -0.00349034   -0.05423282   -0.02518533
     atom   13 type  1   force =     0.01983314    0.05262002   -0.00026689
     atom   14 type  1   force =     0.03905435   -0.02362083   -0.00442607
     atom   15 type  1   force =     0.01748854    0.03538005    0.00133571
     atom   16 type  1   force =    -0.01864546   -0.02807066   -0.00223729
     atom   17 type  1   force =    -0.03870143    0.02356110    0.00462181
     atom   18 type  1   force =    -0.01922819   -0.05334163   -0.00005638
     atom   19 type  1   force =    -0.00509818    0.01653045   -0.01105005
     atom   20 type  1   force =    -0.02482812    0.00374311   -0.00464161
     atom   21 type  1   force =    -0.00791047    0.00694860   -0.02225598
     atom   22 type  1   force =    -0.02576404   -0.00674194   -0.00340800
     atom   23 type  1   force =     0.01196142   -0.01227117   -0.00595158
     atom   24 type  1   force =     0.03052666   -0.02019702    0.00495470
     atom   25 type  1   force =    -0.03026885    0.01972500   -0.00437401
     atom   26 type  1   force =    -0.01310401    0.01177679    0.00560785
     atom   27 type  1   force =     0.02594863    0.00596477    0.00337793
     atom   28 type  1   force =     0.00687009   -0.00632604    0.02248839
     atom   29 type  1   force =     0.02429914   -0.00333330    0.00351831
     atom   30 type  1   force =     0.00532832   -0.01791639    0.01077917
     atom   31 type  2   force =     0.04588211   -0.02897769    0.07780681
     atom   32 type  2   force =     0.00570698   -0.04131844    0.06728773
     atom   33 type  2   force =    -0.01780030    0.00559309    0.01966613
     atom   34 type  2   force =    -0.02770980    0.02204967    0.00774037
     atom   35 type  2   force =    -0.00547743    0.04161813   -0.06638717
     atom   36 type  2   force =    -0.04545423    0.02862980   -0.07921372
     atom   37 type  2   force =     0.02775688   -0.02418125   -0.00827454
     atom   38 type  2   force =     0.01995505   -0.00301010   -0.01912749
     atom   39 type  3   force =    -0.00058641   -0.00622202    0.00135239
     The non-local contrib.  to forces
     atom    1 type  1   force =    -0.03923179   -0.23637764   -0.11807638
     atom    2 type  1   force =    -0.18273964   -0.17917210    0.09643877
     atom    3 type  1   force =    -0.21814157    0.13225036    0.03125825
     atom    4 type  1   force =    -0.08858126    0.04898682    0.18450068
     atom    5 type  1   force =    -0.00981540   -0.25215046   -0.20910888
     atom    6 type  1   force =    -0.01069448   -0.23099619    0.05281115
     atom    7 type  1   force =     0.01119035    0.23420447   -0.05240594
     atom    8 type  1   force =     0.00992971    0.25227800    0.20749429
     atom    9 type  1   force =     0.08859754   -0.04793794   -0.18411637
     atom   10 type  1   force =     0.21760422   -0.13082682   -0.03069311
     atom   11 type  1   force =     0.18155751    0.17814858   -0.09684382
     atom   12 type  1   force =     0.03908533    0.23459126    0.11884344
     atom   13 type  1   force =    -0.16382410   -0.28234262   -0.00915495
     atom   14 type  1   force =    -0.24413105    0.15333134   -0.08711092
     atom   15 type  1   force =    -0.02474061   -0.25108904    0.05644916
     atom   16 type  1   force =     0.02196345    0.24490723   -0.05513747
     atom   17 type  1   force =     0.24383015   -0.15164206    0.08659868
     atom   18 type  1   force =     0.16505834    0.27709550    0.00947541
     atom   19 type  1   force =    -0.00340052    0.01484293    0.00850018
     atom   20 type  1   force =     0.08001924    0.05401206   -0.03655225
     atom   21 type  1   force =    -0.11428086    0.04504923    0.08584560
     atom   22 type  1   force =    -0.00037324    0.08907655    0.04751831
     atom   23 type  1   force =     0.01165176    0.07414817    0.05167687
     atom   24 type  1   force =     0.00160810    0.11893717    0.03473260
     atom   25 type  1   force =     0.00016716   -0.12179373   -0.03446132
     atom   26 type  1   force =    -0.01315549   -0.07324126   -0.05163997
     atom   27 type  1   force =    -0.00066216   -0.09157097   -0.04785462
     atom   28 type  1   force =     0.11359336   -0.04568248   -0.08676120
     atom   29 type  1   force =    -0.08047215   -0.05372742    0.03578415
     atom   30 type  1   force =     0.00385678   -0.01614098   -0.00795042
     atom   31 type  2   force =    -0.09368547    0.00773164   -0.23653728
     atom   32 type  2   force =     0.02233063    0.01402205   -0.25602119
     atom   33 type  2   force =    -0.03225600   -0.09854838   -0.00649899
     atom   34 type  2   force =     0.14971840   -0.04049997   -0.03851008
     atom   35 type  2   force =    -0.02169777   -0.01417397    0.25667675
     atom   36 type  2   force =     0.09267135   -0.00787248    0.23600006
     atom   37 type  2   force =    -0.14972328    0.04099939    0.03700999
     atom   38 type  2   force =     0.03323745    0.10057346    0.00631026
     atom   39 type  3   force =    -0.00017822   -0.00270529    0.00040342
     The ionic contribution  to forces
     atom    1 type  1   force =    -6.92759251   -7.44903448   -7.15717003
     atom    2 type  1   force =    -9.18165011   -5.95130231    7.12881314
     atom    3 type  1   force =    -9.21518146    3.50096597   -4.30374755
     atom    4 type  1   force =    -6.91955884    2.24006945    4.70027325
     atom    5 type  1   force =     2.41103231   -8.56522932   -9.78350737
     atom    6 type  1   force =     2.01976611   -8.46134986    9.36362175
     atom    7 type  1   force =    -1.98472337    8.42379806   -9.40557007
     atom    8 type  1   force =    -2.36126192    8.57113888    9.78657216
     atom    9 type  1   force =     6.90509333   -2.24420513   -4.69002142
     atom   10 type  1   force =     9.18774133   -3.50988189    4.28848663
     atom   11 type  1   force =     9.19378371    5.95799250   -7.11166034
     atom   12 type  1   force =     6.91534246    7.47474048    7.12277892
     atom   13 type  1   force =   -11.80371095  -11.47673131    0.13877852
     atom   14 type  1   force =   -11.78550752    4.72260215    0.00516411
     atom   15 type  1   force =     2.89751198  -14.76663259    0.07078941
     atom   16 type  1   force =    -2.79911459   14.64974776   -0.00402216
     atom   17 type  1   force =    11.74541841   -4.73941592    0.00502722
     atom   18 type  1   force =    11.77501186   11.54446565   -0.10945994
     atom   19 type  1   force =    -3.04527254    4.64632377   -7.98037488
     atom   20 type  1   force =    13.68144298    4.90382267   -7.03578462
     atom   21 type  1   force =   -11.57899927    4.05498847    6.20381744
     atom   22 type  1   force =     1.42649593   11.07835124    8.16321537
     atom   23 type  1   force =    -7.70410526    9.82028390    7.81795379
     atom   24 type  1   force =     6.17211073   10.74332451    7.19928560
     atom   25 type  1   force =    -6.15857450  -10.68966084   -7.21262013
     atom   26 type  1   force =     7.73628218   -9.84490973   -7.77830958
     atom   27 type  1   force =    -1.34824013  -11.05478939   -8.14749639
     atom   28 type  1   force =    11.56499636   -4.06925591   -6.18017849
     atom   29 type  1   force =   -13.67408910   -4.89602511    7.06182993
     atom   30 type  1   force =     3.09118036   -4.67526081    7.97956379
     atom   31 type  2   force =   -28.83707234    5.84445031  -31.56167347
     atom   32 type  2   force =    11.63069346   11.21145438  -40.26795823
     atom   33 type  2   force =   -13.35850892  -23.20351003    5.70958207
     atom   34 type  2   force =    42.64042532  -11.99882101    2.65700675
     atom   35 type  2   force =   -11.47750526  -11.22651335   40.29111909
     atom   36 type  2   force =    28.81272978   -5.89126023   31.48664439
     atom   37 type  2   force =   -42.67022466   11.91147406   -2.61443833
     atom   38 type  2   force =    13.57812679   23.24015235   -5.59174754
     atom   39 type  3   force =    -0.55429215    0.17364266   -0.24458279
     The local contribution  to forces
     atom    1 type  1   force =     6.97073190    7.73837665    7.29849740
     atom    2 type  1   force =     9.40291714    6.15483593   -7.25006823
     atom    3 type  1   force =     9.46601979   -3.65320806    4.29300699
     atom    4 type  1   force =     7.02032758   -2.29599345   -4.90635685
     atom    5 type  1   force =    -2.40306946    8.87435402   10.02285709
     atom    6 type  1   force =    -2.00428406    8.73087063   -9.44225105
     atom    7 type  1   force =     1.96710998   -8.69618688    9.48416761
     atom    8 type  1   force =     2.35422709   -8.88154869  -10.02426722
     atom    9 type  1   force =    -7.00591504    2.29891223    4.89610737
     atom   10 type  1   force =    -9.43749200    3.65995750   -4.27899816
     atom   11 type  1   force =    -9.41215700   -6.15981704    7.23397773
     atom   12 type  1   force =    -6.95866353   -7.76079681   -7.26605076
     atom   13 type  1   force =    11.98542060   11.81287980   -0.12817134
     atom   14 type  1   force =    12.07013556   -4.90064143    0.08220367
     atom   15 type  1   force =    -2.85099291   15.05362596   -0.12635337
     atom   16 type  1   force =     2.75735291  -14.91946057    0.05724021
     atom   17 type  1   force =   -12.03078403    4.91601731   -0.09213989
     atom   18 type  1   force =   -11.95816307  -11.87651903    0.09887612
     atom   19 type  1   force =     3.04456286   -4.64294067    7.96161851
     atom   20 type  1   force =   -13.78348259   -4.95767412    7.06782574
     atom   21 type  1   force =    11.68135191   -4.09021716   -6.30659562
     atom   22 type  1   force =    -1.45372051  -11.17427614   -8.21293597
     atom   23 type  1   force =     7.70196281   -9.90655983   -7.87359985
     atom   24 type  1   force =    -6.14411197  -10.88173587   -7.23201833
     atom   25 type  1   force =     6.12789332   10.83245452    7.24364727
     atom   26 type  1   force =    -7.73059507    9.92942779    7.83554645
     atom   27 type  1   force =     1.37778946   11.15339692    8.19821954
     atom   28 type  1   force =   -11.66581169    4.10473373    6.28468195
     atom   29 type  1   force =    13.77781103    4.94941812   -7.09144603
     atom   30 type  1   force =    -3.09138391    4.67382616   -7.96215694
     atom   31 type  2   force =    28.98592320   -5.88264515   31.90947591
     atom   32 type  2   force =   -11.64343733  -11.27054989   40.62436643
     atom   33 type  2   force =    13.37839020   23.32788220   -5.67605765
     atom   34 type  2   force =   -42.82101500   12.05806867   -2.62498234
     atom   35 type  2   force =    11.49093070   11.28804417  -40.64078204
     atom   36 type  2   force =   -28.95847838    5.92862478  -31.84192380
     atom   37 type  2   force =    42.85497136  -11.97302582    2.57780080
     atom   38 type  2   force =   -13.59017175  -23.35758110    5.56701235
     atom   39 type  3   force =     0.55399713   -0.17806524    0.24573431
     The core correction contribution to forces
     atom    1 type  1   force =     0.00000000    0.00000000    0.00000000
     atom    2 type  1   force =     0.00000000    0.00000000    0.00000000
     atom    3 type  1   force =     0.00000000    0.00000000    0.00000000
     atom    4 type  1   force =     0.00000000    0.00000000    0.00000000
     atom    5 type  1   force =     0.00000000    0.00000000    0.00000000
     atom    6 type  1   force =     0.00000000    0.00000000    0.00000000
     atom    7 type  1   force =     0.00000000    0.00000000    0.00000000
     atom    8 type  1   force =     0.00000000    0.00000000    0.00000000
     atom    9 type  1   force =     0.00000000    0.00000000    0.00000000
     atom   10 type  1   force =     0.00000000    0.00000000    0.00000000
     atom   11 type  1   force =     0.00000000    0.00000000    0.00000000
     atom   12 type  1   force =     0.00000000    0.00000000    0.00000000
     atom   13 type  1   force =     0.00000000    0.00000000    0.00000000
     atom   14 type  1   force =     0.00000000    0.00000000    0.00000000
     atom   15 type  1   force =     0.00000000    0.00000000    0.00000000
     atom   16 type  1   force =     0.00000000    0.00000000    0.00000000
     atom   17 type  1   force =     0.00000000    0.00000000    0.00000000
     atom   18 type  1   force =     0.00000000    0.00000000    0.00000000
     atom   19 type  1   force =     0.00000000    0.00000000    0.00000000
     atom   20 type  1   force =     0.00000000    0.00000000    0.00000000
     atom   21 type  1   force =     0.00000000    0.00000000    0.00000000
     atom   22 type  1   force =     0.00000000    0.00000000    0.00000000
     atom   23 type  1   force =     0.00000000    0.00000000    0.00000000
     atom   24 type  1   force =     0.00000000    0.00000000    0.00000000
     atom   25 type  1   force =     0.00000000    0.00000000    0.00000000
     atom   26 type  1   force =     0.00000000    0.00000000    0.00000000
     atom   27 type  1   force =     0.00000000    0.00000000    0.00000000
     atom   28 type  1   force =     0.00000000    0.00000000    0.00000000
     atom   29 type  1   force =     0.00000000    0.00000000    0.00000000
     atom   30 type  1   force =     0.00000000    0.00000000    0.00000000
     atom   31 type  2   force =    -0.00713617    0.00271949   -0.03497101
     atom   32 type  2   force =     0.00345561    0.00210732   -0.03474286
     atom   33 type  2   force =    -0.00668263   -0.01309592    0.00056799
     atom   34 type  2   force =     0.01284009   -0.00192457   -0.00496702
     atom   35 type  2   force =    -0.00340048   -0.00205792    0.03451752
     atom   36 type  2   force =     0.00702833   -0.00254557    0.03522112
     atom   37 type  2   force =    -0.01257540    0.00207708    0.00486422
     atom   38 type  2   force =     0.00664313    0.01316742   -0.00072279
     atom   39 type  3   force =     0.00000000    0.00000000    0.00000000
     The Hubbard contrib.    to forces
     atom    1 type  1   force =     0.00000000    0.00000000    0.00000000
     atom    2 type  1   force =     0.00000000    0.00000000    0.00000000
     atom    3 type  1   force =     0.00000000    0.00000000    0.00000000
     atom    4 type  1   force =     0.00000000    0.00000000    0.00000000
     atom    5 type  1   force =     0.00000000    0.00000000    0.00000000
     atom    6 type  1   force =     0.00000000    0.00000000    0.00000000
     atom    7 type  1   force =     0.00000000    0.00000000    0.00000000
     atom    8 type  1   force =     0.00000000    0.00000000    0.00000000
     atom    9 type  1   force =     0.00000000    0.00000000    0.00000000
     atom   10 type  1   force =     0.00000000    0.00000000    0.00000000
     atom   11 type  1   force =     0.00000000    0.00000000    0.00000000
     atom   12 type  1   force =     0.00000000    0.00000000    0.00000000
     atom   13 type  1   force =     0.00000000    0.00000000    0.00000000
     atom   14 type  1   force =     0.00000000    0.00000000    0.00000000
     atom   15 type  1   force =     0.00000000    0.00000000    0.00000000
     atom   16 type  1   force =     0.00000000    0.00000000    0.00000000
     atom   17 type  1   force =     0.00000000    0.00000000    0.00000000
     atom   18 type  1   force =     0.00000000    0.00000000    0.00000000
     atom   19 type  1   force =     0.00000000    0.00000000    0.00000000
     atom   20 type  1   force =     0.00000000    0.00000000    0.00000000
     atom   21 type  1   force =     0.00000000    0.00000000    0.00000000
     atom   22 type  1   force =     0.00000000    0.00000000    0.00000000
     atom   23 type  1   force =     0.00000000    0.00000000    0.00000000
     atom   24 type  1   force =     0.00000000    0.00000000    0.00000000
     atom   25 type  1   force =     0.00000000    0.00000000    0.00000000
     atom   26 type  1   force =     0.00000000    0.00000000    0.00000000
     atom   27 type  1   force =     0.00000000    0.00000000    0.00000000
     atom   28 type  1   force =     0.00000000    0.00000000    0.00000000
     atom   29 type  1   force =     0.00000000    0.00000000    0.00000000
     atom   30 type  1   force =     0.00000000    0.00000000    0.00000000
     atom   31 type  2   force =     0.00000000    0.00000000    0.00000000
     atom   32 type  2   force =     0.00000000    0.00000000    0.00000000
     atom   33 type  2   force =     0.00000000    0.00000000    0.00000000
     atom   34 type  2   force =     0.00000000    0.00000000    0.00000000
     atom   35 type  2   force =     0.00000000    0.00000000    0.00000000
     atom   36 type  2   force =     0.00000000    0.00000000    0.00000000
     atom   37 type  2   force =     0.00000000    0.00000000    0.00000000
     atom   38 type  2   force =     0.00000000    0.00000000    0.00000000
     atom   39 type  3   force =     0.00000000    0.00000000    0.00000000
     The SCF correction term to forces
     atom    1 type  1   force =    -0.00033542    0.00112456    0.00230860
     atom    2 type  1   force =    -0.00064386   -0.00154128   -0.00120445
     atom    3 type  1   force =     0.00143175    0.00004858    0.00136732
     atom    4 type  1   force =     0.00067012   -0.00060147   -0.00440082
     atom    5 type  1   force =    -0.00319730    0.00090820    0.00219212
     atom    6 type  1   force =     0.00391036    0.00100216   -0.00152491
     atom    7 type  1   force =    -0.00168367   -0.00146165    0.00138909
     atom    8 type  1   force =     0.00211192    0.00071374   -0.00213621
     atom    9 type  1   force =    -0.00100726    0.00111683    0.00428964
     atom   10 type  1   force =    -0.00223365    0.00112586   -0.00027774
     atom   11 type  1   force =    -0.00154680    0.00060279    0.00029947
     atom   12 type  1   force =     0.00070539   -0.00282781   -0.00075648
     atom   13 type  1   force =     0.00190758   -0.00124591   -0.00171868
     atom   14 type  1   force =    -0.00148264    0.00102706   -0.00468249
     atom   15 type  1   force =    -0.00432993   -0.00058433    0.00045094
     atom   16 type  1   force =     0.00111277   -0.00332514   -0.00031743
     atom   17 type  1   force =     0.00279403   -0.00145829    0.00513623
     atom   18 type  1   force =    -0.00117533    0.00155619    0.00105247
     atom   19 type  1   force =    -0.00102799   -0.00175563   -0.00079342
     atom   20 type  1   force =    -0.00284775    0.00352244   -0.00013003
     atom   21 type  1   force =     0.00397775   -0.00293199   -0.00532296
     atom   22 type  1   force =     0.00179378    0.00004637   -0.00120528
     atom   23 type  1   force =     0.00241210   -0.00020347   -0.00198196
     atom   24 type  1   force =     0.00087980   -0.00078289    0.00295528
     atom   25 type  1   force =     0.00020517   -0.00133500   -0.00093939
     atom   26 type  1   force =    -0.00567563    0.00043994    0.00001139
     atom   27 type  1   force =    -0.00297854   -0.00113184    0.00050984
     atom   28 type  1   force =    -0.00594795    0.00381856    0.00474656
     atom   29 type  1   force =     0.00100935   -0.00305894   -0.00264929
     atom   30 type  1   force =     0.00163508   -0.00040082    0.00132319
     atom   31 type  2   force =    -0.00218711   -0.00129403    0.00151310
     atom   32 type  2   force =    -0.00737538    0.00158764    0.00164401
     atom   33 type  2   force =     0.00121705   -0.00719482   -0.00792685
     atom   34 type  2   force =    -0.00971862    0.00516649    0.01919350
     atom   35 type  2   force =     0.00615538   -0.00374086   -0.00791806
     atom   36 type  2   force =     0.00055468    0.00162326    0.00484495
     atom   37 type  2   force =     0.00526885   -0.00576603   -0.01351079
     atom   38 type  2   force =    -0.00792057    0.00061772    0.00002066
     atom   39 type  3   force =    -0.00015318    0.00084579   -0.00020211

     Total force =     0.297121     Total SCF correction =     0.039952
     SCF correction compared to forces is large: reduce conv_thr to get better values


     Computing stress (Cartesian axis) and pressure


     negative rho (up, down):  2.672E-01 2.674E-01
          total   stress  (Ry/bohr**3)                   (kbar)     P=      -31.47
  -0.00021241   0.00001444  -0.00000744          -31.25        2.12       -1.09
   0.00001444  -0.00016921   0.00000382            2.12      -24.89        0.56
  -0.00000744   0.00000382  -0.00026007           -1.09        0.56      -38.26


     Molecular Dynamics Calculation

     Starting temperature  =   300.00 K

     temperature is set once at start

     mass Be               =     9.01
     mass W                =   183.84
     mass H                =     2.01
     Time step             =     2.10 a.u.,  0.1016 femto-seconds

     Entering Dynamics:    iteration =     1
                           time      =   0.0001 pico-seconds


ATOMIC_POSITIONS (angstrom)
Be            5.2220476041        3.0005472326        3.0000036307
Be            5.2220524781        3.0005427908       10.3072119946
Be            3.0000048537        6.8492351741        3.0000031088
Be            3.0000018321        6.8492369362       10.3072119999
Be            9.6661405603        3.0005477715        3.0000046071
Be            9.6661425132        3.0005451640       10.3072118068
Be            7.4440930361        6.8492323753        3.0000039179
Be            7.4440948989        6.8492298507       10.3072110974
Be           14.1102335791        3.0005406693        3.0000037301
Be           14.1102305749        3.0005424434       10.3072126393
Be           11.8881829192        6.8492347295        3.0000036611
Be           11.8881878672        6.8492302946       10.3072121134
Be            5.2220499084        3.0005470154        6.6536078071
Be            3.0000055478        6.8492346432        6.6536072163
Be            9.6661437563        3.0005445664        6.6536080347
Be            7.4440915334        6.8492340110        6.6536075272
Be           14.1102299554        3.0005428875        6.6536085015
Be           11.8881856316        6.8492304212        6.6536078370
Be            7.4440933248        5.5400360628        4.8268023533
Be           11.8881847031        5.5400342463        4.8268032636
Be            4.1338031773        6.1946367286        8.4804086065
Be            8.5778948221        6.1946347839        8.4804112839
Be            6.3102917782        6.1946339984        8.4804109226
Be           10.7543885974        6.1946328725        8.4804124718
Be            6.3558470592        3.6551445416        4.8268033017
Be           10.7999436785        3.6551434125        4.8268047196
Be            8.5323406241        3.6551425869        4.8268044028
Be           12.9764320949        3.6551408409        4.8268071175
Be            5.2220505428        4.3097434651        8.4804122678
Be            9.6661420289        4.3097413935        8.4804132992
W             5.2220474105        5.5663383868        3.4622967928
W             9.6661413117        5.5663383008        3.4622967196
W             7.4440941240        4.2834391035        7.1159043969
W            11.8881882360        4.2834392181        7.1159043139
W             7.4440942099        4.2834393544        9.8449188137
W            11.8881881125        4.2834392639        9.8449187244
W             5.2220472843        5.5663384202        6.1913115914
W             9.6661414110        5.5663385676        6.1913115158
H             7.4440938072        9.3335679184        6.1159051196


     kinetic energy (Ekin) =         161.87890716 Ry
     temperature           =      448397.50810728 K 
     Ekin + Etot (const)   =       -1954.33717381 Ry
     Ions kinetic stress =         1049.08 (kbar)
                                      0.00           0.00           0.00
                                      0.00        3147.24           0.00
                                      0.00           0.00           0.00



     Linear momentum :    0.0000000000   -0.0000000000    0.0000000000

     File outdir/pwscf.msd.dat deleted, as requested

     Writing config-only to output data dir outdir/pwscf.save/
     NEW-OLD atomic charge density approx. for the potential

     negative rho (up, down):  2.672E-01 2.674E-01
     Generating pointlists ...
     new r_m :   0.0613 (alat units)  1.9814 (a.u.) for type    3

     total cpu time spent up to now is     2342.5 secs

     Self-consistent Calculation

     iteration #  1     ecut=   120.00 Ry     beta= 0.70
     Davidson diagonalization with overlap
     ethr =  1.00E-06,  avg # of iterations = 14.0

     negative rho (up, down):  2.674E-01 2.677E-01

     total cpu time spent up to now is     2508.3 secs

     total energy              =   -2116.22041328 Ry
     estimated scf accuracy    <       0.08609817 Ry

     total magnetization       =     0.03 Bohr mag/cell
     absolute magnetization    =     2.80 Bohr mag/cell

     iteration #  2     ecut=   120.00 Ry     beta= 0.70
     Davidson diagonalization with overlap
     ethr =  3.70E-05,  avg # of iterations =  2.5

     negative rho (up, down):  2.672E-01 2.674E-01

     total cpu time spent up to now is     2610.1 secs

     total energy              =   -2116.21677581 Ry
     estimated scf accuracy    <       0.35256047 Ry

     total magnetization       =    -0.10 Bohr mag/cell
     absolute magnetization    =     3.00 Bohr mag/cell

     iteration #  3     ecut=   120.00 Ry     beta= 0.70
     Davidson diagonalization with overlap
     ethr =  3.70E-05,  avg # of iterations =  2.0

     negative rho (up, down):  2.671E-01 2.673E-01

     total cpu time spent up to now is     2663.9 secs

     total energy              =   -2116.22994353 Ry
     estimated scf accuracy    <       0.01935890 Ry

     total magnetization       =    -0.07 Bohr mag/cell
     absolute magnetization    =     2.99 Bohr mag/cell

     iteration #  4     ecut=   120.00 Ry     beta= 0.70
     Davidson diagonalization with overlap
     ethr =  8.31E-06,  avg # of iterations =  5.0

     negative rho (up, down):  2.671E-01 2.674E-01

     total cpu time spent up to now is     2768.5 secs

     total energy              =   -2116.23107420 Ry
     estimated scf accuracy    <       0.02120138 Ry

     total magnetization       =    -0.11 Bohr mag/cell
     absolute magnetization    =     3.15 Bohr mag/cell

     iteration #  5     ecut=   120.00 Ry     beta= 0.70
     Davidson diagonalization with overlap
     ethr =  8.31E-06,  avg # of iterations =  2.0

     negative rho (up, down):  2.672E-01 2.674E-01

     total cpu time spent up to now is     2820.7 secs

     total energy              =   -2116.23201372 Ry
     estimated scf accuracy    <       0.00600235 Ry

     total magnetization       =    -0.13 Bohr mag/cell
     absolute magnetization    =     3.36 Bohr mag/cell

     iteration #  6     ecut=   120.00 Ry     beta= 0.70
     Davidson diagonalization with overlap
     ethr =  2.58E-06,  avg # of iterations =  3.0

     negative rho (up, down):  2.672E-01 2.675E-01

     total cpu time spent up to now is     2921.3 secs

     total energy              =   -2116.23270039 Ry
     estimated scf accuracy    <       0.00548809 Ry

     total magnetization       =    -0.18 Bohr mag/cell
     absolute magnetization    =     3.48 Bohr mag/cell

     iteration #  7     ecut=   120.00 Ry     beta= 0.70
     Davidson diagonalization with overlap
     ethr =  2.36E-06,  avg # of iterations =  2.0

     negative rho (up, down):  2.672E-01 2.675E-01

     total cpu time spent up to now is     2974.0 secs

     total energy              =   -2116.23301186 Ry
     estimated scf accuracy    <       0.00419135 Ry

     total magnetization       =    -0.25 Bohr mag/cell
     absolute magnetization    =     3.64 Bohr mag/cell

     iteration #  8     ecut=   120.00 Ry     beta= 0.70
     Davidson diagonalization with overlap
     ethr =  1.80E-06,  avg # of iterations =  2.0

     negative rho (up, down):  2.671E-01 2.675E-01

     total cpu time spent up to now is     3071.9 secs

     total energy              =   -2116.23329051 Ry
     estimated scf accuracy    <       0.00227397 Ry

     total magnetization       =    -0.32 Bohr mag/cell
     absolute magnetization    =     3.84 Bohr mag/cell

     iteration #  9     ecut=   120.00 Ry     beta= 0.70
     Davidson diagonalization with overlap
     c_bands:  1 eigenvalues not converged
     ethr =  9.76E-07,  avg # of iterations = 13.0

     negative rho (up, down):  2.671E-01 2.675E-01

     Magnetic moment per site  (integrated on atomic sphere of radius R)
     atom   1 (R=0.052)  charge=  2.6331   -0.0473
     atom   2 (R=0.052)  charge=  2.6311   -0.0099
     atom   3 (R=0.052)  charge=  2.5976   -0.0382
     atom   4 (R=0.052)  charge=  2.5895   -0.0941
     atom   5 (R=0.052)  charge=  2.6660   -0.0570
     atom   6 (R=0.052)  charge=  2.6925    0.0028
     atom   7 (R=0.052)  charge=  2.6908   -0.0007
     atom   8 (R=0.052)  charge=  2.6640   -0.0268
     atom   9 (R=0.052)  charge=  2.5891    0.0949
     atom  10 (R=0.052)  charge=  2.5981    0.0452
     atom  11 (R=0.052)  charge=  2.6328   -0.0382
     atom  12 (R=0.052)  charge=  2.6326    0.0082
     atom  13 (R=0.052)  charge=  2.6957    0.0035
     atom  14 (R=0.052)  charge=  2.6241   -0.0249
     atom  15 (R=0.052)  charge=  2.7810    0.0004
     atom  16 (R=0.052)  charge=  2.7742   -0.0285
     atom  17 (R=0.052)  charge=  2.6243    0.0405
     atom  18 (R=0.052)  charge=  2.6970   -0.0055
     atom  19 (R=0.052)  charge=  2.9447    0.0022
     atom  20 (R=0.052)  charge=  2.8828   -0.0047
     atom  21 (R=0.052)  charge=  2.8110   -0.0142
     atom  22 (R=0.052)  charge=  2.9008    0.0049
     atom  23 (R=0.052)  charge=  2.9000    0.0048
     atom  24 (R=0.052)  charge=  2.8781   -0.0029
     atom  25 (R=0.052)  charge=  2.8768   -0.0007
     atom  26 (R=0.052)  charge=  2.9011   -0.0050
     atom  27 (R=0.052)  charge=  2.9009   -0.0010
     atom  28 (R=0.052)  charge=  2.8105    0.0155
     atom  29 (R=0.052)  charge=  2.8827    0.0014
     atom  30 (R=0.052)  charge=  2.9447   -0.0017
     atom  31 (R=0.063)  charge= 10.9142   -0.1773
     atom  32 (R=0.063)  charge= 10.9284   -0.1364
     atom  33 (R=0.063)  charge= 10.9949   -0.0491
     atom  34 (R=0.063)  charge= 10.9318    0.0110
     atom  35 (R=0.063)  charge= 10.9190   -0.0083
     atom  36 (R=0.063)  charge= 10.9071    0.1242
     atom  37 (R=0.063)  charge= 10.9342    0.0374
     atom  38 (R=0.063)  charge= 10.9917    0.0153
     atom  39 (R=0.061)  charge=  0.9060    0.4595

     total cpu time spent up to now is     3131.3 secs

     End of self-consistent calculation

 ------ SPIN UP ------------


          k = 0.0000 0.0000 0.0000 (168028 PWs)   bands (ev):

  -103.3828-103.3105-103.0328-103.0305-102.9871-102.9703-102.7277-102.7214
  -102.6859-102.6589-102.5813-102.5779-102.3688-102.3509-101.7209-101.7038
  -101.4583-101.2569-100.9155-100.9014-100.5451-100.5170-100.5125-100.5050
  -100.4453-100.4276-100.4254-100.4213-100.0965-100.0851 -74.9612 -74.9355
   -74.9064 -74.9002 -74.8867 -74.8598 -74.8258 -74.7458 -39.4107 -39.3791
   -39.3497 -39.2879 -39.2597 -39.2118 -39.1735 -39.1217 -39.0950 -39.0739
   -39.0469 -39.0303 -39.0151 -39.0038 -38.9683 -38.9599 -38.9223 -38.8985
   -38.8596 -38.8470 -38.8289 -38.8040 -38.7696 -38.7320  -8.8068  -7.7377
    -7.2898  -6.6106  -6.3835  -6.3065  -5.8620  -5.6963  -5.5512  -5.3629
    -5.2055  -4.9169  -4.8580  -4.8162  -4.6239  -4.2100  -4.1579  -4.1160
    -3.9852  -3.8429  -3.7028  -3.6532  -3.5607  -3.3847  -3.2867  -3.2265
    -3.1443  -3.0924  -2.9612  -2.9215  -2.8146  -2.6786  -2.6551  -2.5734
    -2.5002  -2.4350  -2.3752  -2.3020  -2.1936  -2.1172  -2.0732  -1.9946
    -1.9326  -1.8737  -1.8638  -1.7179  -1.6081  -1.4556  -1.4218  -1.3155
    -1.3007  -1.2370  -1.2224  -1.1273  -1.0636  -1.0273  -0.9593  -0.9267
    -0.8842  -0.7860  -0.7599  -0.6675  -0.6538  -0.5760  -0.5301  -0.3792
    -0.3517  -0.3384  -0.2890  -0.2085  -0.1627  -0.0688  -0.0455  -0.0020
     0.0482   0.0813   0.1631   0.2603

 ------ SPIN DOWN ----------


          k = 0.0000 0.0000 0.0000 (168028 PWs)   bands (ev):

  -103.3942-103.2975-103.0570-102.9987-102.9902-102.9533-102.7491-102.7359
  -102.6951-102.6813-102.6251-102.6015-102.3670-102.3551-101.7211-101.7018
  -101.4582-101.2841-100.9144-100.9011-100.5455-100.5171-100.5140-100.5017
  -100.4418-100.4307-100.4244-100.4243-100.0946-100.0861 -74.9746 -74.9456
   -74.9213 -74.8969 -74.8947 -74.8833 -74.8263 -74.7675 -39.4198 -39.3875
   -39.3599 -39.3106 -39.2789 -39.2055 -39.1839 -39.1367 -39.1088 -39.0807
   -39.0653 -39.0533 -39.0427 -39.0350 -39.0061 -38.9634 -38.9355 -38.9074
   -38.8867 -38.8627 -38.8371 -38.8297 -38.7628 -38.7452  -8.8152  -7.7440
    -7.2997  -6.6167  -6.3896  -6.3221  -5.8872  -5.7016  -5.5616  -5.3703
    -5.2228  -4.9381  -4.8631  -4.8156  -4.6496  -4.2463  -4.1680  -4.1333
    -4.0014  -3.8354  -3.7261  -3.6738  -3.5545  -3.4017  -3.2806  -3.2391
    -3.1502  -3.1064  -2.9805  -2.8313  -2.7136  -2.6750  -2.5856  -2.5348
    -2.4848  -2.4367  -2.3450  -2.2630  -2.1719  -2.1415  -2.0464  -1.9674
    -1.9117  -1.8923  -1.8463  -1.6114  -1.5097  -1.4784  -1.3682  -1.3362
    -1.3128  -1.2732  -1.2059  -1.1667  -1.1128  -1.0339  -0.9874  -0.9535
    -0.9180  -0.8222  -0.7947  -0.7789  -0.6449  -0.5974  -0.4947  -0.3852
    -0.3679  -0.3334  -0.3043  -0.2314  -0.1651  -0.1327  -0.0640  -0.0470
     0.0092   0.0672   0.1197   0.1957

     the Fermi energy is    -1.0917 ev

!    total energy              =   -2116.23349932 Ry
     estimated scf accuracy    <       0.00060857 Ry
     smearing contrib. (-TS)   =      -0.12169607 Ry
     internal energy E=F+TS    =   -2116.11180325 Ry

     total magnetization       =    -0.41 Bohr mag/cell
     absolute magnetization    =     4.11 Bohr mag/cell

     convergence has been achieved in   9 iterations

     negative rho (up, down):  2.671E-01 2.675E-01

     Forces acting on atoms (cartesian axes, Ry/au):

     atom    1 type  1   force =     0.00223173    0.05470436    0.02361254
     atom    2 type  1   force =     0.03787651    0.02340319   -0.02429708
     atom    3 type  1   force =     0.03311126   -0.02134639    0.02084773
     atom    4 type  1   force =     0.01086037   -0.00709568   -0.02179900
     atom    5 type  1   force =    -0.00284655    0.05856774    0.03067319
     atom    6 type  1   force =     0.00750809    0.03966951   -0.02615688
     atom    7 type  1   force =    -0.00815243   -0.03850420    0.02708753
     atom    8 type  1   force =     0.00378086   -0.05839502   -0.03032159
     atom    9 type  1   force =    -0.01030625    0.00641544    0.02107905
     atom   10 type  1   force =    -0.03489673    0.02136206   -0.02155769
     atom   11 type  1   force =    -0.03662385   -0.02346472    0.02546858
     atom   12 type  1   force =    -0.00284390   -0.05442798   -0.02522371
     atom   13 type  1   force =     0.01682101    0.05399091    0.00019646
     atom   14 type  1   force =     0.03870217   -0.02433575   -0.00200262
     atom   15 type  1   force =     0.02002120    0.03507101    0.00165868
     atom   16 type  1   force =    -0.01967280    0.01409106   -0.00885247
     atom   17 type  1   force =    -0.03946410    0.02428280    0.00206409
     atom   18 type  1   force =    -0.01712990   -0.05439475    0.00041225
     atom   19 type  1   force =    -0.00539089    0.01474747   -0.01351933
     atom   20 type  1   force =    -0.02283281    0.00234417   -0.00535512
     atom   21 type  1   force =    -0.01081743    0.00856234   -0.01858016
     atom   22 type  1   force =    -0.02516195   -0.01014574    0.00141550
     atom   23 type  1   force =     0.00964510   -0.01553374   -0.00201625
     atom   24 type  1   force =     0.03067743   -0.02011104    0.00471200
     atom   25 type  1   force =    -0.03230252    0.02143406   -0.00421060
     atom   26 type  1   force =    -0.01046403    0.01263691    0.00587255
     atom   27 type  1   force =     0.02783449    0.00711939    0.00331569
     atom   28 type  1   force =     0.01195393   -0.00893749    0.01880434
     atom   29 type  1   force =     0.02272291   -0.00233392    0.00608031
     atom   30 type  1   force =     0.00527154   -0.01774943    0.01237471
     atom   31 type  2   force =     0.04583484   -0.02895466    0.07935293
     atom   32 type  2   force =     0.00378248   -0.04206213    0.06822085
     atom   33 type  2   force =    -0.01472220    0.01377490    0.01456683
     atom   34 type  2   force =    -0.03259370    0.02377040    0.00842371
     atom   35 type  2   force =    -0.00361227    0.04016814   -0.06999972
     atom   36 type  2   force =    -0.04565465    0.02862928   -0.07946569
     atom   37 type  2   force =     0.02503121   -0.03351069   -0.00930248
     atom   38 type  2   force =     0.02180903   -0.00955679   -0.01899060
     atom   39 type  3   force =     0.00001277   -0.03388500    0.00541146
     The non-local contrib.  to forces
     atom    1 type  1   force =    -0.04214366   -0.23386727   -0.12143018
     atom    2 type  1   force =    -0.18223085   -0.18013038    0.09968014
     atom    3 type  1   force =    -0.21862075    0.13036650    0.02957859
     atom    4 type  1   force =    -0.08841563    0.05097216    0.18901755
     atom    5 type  1   force =    -0.00574220   -0.24905254   -0.20924896
     atom    6 type  1   force =    -0.01298429   -0.23207503    0.05610548
     atom    7 type  1   force =     0.00902314    0.24268654   -0.05408348
     atom    8 type  1   force =     0.01151056    0.24776760    0.20946817
     atom    9 type  1   force =     0.09028865   -0.04900869   -0.18753631
     atom   10 type  1   force =     0.21576683   -0.12851502   -0.02965313
     atom   11 type  1   force =     0.18377552    0.17930189   -0.09944394
     atom   12 type  1   force =     0.03828551    0.23667615    0.12072014
     atom   13 type  1   force =    -0.16458224   -0.29006423   -0.00607205
     atom   14 type  1   force =    -0.24615950    0.15119710   -0.08539571
     atom   15 type  1   force =    -0.02213964   -0.25164081    0.05870576
     atom   16 type  1   force =     0.02113956    0.21325848   -0.04456708
     atom   17 type  1   force =     0.24464778   -0.15077788    0.08435243
     atom   18 type  1   force =     0.16802189    0.27747986    0.00932730
     atom   19 type  1   force =    -0.00393049    0.01529764    0.00872388
     atom   20 type  1   force =     0.08251253    0.05302836   -0.03715988
     atom   21 type  1   force =    -0.11493062    0.04476402    0.08784704
     atom   22 type  1   force =    -0.00185778    0.08913036    0.05146551
     atom   23 type  1   force =     0.01087814    0.07248582    0.05783408
     atom   24 type  1   force =     0.00373575    0.11674183    0.03693837
     atom   25 type  1   force =     0.00027900   -0.12170230   -0.03733545
     atom   26 type  1   force =    -0.01041478   -0.07370006   -0.05121849
     atom   27 type  1   force =    -0.00146036   -0.09385631   -0.04923713
     atom   28 type  1   force =     0.11376718   -0.04541717   -0.08699182
     atom   29 type  1   force =    -0.08043839   -0.05406175    0.03950380
     atom   30 type  1   force =     0.00442262   -0.01627400   -0.00448573
     atom   31 type  2   force =    -0.09161355    0.00653972   -0.23637845
     atom   32 type  2   force =     0.02251474    0.01211852   -0.25793093
     atom   33 type  2   force =    -0.03191429   -0.09315643   -0.01123410
     atom   34 type  2   force =     0.14340373   -0.03899004   -0.03671366
     atom   35 type  2   force =    -0.02101049   -0.01466560    0.25409938
     atom   36 type  2   force =     0.08739822   -0.00643408    0.23621769
     atom   37 type  2   force =    -0.14500611    0.04169921    0.03336594
     atom   38 type  2   force =     0.02861067    0.10347149    0.00504060
     atom   39 type  3   force =    -0.00005727   -0.00745554    0.00131918
     The ionic contribution  to forces
     atom    1 type  1   force =    -6.92225512   -7.45590068   -7.14981298
     atom    2 type  1   force =    -9.17926253   -5.95467848    7.12456456
     atom    3 type  1   force =    -9.21835688    3.50010921   -4.30589959
     atom    4 type  1   force =    -6.92131614    2.23958430    4.70177271
     atom    5 type  1   force =     2.40568159   -8.57209694   -9.77616555
     atom    6 type  1   force =     2.01734821   -8.46471552    9.35937628
     atom    7 type  1   force =    -1.98472137    8.41433457   -9.42527186
     atom    8 type  1   force =    -2.36126475    8.56820698    9.79568854
     atom    9 type  1   force =     6.90441040   -2.24472421   -4.68969093
     atom   10 type  1   force =     9.18731375   -3.51028003    4.28822331
     atom   11 type  1   force =     9.19695296    5.95714880   -7.11382611
     atom   12 type  1   force =     6.91710468    7.47429522    7.12429800
     atom   13 type  1   force =   -11.78396537  -11.50046129    0.13400353
     atom   14 type  1   force =   -11.79309033    4.72043475    0.00607026
     atom   15 type  1   force =     2.87773188  -14.79033828    0.06601405
     atom   16 type  1   force =    -2.79910989   14.54808700    0.02409794
     atom   17 type  1   force =    11.74423613   -4.74023641    0.00492166
     atom   18 type  1   force =    11.78258155   11.54232340   -0.10855295
     atom   19 type  1   force =    -3.04526159    4.61135988   -7.98940909
     atom   20 type  1   force =    13.68446386    4.89886062   -7.03665816
     atom   21 type  1   force =   -11.58509648    4.04912638    6.20813280
     atom   22 type  1   force =     1.43366783   11.06008811    8.17803471
     atom   23 type  1   force =    -7.71127200    9.80202307    7.83278944
     atom   24 type  1   force =     6.17818800   10.73747411    7.20358661
     atom   25 type  1   force =    -6.15142764  -10.71999458   -7.20418743
     atom   26 type  1   force =     7.73049196   -9.85470245   -7.77609479
     atom   27 type  1   force =    -1.35539732  -11.08512468   -8.13905983
     atom   28 type  1   force =    11.56333049   -4.07161222   -6.17979686
     atom   29 type  1   force =   -13.67245444   -4.90880782    7.06009224
     atom   30 type  1   force =     3.08951255   -4.68804847    7.97780550
     atom   31 type  2   force =   -28.85109476    5.80665080  -31.57825262
     atom   32 type  2   force =    11.64468089   11.17366073  -40.28454144
     atom   33 type  2   force =   -13.35847631  -23.32189128    5.69983545
     atom   34 type  2   force =    42.63593858  -12.01874234    2.65599294
     atom   35 type  2   force =   -11.47749502  -11.26052840   40.28402777
     atom   36 type  2   force =    28.81111026   -5.90028434   31.48539633
     atom   37 type  2   force =   -42.70442632   11.83162691   -2.61327655
     atom   38 type  2   force =    13.61227268   23.16033589   -5.59055732
     atom   39 type  3   force =    -0.54127397    0.96743771   -0.25367055
     The local contribution  to forces
     atom    1 type  1   force =     6.97069796    7.74139310    7.29784731
     atom    2 type  1   force =     9.39892769    6.15658842   -7.25184875
     atom    3 type  1   force =     9.47058763   -3.64901831    4.29937478
     atom    4 type  1   force =     7.02235009   -2.29703916   -4.91488934
     atom    5 type  1   force =    -2.40516652    8.87787253   10.01873476
     atom    6 type  1   force =    -1.99819877    8.73357117   -9.44411711
     atom    7 type  1   force =     1.97133720   -8.69470719    9.50945764
     atom    8 type  1   force =     2.35402921   -8.87047751  -10.03767647
     atom    9 type  1   force =    -7.00803640    2.30058301    4.90093579
     atom   10 type  1   force =    -9.43525742    3.65765570   -4.28115775
     atom   11 type  1   force =    -9.42085941   -6.15964335    7.24119422
     atom   12 type  1   force =    -6.96035767   -7.76219275   -7.27149004
     atom   13 type  1   force =    11.97141761   11.84426527   -0.12908358
     atom   14 type  1   force =    12.08126815   -4.89494418    0.07641049
     atom   15 type  1   force =    -2.83944405   15.07719701   -0.12581552
     atom   16 type  1   force =     2.75954875  -14.75341038    0.01121393
     atom   17 type  1   force =   -12.02999453    4.91467998   -0.08672744
     atom   18 type  1   force =   -11.97247568  -11.87451473    0.09805552
     atom   19 type  1   force =     3.04683103   -4.61335604    7.97060463
     atom   20 type  1   force =   -13.79476192   -4.94906789    7.06983953
     atom   21 type  1   force =    11.69176589   -4.08455168   -6.31824541
     atom   22 type  1   force =    -1.45645507  -11.15820042   -8.23477793
     atom   23 type  1   force =     7.71100672   -9.88909922   -7.89889857
     atom   24 type  1   force =    -6.15405449  -10.87213465   -7.24141975
     atom   25 type  1   force =     6.12332240   10.86095564    7.24154133
     atom   26 type  1   force =    -7.73527457    9.94124683    7.83448152
     atom   27 type  1   force =     1.38426968   11.18532092    8.19391545
     atom   28 type  1   force =   -11.67040005    4.10902884    6.28807409
     atom   29 type  1   force =    13.77752075    4.96033980   -7.10011028
     atom   30 type  1   force =    -3.09100284    4.68637899   -7.96933399
     atom   31 type  2   force =    29.00463980   -5.84535789   31.94282796
     atom   32 type  2   force =   -11.67166512  -11.23154042   40.65873306
     atom   33 type  2   force =    13.38480466   23.43669879   -5.69406265
     atom   34 type  2   force =   -42.83838475   12.08412085   -2.62160366
     atom   35 type  2   force =    11.50089682   11.31460941  -40.66223653
     atom   36 type  2   force =   -28.95369852    5.93807467  -31.84889972
     atom   37 type  2   force =    42.89973771  -11.91064363    2.56959326
     atom   38 type  2   force =   -13.63241285  -23.28949673    5.56250423
     atom   39 type  3   force =     0.54162798   -0.99211836    0.25749990
     The core correction contribution to forces
     atom    1 type  1   force =     0.00000000    0.00000000    0.00000000
     atom    2 type  1   force =     0.00000000    0.00000000    0.00000000
     atom    3 type  1   force =     0.00000000    0.00000000    0.00000000
     atom    4 type  1   force =     0.00000000    0.00000000    0.00000000
     atom    5 type  1   force =     0.00000000    0.00000000    0.00000000
     atom    6 type  1   force =     0.00000000    0.00000000    0.00000000
     atom    7 type  1   force =     0.00000000    0.00000000    0.00000000
     atom    8 type  1   force =     0.00000000    0.00000000    0.00000000
     atom    9 type  1   force =     0.00000000    0.00000000    0.00000000
     atom   10 type  1   force =     0.00000000    0.00000000    0.00000000
     atom   11 type  1   force =     0.00000000    0.00000000    0.00000000
     atom   12 type  1   force =     0.00000000    0.00000000    0.00000000
     atom   13 type  1   force =     0.00000000    0.00000000    0.00000000
     atom   14 type  1   force =     0.00000000    0.00000000    0.00000000
     atom   15 type  1   force =     0.00000000    0.00000000    0.00000000
     atom   16 type  1   force =     0.00000000    0.00000000    0.00000000
     atom   17 type  1   force =     0.00000000    0.00000000    0.00000000
     atom   18 type  1   force =     0.00000000    0.00000000    0.00000000
     atom   19 type  1   force =     0.00000000    0.00000000    0.00000000
     atom   20 type  1   force =     0.00000000    0.00000000    0.00000000
     atom   21 type  1   force =     0.00000000    0.00000000    0.00000000
     atom   22 type  1   force =     0.00000000    0.00000000    0.00000000
     atom   23 type  1   force =     0.00000000    0.00000000    0.00000000
     atom   24 type  1   force =     0.00000000    0.00000000    0.00000000
     atom   25 type  1   force =     0.00000000    0.00000000    0.00000000
     atom   26 type  1   force =     0.00000000    0.00000000    0.00000000
     atom   27 type  1   force =     0.00000000    0.00000000    0.00000000
     atom   28 type  1   force =     0.00000000    0.00000000    0.00000000
     atom   29 type  1   force =     0.00000000    0.00000000    0.00000000
     atom   30 type  1   force =     0.00000000    0.00000000    0.00000000
     atom   31 type  2   force =    -0.00719288    0.00326646   -0.03500821
     atom   32 type  2   force =     0.00355115    0.00230814   -0.03540733
     atom   33 type  2   force =    -0.00636056   -0.01274609    0.00092084
     atom   34 type  2   force =     0.01276566   -0.00196461   -0.00445520
     atom   35 type  2   force =    -0.00338969   -0.00196021    0.03454353
     atom   36 type  2   force =     0.00651324   -0.00243811    0.03549057
     atom   37 type  2   force =    -0.01161270    0.00235075    0.00463408
     atom   38 type  2   force =     0.00603311    0.01369633   -0.00070894
     atom   39 type  3   force =     0.00000000    0.00000000    0.00000000
     The Hubbard contrib.    to forces
     atom    1 type  1   force =     0.00000000    0.00000000    0.00000000
     atom    2 type  1   force =     0.00000000    0.00000000    0.00000000
     atom    3 type  1   force =     0.00000000    0.00000000    0.00000000
     atom    4 type  1   force =     0.00000000    0.00000000    0.00000000
     atom    5 type  1   force =     0.00000000    0.00000000    0.00000000
     atom    6 type  1   force =     0.00000000    0.00000000    0.00000000
     atom    7 type  1   force =     0.00000000    0.00000000    0.00000000
     atom    8 type  1   force =     0.00000000    0.00000000    0.00000000
     atom    9 type  1   force =     0.00000000    0.00000000    0.00000000
     atom   10 type  1   force =     0.00000000    0.00000000    0.00000000
     atom   11 type  1   force =     0.00000000    0.00000000    0.00000000
     atom   12 type  1   force =     0.00000000    0.00000000    0.00000000
     atom   13 type  1   force =     0.00000000    0.00000000    0.00000000
     atom   14 type  1   force =     0.00000000    0.00000000    0.00000000
     atom   15 type  1   force =     0.00000000    0.00000000    0.00000000
[...]
     atom    3 type  1   force =     9.47536411   -3.64832719    4.29560063
     atom    4 type  1   force =     7.02274140   -2.30084135   -4.90468862
     atom    5 type  1   force =    -2.43110181    8.86164446   10.05145621
     atom    6 type  1   force =    -2.01597056    8.74639330   -9.46292573
     atom    7 type  1   force =     1.96749332   -8.73746136    9.45824189
     atom    8 type  1   force =     2.35332712   -8.91073847  -10.02108521
     atom    9 type  1   force =    -7.00942603    2.30299449    4.90283715
     atom   10 type  1   force =    -9.45192325    3.65599004   -4.28801760
     atom   11 type  1   force =    -9.41334619   -6.17031882    7.23818404
     atom   12 type  1   force =    -6.97274191   -7.77741502   -7.27408694
     atom   13 type  1   force =    12.05184636   11.79595705   -0.15025235
     atom   14 type  1   force =    12.06673807   -4.91087389    0.08036190
     atom   15 type  1   force =    -2.91162637   15.02470835   -0.15283764
     atom   16 type  1   force =     2.75560358  -15.07134601    0.06021022
     atom   17 type  1   force =   -12.04250267    4.92113629   -0.08949705
     atom   18 type  1   force =   -11.96072696  -11.90486956    0.10467007
     atom   19 type  1   force =     3.03674024   -4.73667939    7.92290461
     atom   20 type  1   force =   -13.79074065   -4.96578812    7.06921860
     atom   21 type  1   force =    11.67661037   -4.10809061   -6.30355778
     atom   22 type  1   force =    -1.48062840  -11.20607355   -8.21104568
     atom   23 type  1   force =     7.73019371   -9.93850955   -7.87838136
     atom   24 type  1   force =    -6.13739035  -10.90274101   -7.22388225
     atom   25 type  1   force =     6.15722782   10.76041046    7.26815907
     atom   26 type  1   force =    -7.76536731    9.92074147    7.84162972
     atom   27 type  1   force =     1.35052597   11.07874436    8.22148851
     atom   28 type  1   force =   -11.67576336    4.10417410    6.29140590
     atom   29 type  1   force =    13.79786273    4.92404948   -7.10253338
     atom   30 type  1   force =    -3.10322819    4.65714061   -7.96458428
     atom   31 type  2   force =    28.95330710   -5.97945832   31.88664395
     atom   32 type  2   force =   -11.63160477  -11.37437030   40.61486545
     atom   33 type  2   force =    13.36349675   23.09881445   -5.70233243
     atom   34 type  2   force =   -42.86082934   12.03659879   -2.62154402
     atom   35 type  2   force =    11.48730926   11.25460615  -40.69966596
     atom   36 type  2   force =   -28.96746215    5.92730608  -31.85758623
     atom   37 type  2   force =    42.81505719  -12.14950902    2.58789366
     atom   38 type  2   force =   -13.53889225  -23.54686145    5.57667230
     atom   39 type  3   force =     0.61583532    1.45998480    0.37495501
     The core correction contribution to forces
     atom    1 type  1   force =     0.00000000    0.00000000    0.00000000
     atom    2 type  1   force =     0.00000000    0.00000000    0.00000000
     atom    3 type  1   force =     0.00000000    0.00000000    0.00000000
     atom    4 type  1   force =     0.00000000    0.00000000    0.00000000
     atom    5 type  1   force =     0.00000000    0.00000000    0.00000000
     atom    6 type  1   force =     0.00000000    0.00000000    0.00000000
     atom    7 type  1   force =     0.00000000    0.00000000    0.00000000
     atom    8 type  1   force =     0.00000000    0.00000000    0.00000000
     atom    9 type  1   force =     0.00000000    0.00000000    0.00000000
     atom   10 type  1   force =     0.00000000    0.00000000    0.00000000
     atom   11 type  1   force =     0.00000000    0.00000000    0.00000000
     atom   12 type  1   force =     0.00000000    0.00000000    0.00000000
     atom   13 type  1   force =     0.00000000    0.00000000    0.00000000
     atom   14 type  1   force =     0.00000000    0.00000000    0.00000000
     atom   15 type  1   force =     0.00000000    0.00000000    0.00000000
     atom   16 type  1   force =     0.00000000    0.00000000    0.00000000
     atom   17 type  1   force =     0.00000000    0.00000000    0.00000000
     atom   18 type  1   force =     0.00000000    0.00000000    0.00000000
     atom   19 type  1   force =     0.00000000    0.00000000    0.00000000
     atom   20 type  1   force =     0.00000000    0.00000000    0.00000000
     atom   21 type  1   force =     0.00000000    0.00000000    0.00000000
     atom   22 type  1   force =     0.00000000    0.00000000    0.00000000
     atom   23 type  1   force =     0.00000000    0.00000000    0.00000000
     atom   24 type  1   force =     0.00000000    0.00000000    0.00000000
     atom   25 type  1   force =     0.00000000    0.00000000    0.00000000
     atom   26 type  1   force =     0.00000000    0.00000000    0.00000000
     atom   27 type  1   force =     0.00000000    0.00000000    0.00000000
     atom   28 type  1   force =     0.00000000    0.00000000    0.00000000
     atom   29 type  1   force =     0.00000000    0.00000000    0.00000000
     atom   30 type  1   force =     0.00000000    0.00000000    0.00000000
     atom   31 type  2   force =    -0.00732598    0.00166554   -0.03552220
     atom   32 type  2   force =     0.00368067    0.00201986   -0.03494395
     atom   33 type  2   force =    -0.00670134   -0.01476313   -0.00018513
     atom   34 type  2   force =     0.01254167   -0.00181109   -0.00417239
     atom   35 type  2   force =    -0.00356882   -0.00275406    0.03544712
     atom   36 type  2   force =     0.00742432   -0.00165205    0.03606898
     atom   37 type  2   force =    -0.01268029    0.00177010    0.00393049
     atom   38 type  2   force =     0.00638249    0.01295543   -0.00108848
     atom   39 type  3   force =     0.00000000    0.00000000    0.00000000
     The Hubbard contrib.    to forces
     atom    1 type  1   force =     0.00000000    0.00000000    0.00000000
     atom    2 type  1   force =     0.00000000    0.00000000    0.00000000
     atom    3 type  1   force =     0.00000000    0.00000000    0.00000000
     atom    4 type  1   force =     0.00000000    0.00000000    0.00000000
     atom    5 type  1   force =     0.00000000    0.00000000    0.00000000
     atom    6 type  1   force =     0.00000000    0.00000000    0.00000000
     atom    7 type  1   force =     0.00000000    0.00000000    0.00000000
     atom    8 type  1   force =     0.00000000    0.00000000    0.00000000
     atom    9 type  1   force =     0.00000000    0.00000000    0.00000000
     atom   10 type  1   force =     0.00000000    0.00000000    0.00000000
     atom   11 type  1   force =     0.00000000    0.00000000    0.00000000
     atom   12 type  1   force =     0.00000000    0.00000000    0.00000000
     atom   13 type  1   force =     0.00000000    0.00000000    0.00000000
     atom   14 type  1   force =     0.00000000    0.00000000    0.00000000
     atom   15 type  1   force =     0.00000000    0.00000000    0.00000000
     atom   16 type  1   force =     0.00000000    0.00000000    0.00000000
     atom   17 type  1   force =     0.00000000    0.00000000    0.00000000
     atom   18 type  1   force =     0.00000000    0.00000000    0.00000000
     atom   19 type  1   force =     0.00000000    0.00000000    0.00000000
     atom   20 type  1   force =     0.00000000    0.00000000    0.00000000
     atom   21 type  1   force =     0.00000000    0.00000000    0.00000000
     atom   22 type  1   force =     0.00000000    0.00000000    0.00000000
     atom   23 type  1   force =     0.00000000    0.00000000    0.00000000
     atom   24 type  1   force =     0.00000000    0.00000000    0.00000000
     atom   25 type  1   force =     0.00000000    0.00000000    0.00000000
     atom   26 type  1   force =     0.00000000    0.00000000    0.00000000
     atom   27 type  1   force =     0.00000000    0.00000000    0.00000000
     atom   28 type  1   force =     0.00000000    0.00000000    0.00000000
     atom   29 type  1   force =     0.00000000    0.00000000    0.00000000
     atom   30 type  1   force =     0.00000000    0.00000000    0.00000000
     atom   31 type  2   force =     0.00000000    0.00000000    0.00000000
     atom   32 type  2   force =     0.00000000    0.00000000    0.00000000
     atom   33 type  2   force =     0.00000000    0.00000000    0.00000000
     atom   34 type  2   force =     0.00000000    0.00000000    0.00000000
     atom   35 type  2   force =     0.00000000    0.00000000    0.00000000
     atom   36 type  2   force =     0.00000000    0.00000000    0.00000000
     atom   37 type  2   force =     0.00000000    0.00000000    0.00000000
     atom   38 type  2   force =     0.00000000    0.00000000    0.00000000
     atom   39 type  3   force =     0.00000000    0.00000000    0.00000000
     The SCF correction term to forces
     atom    1 type  1   force =     0.00184439   -0.00283218    0.00359224
     atom    2 type  1   force =    -0.00239190   -0.00162116   -0.00282874
     atom    3 type  1   force =    -0.00360668    0.00099104    0.00093302
     atom    4 type  1   force =    -0.00272243    0.00051367   -0.00057533
     atom    5 type  1   force =     0.00127432   -0.00458764    0.00323275
     atom    6 type  1   force =     0.00682381   -0.00199903   -0.00220267
     atom    7 type  1   force =     0.00151625    0.00310840    0.00329564
     atom    8 type  1   force =     0.00258175    0.00319499   -0.00333615
     atom    9 type  1   force =    -0.00062790   -0.00063335    0.00008942
     atom   10 type  1   force =    -0.00233649    0.00024751   -0.00009188
     atom   11 type  1   force =     0.00411558    0.00203058    0.00086183
     atom   12 type  1   force =     0.00184379   -0.00005463   -0.00068651
     atom   13 type  1   force =     0.00628001   -0.00080125   -0.00118627
     atom   14 type  1   force =     0.00030199    0.00015202    0.00079567
     atom   15 type  1   force =    -0.00283920   -0.00352549   -0.00110811
     atom   16 type  1   force =     0.00283083    0.00117835   -0.00049123
     atom   17 type  1   force =    -0.00043456   -0.00146228    0.00059735
     atom   18 type  1   force =    -0.00046015    0.00250851    0.00039352
     atom   19 type  1   force =     0.00134267   -0.00103420    0.00687391
     atom   20 type  1   force =     0.00209471    0.00121305    0.00279329
     atom   21 type  1   force =    -0.00072562    0.00085296   -0.00207664
     atom   22 type  1   force =     0.00229709    0.00229928   -0.00580472
     atom   23 type  1   force =     0.00097427    0.00128493   -0.00570395
     atom   24 type  1   force =     0.00083813    0.00092296   -0.00193228
     atom   25 type  1   force =     0.00402332   -0.00424617    0.00573542
     atom   26 type  1   force =    -0.00014182   -0.00324890    0.00365074
     atom   27 type  1   force =    -0.00214503   -0.00453569    0.00709274
     atom   28 type  1   force =     0.00052391   -0.00099041    0.00022780
     atom   29 type  1   force =     0.00032891    0.00019558   -0.00511852
     atom   30 type  1   force =     0.00308415   -0.00000361   -0.00469351
     atom   31 type  2   force =     0.00216540   -0.00228197    0.01237181
     atom   32 type  2   force =     0.00366323    0.00283100    0.01147129
     atom   33 type  2   force =     0.00495911   -0.00587268   -0.01794244
     atom   34 type  2   force =    -0.00200285   -0.00132559    0.00452573
     atom   35 type  2   force =     0.00497216    0.00276861   -0.01985726
     atom   36 type  2   force =     0.00817593   -0.00222776    0.00276669
     atom   37 type  2   force =     0.00905298   -0.00089275    0.00952917
     atom   38 type  2   force =    -0.00409585    0.00325707    0.00974812
     atom   39 type  3   force =     0.00046095    0.00196171    0.00027769

     Total force =     0.285429     Total SCF correction =     0.047192
     SCF correction compared to forces is large: reduce conv_thr to get better values


     Computing stress (Cartesian axis) and pressure


     negative rho (up, down):  2.670E-01 2.680E-01
          total   stress  (Ry/bohr**3)                   (kbar)     P=      -31.37
  -0.00021313   0.00001429  -0.00000880          -31.35        2.10       -1.29
   0.00001429  -0.00017172   0.00000396            2.10      -25.26        0.58
  -0.00000880   0.00000396  -0.00025480           -1.29        0.58      -37.48


     Entering Dynamics:    iteration =    20
                           time      =   0.0020 pico-seconds


ATOMIC_POSITIONS (angstrom)
Be            5.2222910620        3.0138206492        3.0013752552
Be            5.2242076897        3.0121292283       10.3058205533
Be            3.0018929107        6.8583633965        3.0012732070
Be            3.0006589787        6.8591044401       10.3059314907
Be            9.6658926785        3.0139622481        3.0016862378
Be            9.6665088038        3.0130401958       10.3056974966
Be            7.4437033274        6.8572490959        3.0014386370
Be            7.4443113491        6.8561905611       10.3055569771
Be           14.1095863421        3.0111797617        3.0012801601
Be           14.1083093594        3.0119421517       10.3059423589
Be           11.8861025111        6.8582149659        3.0014604371
Be           11.8879695840        6.8564723063       10.3058428139
Be            5.2230436265        3.0138721789        6.6535978549
Be            3.0022177580        6.8581367621        6.6534811597
Be            9.6673100481        3.0128546527        6.6536550890
Be            7.4429259561        6.8571138911        6.6807134382
Be           14.1080064325        3.0121227979        6.6537440249
Be           11.8870740548        6.8563739273        6.6535864530
Be            7.4438925303        5.5515824378        4.8256815977
Be           11.8867658960        5.5504118676        4.8265515170
Be            4.1332666680        6.2053710932        8.4792429787
Be            8.5764187906        6.2043507032        8.4803365202
Be            6.3109831066        6.2041045616        8.4800901740
Be           10.7560121621        6.2038023280        8.4805042891
Be            6.3540843239        3.6664890259        4.8266673412
Be           10.7992249566        3.6661115241        4.8272253049
Be            8.5339525479        3.6657297854        4.8269752243
Be           12.9769923791        3.6649411384        4.8279488674
Be            5.2233945836        4.3199198321        8.4806590296
Be            9.6663788176        4.3190024478        8.4809922417
W             5.2221667661        5.5765081685        3.4625047314
W             9.6661566970        5.5764701610        3.4624810879
W             7.4440495495        4.2936558742        7.1164332357
W            11.8880995215        4.2937613634        7.1159265999
W             7.4440803621        4.2938037680        9.8447361526
W            11.8880687958        4.2937683860        9.8447137166
W             5.2220935799        5.5765058826        6.1912947221
W             9.6662237763        5.5765742658        6.1912628807
H             7.4450536559        0.4791721674        5.9515724176


     kinetic energy (Ekin) =         161.81705668 Ry
     temperature           =      448226.18496907 K 
     Ekin + Etot (const)   =       -1954.41567199 Ry
     Ions kinetic stress =         1048.68 (kbar)
                                      0.03          -0.32          -0.02
                                     -0.32        3142.85          95.10
                                     -0.02          95.10           3.15



     Linear momentum :    0.0000000000   -0.0000000000   -0.0000000000

     The maximum number of steps has been reached.

     End of molecular dynamics calculation

     diffusion coefficients :
     atom     1   D =       0.00000158 cm^2/s
     atom     2   D =       0.00000126 cm^2/s
     atom     3   D =       0.00000081 cm^2/s
     atom     4   D =       0.00000091 cm^2/s
     atom     5   D =       0.00000162 cm^2/s
     atom     6   D =       0.00000141 cm^2/s
     atom     7   D =       0.00000062 cm^2/s
     atom     8   D =       0.00000048 cm^2/s
     atom     9   D =       0.00000104 cm^2/s
     atom    10   D =       0.00000121 cm^2/s
     atom    11   D =       0.00000080 cm^2/s
     atom    12   D =       0.00000051 cm^2/s
     atom    13   D =       0.00000159 cm^2/s
     atom    14   D =       0.00000077 cm^2/s
     atom    15   D =       0.00000137 cm^2/s
     atom    16   D =       0.00000662 cm^2/s
     atom    17   D =       0.00000125 cm^2/s
     atom    18   D =       0.00000049 cm^2/s
     atom    19   D =       0.00000121 cm^2/s
     atom    20   D =       0.00000099 cm^2/s
     atom    21   D =       0.00000106 cm^2/s
     atom    22   D =       0.00000088 cm^2/s
     atom    23   D =       0.00000083 cm^2/s
     atom    24   D =       0.00000079 cm^2/s
     atom    25   D =       0.00000118 cm^2/s
     atom    26   D =       0.00000109 cm^2/s
     atom    27   D =       0.00000104 cm^2/s
     atom    28   D =       0.00000089 cm^2/s
     atom    29   D =       0.00000096 cm^2/s
     atom    30   D =       0.00000079 cm^2/s
     atom    31   D =       0.00000094 cm^2/s
     atom    32   D =       0.00000093 cm^2/s
     atom    33   D =       0.00000095 cm^2/s
     atom    34   D =       0.00000097 cm^2/s
     atom    35   D =       0.00000098 cm^2/s
     atom    36   D =       0.00000097 cm^2/s
     atom    37   D =       0.00000094 cm^2/s
     atom    38   D =       0.00000095 cm^2/s
     atom    39   D =       0.71285026 cm^2/s

     < D > =       0.01827933 cm^2/s

     Writing all to output data dir outdir/pwscf.save/

     init_run     :     29.37s CPU     38.35s WALL (       1 calls)
     electrons    :  14955.73s CPU  16653.77s WALL (      20 calls)
     update_pot   :     29.00s CPU     32.13s WALL (      19 calls)
     forces       :    647.01s CPU    709.71s WALL (      20 calls)
     stress       :    853.29s CPU    996.50s WALL (      20 calls)

     Called by init_run:
     wfcinit      :     25.42s CPU     32.76s WALL (       1 calls)
     potinit      :      0.58s CPU      1.00s WALL (       1 calls)
     hinit0       :      0.96s CPU      1.10s WALL (       1 calls)

     Called by electrons:
     c_bands      :  12387.82s CPU  13759.37s WALL (     179 calls)
     sum_band     :   1846.04s CPU   2076.84s WALL (     179 calls)
     v_of_rho     :     52.98s CPU     62.90s WALL (     199 calls)
     newd         :    725.71s CPU    817.30s WALL (     199 calls)
     mix_rho      :      9.29s CPU     11.22s WALL (     179 calls)

     Called by c_bands:
     init_us_2    :     23.91s CPU     24.16s WALL (     798 calls)
     init_us_2:cp :     23.90s CPU     24.15s WALL (     798 calls)
     regterg      :  12311.73s CPU  13640.69s WALL (     358 calls)

     Called by *egterg:
     rdiaghg      :     89.52s CPU     90.46s WALL (    2235 calls)
     h_psi        :   6006.69s CPU   6420.72s WALL (    2275 calls)
     s_psi        :   2188.12s CPU   2192.95s WALL (    2275 calls)
     g_psi        :      2.66s CPU      2.70s WALL (    1915 calls)

     Called by h_psi:
     h_psi:calbec :   2882.37s CPU   3146.68s WALL (    2275 calls)
     vloc_psi     :    540.68s CPU    681.39s WALL (    2275 calls)
     add_vuspsi   :   2577.21s CPU   2585.94s WALL (    2275 calls)

     General routines
     calbec       :   4488.07s CPU   4950.29s WALL (    2833 calls)
     fft          :     52.65s CPU    157.26s WALL (    3684 calls)
     ffts         :      1.21s CPU      1.64s WALL (     179 calls)
     fftw         :    541.82s CPU    701.83s WALL (  158638 calls)

     Parallel routines

     PWSCF        :      4h36m CPU      5h 8m WALL


   This run was terminated on:  18:59:20  14Jun2023            

=------------------------------------------------------------------------------=
   JOB DONE.
=------------------------------------------------------------------------------=
