
     Program PWSCF v.7.2 starts on 11Jun2023 at  4:19:21 

     This program is part of the open-source Quantum ESPRESSO suite
     for quantum simulation of materials; please cite
         "P. Giannozzi et al., J. Phys.:Condens. Matter 21 395502 (2009);
         "P. Giannozzi et al., J. Phys.:Condens. Matter 29 465901 (2017);
         "P. Giannozzi et al., J. Chem. Phys. 152 154105 (2020);
          URL http://www.quantum-espresso.org", 
     in publications or presentations arising from this work. More details at
     http://www.quantum-espresso.org/quote

     Parallel version (MPI), running on    12 processors

     MPI processes distributed on     1 nodes
     75688 MiB available memory on the printing compute node when the environment starts

     Reading input from md_data/md_Hf5Nb2Ta10Zr5H_10steps_50eV_incident0_polar0.in
Warning: card &CELL ignored
Warning: card / ignored

     Current dimensions of program PWSCF are:
     Max number of different atomic species (ntypx) = 10
     Max number of k-points (npk) =  40000
     Max angular momentum in pseudopotentials (lmaxx) =  4

     File outdir/pwscf.update deleted, as requested

     File outdir/pwscf.md deleted, as requested

     gamma-point specific algorithms are used

     R & G space division:  proc/nbgrp/npool/nimage =      12
     Subspace diagonalization in iterative solution of the eigenvalue problem:
     one sub-group per band group will be used
     custom distributed-memory algorithm (size of sub-group:  2*  2 procs)


     Parallelization info
     --------------------
     sticks:   dense  smooth     PW     G-vecs:    dense   smooth      PW
     Min         723     723    180                64572    64572    8072
     Max         724     724    182                64584    64584    8078
     Sum        8687    8687   2177               774967   774967   96907

     Using Slab Decomposition



     bravais-lattice index     =            0
     lattice parameter (alat)  =      13.8706  a.u.
     unit-cell volume          =    4363.8306 (a.u.)^3
     number of atoms/cell      =           23
     number of atomic types    =            5
     number of electrons       =       277.00
     number of Kohn-Sham states=          167
     kinetic-energy cutoff     =     120.0000  Ry
     charge density cutoff     =     480.0000  Ry
     scf convergence threshold =      1.0E-03
     mixing beta               =       0.7000
     number of iterations used =            8  TF        mixing
     energy convergence thresh.=      0.0E+00
     force convergence thresh. =      0.0E+00
     Exchange-correlation=  SLA  PW   PBX  PBC
                           (   1   4   3   4   0   0   0)
     nstep                     =           10


     celldm(1)=  13.870589  celldm(2)=   0.000000  celldm(3)=   0.000000
     celldm(4)=   0.000000  celldm(5)=   0.000000  celldm(6)=   0.000000

     crystal axes: (cart. coord. in units of alat)
               a(1) = (   1.000000   0.000000   0.000000 )  
               a(2) = (   0.000000   1.182561   0.000000 )  
               a(3) = (   0.000000   0.000000   1.382801 )  

     reciprocal axes: (cart. coord. in units 2 pi/alat)
               b(1) = (  1.000000  0.000000  0.000000 )  
               b(2) = (  0.000000  0.845622  0.000000 )  
               b(3) = (  0.000000  0.000000  0.723170 )  


     PseudoPot. # 1 for Hf read from file:
     q-e/pseudo/hf_pbe_v1.uspp.F.UPF
     MD5 check sum: 8ee9378dfe14276e333edf04c5e4aa26
     Pseudo is Ultrasoft + core correction, Zval = 12.0
     Generated by new atomic code, or converted to UPF format
     Using radial grid of  921 points,  8 beta functions with: 
                l(1) =   0
                l(2) =   0
                l(3) =   0
                l(4) =   1
                l(5) =   1
                l(6) =   2
                l(7) =   2
                l(8) =   3
     Q(r) pseudized with  6 coefficients,  rinner =    1.200   1.200   1.200
                                                       1.200   1.200   1.200
                                                       1.200

     PseudoPot. # 2 for Nb read from file:
     q-e/pseudo/nb_pbe_v1.uspp.F.UPF
     MD5 check sum: 573aab8a2fa660278ed4a62cd769473f
     Pseudo is Ultrasoft + core correction, Zval = 13.0
     Generated by new atomic code, or converted to UPF format
     Using radial grid of  887 points,  6 beta functions with: 
                l(1) =   0
                l(2) =   0
                l(3) =   1
                l(4) =   1
                l(5) =   2
                l(6) =   2
     Q(r) pseudized with  6 coefficients,  rinner =    1.000   1.000   1.000
                                                       1.000   1.000

     PseudoPot. # 3 for Ta read from file:
     q-e/pseudo/ta_pbe_v1.uspp.F.UPF
     MD5 check sum: f8bbe9446314a3b8ea5d9f3e3836c939
     Pseudo is Ultrasoft + core correction, Zval = 13.0
     Generated by new atomic code, or converted to UPF format
     Using radial grid of  921 points,  7 beta functions with: 
                l(1) =   0
                l(2) =   0
                l(3) =   1
                l(4) =   1
                l(5) =   2
                l(6) =   2
                l(7) =   3
     Q(r) pseudized with  6 coefficients,  rinner =    1.300   1.300   1.300
                                                       1.300   1.300   1.300
                                                       1.300

     PseudoPot. # 4 for Zr read from file:
     q-e/pseudo/zr_pbe_v1.uspp.F.UPF
     MD5 check sum: 5db81b1e868ab7776c4564c113de050b
     Pseudo is Ultrasoft + core correction, Zval = 12.0
     Generated by new atomic code, or converted to UPF format
     Using radial grid of  887 points,  6 beta functions with: 
                l(1) =   0
                l(2) =   0
                l(3) =   1
                l(4) =   1
                l(5) =   2
                l(6) =   2
     Q(r) pseudized with  6 coefficients,  rinner =    1.200   1.200   1.200
                                                       1.200   1.200

     PseudoPot. # 5 for H  read from file:
     q-e/pseudo/h_pbe_v1.4.uspp.F.UPF
     MD5 check sum: 761ae9a214b05c3daf00ab9f6b793d6f
     Pseudo is Ultrasoft, Zval =  1.0
     Generated by new atomic code, or converted to UPF format
     Using radial grid of  615 points,  2 beta functions with: 
                l(1) =   0
                l(2) =   0
     Q(r) pseudized with  8 coefficients,  rinner =    0.700

     atomic species   valence    mass     pseudopotential
        Hf            12.00   178.49000     Hf( 1.00)
        Nb            13.00    92.90637     Nb( 1.00)
        Ta            13.00   180.94788     Ta( 1.00)
        Zr            12.00    91.22400     Zr( 1.00)
        H              1.00     2.01400     H ( 1.00)

     Starting magnetic structure 
     atomic species   magnetization
        Hf           0.000
        Nb           0.000
        Ta           0.000
        Zr           0.000
        H            0.000

     No symmetry found



   Cartesian axes

     site n.     atom                  positions (alat units)
         1           Hf  tau(   1) = (   0.3637602   0.3851666   0.8997227  )
         2           Hf  tau(   2) = (   0.1707072   0.1752431   0.6891644  )
         3           Hf  tau(   3) = (   0.1710473   1.0067854   0.6931973  )
         4           Hf  tau(   4) = (   0.5568133   0.1752431   0.6891644  )
         5           Hf  tau(   5) = (   0.5564732   1.0067854   0.6931973  )
         6           Nb  tau(   6) = (   0.3637602   0.3810532   0.4789623  )
         7           Nb  tau(   7) = (   0.3637602   0.8005966   0.9039507  )
         8           Ta  tau(   8) = (   0.1647647   0.5914071   0.6908891  )
         9           Ta  tau(   9) = (   0.5627557   0.5914071   0.6908891  )
        10           Ta  tau(  10) = (   0.1780998   0.1790358   0.2804876  )
        11           Ta  tau(  11) = (   0.1774916   0.1782549   1.1028038  )
        12           Ta  tau(  12) = (   0.1776580   1.0048810   0.2787789  )
        13           Ta  tau(  13) = (   0.1781622   1.0034173   1.1016352  )
        14           Ta  tau(  14) = (   0.5494206   0.1790358   0.2804876  )
        15           Ta  tau(  15) = (   0.5500289   0.1782549   1.1028038  )
        16           Ta  tau(  16) = (   0.5498625   1.0048810   0.2787789  )
        17           Ta  tau(  17) = (   0.5493582   1.0034173   1.1016352  )
        18           Zr  tau(  18) = (   0.3637602   0.7992215   0.4805700  )
        19           Zr  tau(  19) = (   0.1694598   0.5888390   0.2724796  )
        20           Zr  tau(  20) = (   0.1689898   0.5932048   1.1103210  )
        21           Zr  tau(  21) = (   0.5580607   0.5888390   0.2724796  )
        22           Zr  tau(  22) = (   0.5585306   0.5932048   1.1103210  )
        23           H   tau(  23) = (   0.6989955   0.5912807   0.6910327  )

     number of k points=     1  Gaussian smearing, width (Ry)=  0.0220
                       cart. coord. in units 2pi/alat
        k(    1) = (   0.0000000   0.0000000   0.0000000), wk =   1.0000000

     Dense  grid:   387484 G-vectors     FFT dimensions: ( 100, 120, 135)

     Estimated max dynamical RAM per process >     326.54 MB

     Estimated total dynamical RAM >       3.83 GB

     Check: negative core charge=   -0.000002
     Generating pointlists ...
     new r_m :   0.1421 (alat units)  1.9717 (a.u.) for type    1
     new r_m :   0.1397 (alat units)  1.9374 (a.u.) for type    2
     new r_m :   0.0562 (alat units)  0.7795 (a.u.) for type    3
     new r_m :   0.1415 (alat units)  1.9625 (a.u.) for type    4
     new r_m :   0.0562 (alat units)  0.7795 (a.u.) for type    5

     Initial potential from superposition of free atoms

     starting charge     266.9726, renormalised to     277.0000

     negative rho (up, down):  9.202E-01 9.202E-01
     Starting wfcs are  287 randomized atomic wfcs

     total cpu time spent up to now is       23.4 secs

     Self-consistent Calculation

     iteration #  1     ecut=   120.00 Ry     beta= 0.70
     Davidson diagonalization with overlap
     ethr =  1.00E-02,  avg # of iterations =  3.0

     negative rho (up, down):  9.523E-01 9.523E-01

     total cpu time spent up to now is       62.7 secs

     total energy              =   -2932.99768458 Ry
     estimated scf accuracy    <     321.72424075 Ry

     total magnetization       =     0.00 Bohr mag/cell
     absolute magnetization    =     0.08 Bohr mag/cell

     iteration #  2     ecut=   120.00 Ry     beta= 0.70
     Davidson diagonalization with overlap
     ethr =  1.00E-02,  avg # of iterations =  5.0

     negative rho (up, down):  8.880E-01 8.880E-01

     total cpu time spent up to now is      103.3 secs

     total energy              =   -2941.21112155 Ry
     estimated scf accuracy    <      47.14940084 Ry

     total magnetization       =     0.01 Bohr mag/cell
     absolute magnetization    =     0.09 Bohr mag/cell

     iteration #  3     ecut=   120.00 Ry     beta= 0.70
     Davidson diagonalization with overlap
     ethr =  1.00E-02,  avg # of iterations =  4.0

     negative rho (up, down):  9.124E-01 9.122E-01

     total cpu time spent up to now is      139.7 secs

     total energy              =   -2941.68235792 Ry
     estimated scf accuracy    <      18.61760869 Ry

     total magnetization       =    -0.01 Bohr mag/cell
     absolute magnetization    =     0.11 Bohr mag/cell

     iteration #  4     ecut=   120.00 Ry     beta= 0.70
     Davidson diagonalization with overlap
