
     Program PWSCF v.7.2 starts on 14Jun2023 at 23:10:44 

     This program is part of the open-source Quantum ESPRESSO suite
     for quantum simulation of materials; please cite
         "P. Giannozzi et al., J. Phys.:Condens. Matter 21 395502 (2009);
         "P. Giannozzi et al., J. Phys.:Condens. Matter 29 465901 (2017);
         "P. Giannozzi et al., J. Chem. Phys. 152 154105 (2020);
          URL http://www.quantum-espresso.org", 
     in publications or presentations arising from this work. More details at
     http://www.quantum-espresso.org/quote

     Parallel version (MPI), running on    42 processors

     MPI processes distributed on     1 nodes
     175594 MiB available memory on the printing compute node when the environment starts

     Reading input from md_data/md_Hf5Nb2Ta10Zr5H_20steps_200eV_incident30_polar60.in
Warning: card &CELL ignored
Warning: card / ignored

     Current dimensions of program PWSCF are:
     Max number of different atomic species (ntypx) = 10
     Max number of k-points (npk) =  40000
     Max angular momentum in pseudopotentials (lmaxx) =  4

     File outdir/pwscf.md deleted, as requested

     gamma-point specific algorithms are used

     R & G space division:  proc/nbgrp/npool/nimage =      42
     Subspace diagonalization in iterative solution of the eigenvalue problem:
     one sub-group per band group will be used
     custom distributed-memory algorithm (size of sub-group:  2*  2 procs)


     Parallelization info
     --------------------
     sticks:   dense  smooth     PW     G-vecs:    dense   smooth      PW
     Min         262     262     63                23470    23470    2920
     Max         265     265     66                23484    23484    2942
     Sum       11057   11057   2753               986005   986005  123175

     Using Slab Decomposition



     bravais-lattice index     =            0
     lattice parameter (alat)  =      17.6500  a.u.
     unit-cell volume          =    5552.8853 (a.u.)^3
     number of atoms/cell      =           23
     number of atomic types    =            5
     number of electrons       =       277.00
     number of Kohn-Sham states=          167
     kinetic-energy cutoff     =     120.0000  Ry
     charge density cutoff     =     480.0000  Ry
     scf convergence threshold =      1.0E-03
     mixing beta               =       0.7000
     number of iterations used =            8  TF        mixing
     energy convergence thresh.=      0.0E+00
     force convergence thresh. =      0.0E+00
     Exchange-correlation=  SLA  PW   PBX  PBC
                           (   1   4   3   4   0   0   0)
     nstep                     =           20


     celldm(1)=  17.650041  celldm(2)=   0.000000  celldm(3)=   0.000000
     celldm(4)=   0.000000  celldm(5)=   0.000000  celldm(6)=   0.000000

     crystal axes: (cart. coord. in units of alat)
               a(1) = (   1.000000   0.000000   0.000000 )  
               a(2) = (   0.000000   0.929336   0.000000 )  
               a(3) = (   0.000000   0.000000   1.086698 )  

     reciprocal axes: (cart. coord. in units 2 pi/alat)
               b(1) = (  1.000000  0.000000  0.000000 )  
               b(2) = (  0.000000  1.076037  0.000000 )  
               b(3) = (  0.000000  0.000000  0.920219 )  


     PseudoPot. # 1 for Hf read from file:
     q-e/pseudo/hf_pbe_v1.uspp.F.UPF
     MD5 check sum: 8ee9378dfe14276e333edf04c5e4aa26
     Pseudo is Ultrasoft + core correction, Zval = 12.0
     Generated by new atomic code, or converted to UPF format
     Using radial grid of  921 points,  8 beta functions with: 
                l(1) =   0
                l(2) =   0
                l(3) =   0
                l(4) =   1
                l(5) =   1
                l(6) =   2
                l(7) =   2
                l(8) =   3
     Q(r) pseudized with  6 coefficients,  rinner =    1.200   1.200   1.200
                                                       1.200   1.200   1.200
                                                       1.200

     PseudoPot. # 2 for Nb read from file:
     q-e/pseudo/nb_pbe_v1.uspp.F.UPF
     MD5 check sum: 573aab8a2fa660278ed4a62cd769473f
     Pseudo is Ultrasoft + core correction, Zval = 13.0
     Generated by new atomic code, or converted to UPF format
     Using radial grid of  887 points,  6 beta functions with: 
                l(1) =   0
                l(2) =   0
                l(3) =   1
                l(4) =   1
                l(5) =   2
                l(6) =   2
     Q(r) pseudized with  6 coefficients,  rinner =    1.000   1.000   1.000
                                                       1.000   1.000

     PseudoPot. # 3 for Ta read from file:
     q-e/pseudo/ta_pbe_v1.uspp.F.UPF
     MD5 check sum: f8bbe9446314a3b8ea5d9f3e3836c939
     Pseudo is Ultrasoft + core correction, Zval = 13.0
     Generated by new atomic code, or converted to UPF format
     Using radial grid of  921 points,  7 beta functions with: 
                l(1) =   0
                l(2) =   0
                l(3) =   1
                l(4) =   1
                l(5) =   2
                l(6) =   2
                l(7) =   3
     Q(r) pseudized with  6 coefficients,  rinner =    1.300   1.300   1.300
                                                       1.300   1.300   1.300
                                                       1.300

     PseudoPot. # 4 for Zr read from file:
     q-e/pseudo/zr_pbe_v1.uspp.F.UPF
     MD5 check sum: 5db81b1e868ab7776c4564c113de050b
     Pseudo is Ultrasoft + core correction, Zval = 12.0
     Generated by new atomic code, or converted to UPF format
     Using radial grid of  887 points,  6 beta functions with: 
                l(1) =   0
                l(2) =   0
                l(3) =   1
                l(4) =   1
                l(5) =   2
                l(6) =   2
     Q(r) pseudized with  6 coefficients,  rinner =    1.200   1.200   1.200
                                                       1.200   1.200

     PseudoPot. # 5 for H  read from file:
     q-e/pseudo/h_pbe_v1.4.uspp.F.UPF
     MD5 check sum: 761ae9a214b05c3daf00ab9f6b793d6f
     Pseudo is Ultrasoft, Zval =  1.0
     Generated by new atomic code, or converted to UPF format
     Using radial grid of  615 points,  2 beta functions with: 
                l(1) =   0
                l(2) =   0
     Q(r) pseudized with  8 coefficients,  rinner =    0.700

     atomic species   valence    mass     pseudopotential
        Hf            12.00   178.49000     Hf( 1.00)
        Nb            13.00    92.90637     Nb( 1.00)
        Ta            13.00   180.94788     Ta( 1.00)
        Zr            12.00    91.22400     Zr( 1.00)
        H              1.00     2.01400     H ( 1.00)

     Starting magnetic structure 
     atomic species   magnetization
        Hf           0.000
        Nb           0.000
        Ta           0.000
        Zr           0.000
        H            0.000

     No symmetry found



   Cartesian axes

     site n.     atom                  positions (alat units)
         1           Hf  tau(   1) = (   0.2858672   0.3026898   0.7070626  )
         2           Hf  tau(   2) = (   0.1341532   0.1377178   0.5415917  )
         3           Hf  tau(   3) = (   0.1344204   0.7911996   0.5447610  )
         4           Hf  tau(   4) = (   0.4375813   0.1377178   0.5415917  )
         5           Hf  tau(   5) = (   0.4373140   0.7911996   0.5447610  )
         6           Nb  tau(   6) = (   0.2858672   0.2994572   0.3764008  )
         7           Nb  tau(   7) = (   0.2858672   0.6291626   0.7103852  )
         8           Ta  tau(   8) = (   0.1294832   0.4647675   0.5429471  )
         9           Ta  tau(   9) = (   0.4422513   0.4647675   0.5429471  )
        10           Ta  tau(  10) = (   0.1399628   0.1406984   0.2204260  )
        11           Ta  tau(  11) = (   0.1394848   0.1400847   0.8666573  )
        12           Ta  tau(  12) = (   0.1396156   0.7897030   0.2190832  )
        13           Ta  tau(  13) = (   0.1400119   0.7885528   0.8657390  )
        14           Ta  tau(  14) = (   0.4317717   0.1406984   0.2204260  )
        15           Ta  tau(  15) = (   0.4322496   0.1400847   0.8666573  )
        16           Ta  tau(  16) = (   0.4321189   0.7897030   0.2190832  )
        17           Ta  tau(  17) = (   0.4317226   0.7885528   0.8657390  )
        18           Zr  tau(  18) = (   0.2858672   0.6280820   0.3776642  )
        19           Zr  tau(  19) = (   0.1331729   0.4627493   0.2141328  )
        20           Zr  tau(  20) = (   0.1328036   0.4661802   0.8725649  )
        21           Zr  tau(  21) = (   0.4385616   0.4627493   0.2141328  )
        22           Zr  tau(  22) = (   0.4389309   0.4661802   0.8725649  )
        23           H   tau(  23) = (   0.6276957   0.5182013   0.6357822  )

     number of k points=     1  Gaussian smearing, width (Ry)=  0.0220
                       cart. coord. in units 2pi/alat
        k(    1) = (   0.0000000   0.0000000   0.0000000), wk =   1.0000000

     Dense  grid:   493003 G-vectors     FFT dimensions: ( 125, 120, 135)

     Estimated max dynamical RAM per process >     133.03 MB

     Estimated total dynamical RAM >       5.46 GB

     Check: negative core charge=   -0.000002
     Generating pointlists ...
     new r_m :   0.1117 (alat units)  1.9717 (a.u.) for type    1
     new r_m :   0.1098 (alat units)  1.9374 (a.u.) for type    2
     new r_m :   0.0883 (alat units)  1.5592 (a.u.) for type    3
     new r_m :   0.1112 (alat units)  1.9625 (a.u.) for type    4
     new r_m :   0.0883 (alat units)  1.5592 (a.u.) for type    5

     Initial potential from superposition of free atoms

     starting charge     266.9726, renormalised to     277.0000

     negative rho (up, down):  9.217E-01 9.217E-01
     Starting wfcs are  287 randomized atomic wfcs

     total cpu time spent up to now is       25.5 secs

     Self-consistent Calculation

     iteration #  1     ecut=   120.00 Ry     beta= 0.70
     Davidson diagonalization with overlap
     ethr =  1.00E-02,  avg # of iterations =  2.0

     negative rho (up, down):  9.969E-01 9.965E-01

     total cpu time spent up to now is       66.7 secs

     total energy              =   -2930.57936064 Ry
     estimated scf accuracy    <     276.95898303 Ry

     total magnetization       =    -0.00 Bohr mag/cell
     absolute magnetization    =     0.09 Bohr mag/cell

     iteration #  2     ecut=   120.00 Ry     beta= 0.70
     Davidson diagonalization with overlap
     ethr =  1.00E-02,  avg # of iterations =  5.0

     negative rho (up, down):  9.709E-01 9.702E-01

     total cpu time spent up to now is       95.3 secs

     total energy              =   -2942.17602940 Ry
     estimated scf accuracy    <      30.29173144 Ry

     total magnetization       =    -0.02 Bohr mag/cell
     absolute magnetization    =     0.21 Bohr mag/cell

     iteration #  3     ecut=   120.00 Ry     beta= 0.70
     Davidson diagonalization with overlap
     ethr =  1.00E-02,  avg # of iterations =  2.0

     negative rho (up, down):  1.005E+00 1.010E+00

     total cpu time spent up to now is      113.6 secs

     total energy              =   -2942.65523323 Ry
     estimated scf accuracy    <      12.90711412 Ry

     total magnetization       =    -0.01 Bohr mag/cell
     absolute magnetization    =     0.30 Bohr mag/cell

     iteration #  4     ecut=   120.00 Ry     beta= 0.70
     Davidson diagonalization with overlap
     ethr =  4.66E-03,  avg # of iterations =  3.0

     negative rho (up, down):  1.010E+00 1.019E+00

     total cpu time spent up to now is      130.8 secs

     total energy              =   -2942.90034057 Ry
     estimated scf accuracy    <       3.17268238 Ry

     total magnetization       =    -0.00 Bohr mag/cell
     absolute magnetization    =     0.35 Bohr mag/cell

     iteration #  5     ecut=   120.00 Ry     beta= 0.70
     Davidson diagonalization with overlap
     ethr =  1.15E-03,  avg # of iterations =  8.0

     negative rho (up, down):  9.879E-01 9.935E-01

     total cpu time spent up to now is      153.5 secs

     total energy              =   -2943.06937212 Ry
     estimated scf accuracy    <       1.83660414 Ry

     total magnetization       =    -0.01 Bohr mag/cell
     absolute magnetization    =     0.18 Bohr mag/cell

     iteration #  6     ecut=   120.00 Ry     beta= 0.70
     Davidson diagonalization with overlap
     ethr =  6.63E-04,  avg # of iterations =  2.0

     negative rho (up, down):  9.740E-01 9.771E-01

     total cpu time spent up to now is      177.6 secs

     total energy              =   -2943.11173637 Ry
     estimated scf accuracy    <       0.96324845 Ry

     total magnetization       =     0.01 Bohr mag/cell
     absolute magnetization    =     0.14 Bohr mag/cell

     iteration #  7     ecut=   120.00 Ry     beta= 0.70
     Davidson diagonalization with overlap
     ethr =  3.48E-04,  avg # of iterations =  2.0

     negative rho (up, down):  9.476E-01 9.486E-01

     total cpu time spent up to now is      213.6 secs

     total energy              =   -2943.05996705 Ry
     estimated scf accuracy    <       0.40549621 Ry

     total magnetization       =     0.00 Bohr mag/cell
     absolute magnetization    =     0.11 Bohr mag/cell

     iteration #  8     ecut=   120.00 Ry     beta= 0.70
     Davidson diagonalization with overlap
     ethr =  1.46E-04,  avg # of iterations =  6.5

     negative rho (up, down):  9.219E-01 9.216E-01

     total cpu time spent up to now is      246.8 secs

     total energy              =   -2943.06052043 Ry
     estimated scf accuracy    <       0.19439014 Ry

     total magnetization       =    -0.01 Bohr mag/cell
     absolute magnetization    =     0.09 Bohr mag/cell

     iteration #  9     ecut=   120.00 Ry     beta= 0.70
     Davidson diagonalization with overlap
     ethr =  7.02E-05,  avg # of iterations = 11.0

     negative rho (up, down):  9.080E-01 9.078E-01

     total cpu time spent up to now is      265.0 secs

     total energy              =   -2943.05442977 Ry
     estimated scf accuracy    <       0.05874014 Ry

     total magnetization       =    -0.01 Bohr mag/cell
     absolute magnetization    =     0.07 Bohr mag/cell

     iteration # 10     ecut=   120.00 Ry     beta= 0.70
     Davidson diagonalization with overlap
     ethr =  2.12E-05,  avg # of iterations = 14.5

     negative rho (up, down):  9.087E-01 9.087E-01

     total cpu time spent up to now is      288.4 secs

     total energy              =   -2943.05968933 Ry
     estimated scf accuracy    <       0.03619887 Ry

     total magnetization       =    -0.01 Bohr mag/cell
     absolute magnetization    =     0.06 Bohr mag/cell

     iteration # 11     ecut=   120.00 Ry     beta= 0.70
     Davidson diagonalization with overlap
     ethr =  1.31E-05,  avg # of iterations =  2.0

     negative rho (up, down):  9.092E-01 9.092E-01

     total cpu time spent up to now is      305.2 secs

     total energy              =   -2943.06381288 Ry
     estimated scf accuracy    <       0.00551887 Ry

     total magnetization       =    -0.02 Bohr mag/cell
     absolute magnetization    =     0.05 Bohr mag/cell

     iteration # 12     ecut=   120.00 Ry     beta= 0.70
     Davidson diagonalization with overlap
     c_bands:  1 eigenvalues not converged
     ethr =  1.99E-06,  avg # of iterations = 13.5

     negative rho (up, down):  9.092E-01 9.092E-01

     total cpu time spent up to now is      334.7 secs

     total energy              =   -2943.06589061 Ry
     estimated scf accuracy    <       0.00288673 Ry

     total magnetization       =    -0.02 Bohr mag/cell
     absolute magnetization    =     0.04 Bohr mag/cell

     iteration # 13     ecut=   120.00 Ry     beta= 0.70
     Davidson diagonalization with overlap
     ethr =  1.04E-06,  avg # of iterations =  3.0

     negative rho (up, down):  9.089E-01 9.089E-01

     Magnetic moment per site  (integrated on atomic sphere of radius R)
     atom   1 (R=0.112)  charge=  9.4632  magn=  0.0001
     atom   2 (R=0.112)  charge=  9.0594  magn=  0.0004
     atom   3 (R=0.112)  charge=  9.0583  magn=  0.0006
     atom   4 (R=0.112)  charge=  9.0579  magn= -0.0001
     atom   5 (R=0.112)  charge=  9.0568  magn=  0.0001
     atom   6 (R=0.110)  charge= 10.3496  magn=  0.0008
     atom   7 (R=0.110)  charge= 10.3496  magn=  0.0001
     atom   8 (R=0.088)  charge=  8.1283  magn=  0.0000
     atom   9 (R=0.088)  charge=  8.1181  magn=  0.0004
     atom  10 (R=0.088)  charge=  8.1074  magn= -0.0004
     atom  11 (R=0.088)  charge=  8.1049  magn= -0.0000
     atom  12 (R=0.088)  charge=  8.1085  magn= -0.0005
     atom  13 (R=0.088)  charge=  8.1052  magn= -0.0001
     atom  14 (R=0.088)  charge=  8.1064  magn= -0.0004
     atom  15 (R=0.088)  charge=  8.1053  magn= -0.0003
     atom  16 (R=0.088)  charge=  8.1074  magn= -0.0010
     atom  17 (R=0.088)  charge=  8.1092  magn=  0.0002
     atom  18 (R=0.111)  charge=  9.4546  magn=  0.0004
     atom  19 (R=0.111)  charge=  8.9974  magn= -0.0020
     atom  20 (R=0.111)  charge=  8.9969  magn= -0.0003
     atom  21 (R=0.111)  charge=  8.9939  magn= -0.0021
     atom  22 (R=0.111)  charge=  8.9910  magn= -0.0001
     atom  23 (R=0.088)  charge=  0.9713  magn= -0.0000

     total cpu time spent up to now is      372.7 secs

     End of self-consistent calculation

 ------ SPIN UP ------------


          k = 0.0000 0.0000 0.0000 ( 61588 PWs)   bands (ev):

   -60.7905 -60.7860 -60.7458 -60.7384 -60.7131 -60.7082 -60.6682 -60.6643
   -60.5122 -60.4224 -54.4076 -54.3562 -54.2810 -54.2308 -52.7039 -46.2772
   -46.2663 -41.6732 -41.6259 -41.5680 -41.5253 -39.8083 -27.7922 -27.7874
   -27.7063 -27.7010 -27.6034 -27.5981 -27.4795 -27.4685 -27.3758 -27.3434
   -27.3071 -27.2788 -27.2677 -27.2489 -27.2369 -27.1818 -27.1754 -27.1484
   -27.0923 -27.0844 -27.0248 -26.9690 -26.9641 -26.9588 -26.9470 -26.9126
   -26.8986 -26.8915 -26.8667 -26.8652 -24.1901 -23.9799 -23.6748 -23.5906
   -23.3337 -23.2006 -23.1794 -23.0762 -22.9492 -22.8811 -22.8613 -22.6421
   -22.5159 -22.4643 -22.4088 -22.3675 -22.2928 -22.2480 -21.7681 -21.7033
   -21.6347 -20.1966 -19.9741 -19.8284 -19.8249 -19.6494 -19.6217 -19.5997
   -19.5913 -19.5740 -19.5519 -19.3992 -19.3676 -18.1540 -17.9493 -17.8240
     1.4598   2.9175   2.9966   3.1278   3.3007   3.4471   3.4910   3.6751
     3.7355   3.8289   3.9072   4.0489   4.2509   4.4965   4.6448   4.6742
     4.7411   4.8738   5.0406   5.0720   5.1311   5.2547   5.2831   5.2917
     5.3898   5.5473   5.5662   5.7102   5.7295   5.7465   5.7474   5.7828
     5.9236   6.0871   6.1533   6.2145   6.2606   6.3003   6.3532   6.3703
     6.4481   6.6207   6.6541   6.6816   6.8738   6.9233   7.0006   7.0398
     7.0925   7.1390   7.2563   7.3072   7.3137   7.4223   7.5333   7.5809
     7.6128   7.6819   7.8836   7.9296   8.0758   8.0911   8.1113   8.1858
     8.2417   8.3245   8.3429   8.3621   8.4783   8.5255   8.6165   8.7134
     8.7760   8.8951   8.9321   9.0545   9.1747   9.2194   9.2704

 ------ SPIN DOWN ----------


          k = 0.0000 0.0000 0.0000 ( 61588 PWs)   bands (ev):

   -60.7911 -60.7860 -60.7464 -60.7384 -60.7138 -60.7082 -60.6688 -60.6644
   -60.5122 -60.4218 -54.4074 -54.3558 -54.2809 -54.2305 -52.7037 -46.2769
   -46.2652 -41.6733 -41.6280 -41.5683 -41.5275 -39.8077 -27.7925 -27.7877
   -27.7070 -27.7010 -27.6038 -27.5983 -27.4797 -27.4692 -27.3759 -27.3440
   -27.3072 -27.2796 -27.2678 -27.2493 -27.2375 -27.1823 -27.1760 -27.1483
   -27.0917 -27.0844 -27.0243 -26.9696 -26.9641 -26.9589 -26.9477 -26.9122
   -26.8988 -26.8922 -26.8671 -26.8655 -24.1897 -23.9796 -23.6744 -23.5904
   -23.3334 -23.2002 -23.1789 -23.0758 -22.9488 -22.8808 -22.8611 -22.6419
   -22.5152 -22.4634 -22.4085 -22.3670 -22.2923 -22.2475 -21.7679 -21.7031
   -21.6345 -20.1987 -19.9738 -19.8310 -19.8270 -19.6496 -19.6219 -19.6010
   -19.5926 -19.5762 -19.5524 -19.3993 -19.3703 -18.1534 -17.9488 -17.8237
     1.4598   2.9169   2.9969   3.1279   3.3009   3.4468   3.4909   3.6753
     3.7356   3.8289   3.9066   4.0483   4.2509   4.4966   4.6447   4.6740
     4.7409   4.8737   5.0400   5.0717   5.1307   5.2541   5.2829   5.2917
     5.3892   5.5473   5.5661   5.7098   5.7286   5.7464   5.7475   5.7823
     5.9236   6.0865   6.1528   6.2141   6.2605   6.3001   6.3529   6.3695
     6.4474   6.6204   6.6535   6.6810   6.8729   6.9226   6.9989   7.0389
     7.0908   7.1378   7.2553   7.3066   7.3121   7.4209   7.5332   7.5791
     7.6117   7.6814   7.8833   7.9294   8.0744   8.0903   8.1106   8.1847
     8.2406   8.3239   8.3420   8.3613   8.4777   8.5246   8.6157   8.7124
     8.7753   8.8937   8.9312   9.0540   9.1736   9.2191   9.2642

     the Fermi energy is     7.2315 ev

!    total energy              =   -2943.06712482 Ry
     estimated scf accuracy    <       0.00048127 Ry
     smearing contrib. (-TS)   =      -0.09989143 Ry
     internal energy E=F+TS    =   -2942.96723339 Ry

     total magnetization       =    -0.02 Bohr mag/cell
     absolute magnetization    =     0.04 Bohr mag/cell

     convergence has been achieved in  13 iterations

     negative rho (up, down):  9.089E-01 9.089E-01

     Forces acting on atoms (cartesian axes, Ry/au):

     atom    1 type  1   force =    -0.00557851   -0.02525484    0.00891249
     atom    2 type  1   force =    -0.11341216   -0.01700742   -0.00158394
     atom    3 type  1   force =    -0.11354189    0.01463137    0.00259723
     atom    4 type  1   force =     0.11110827   -0.01954124   -0.00594582
     atom    5 type  1   force =     0.12002784    0.01291292    0.00334222
     atom    6 type  2   force =    -0.01149139   -0.01988138    0.00449320
     atom    7 type  2   force =    -0.01909535    0.01143111   -0.00922976
     atom    8 type  3   force =    -0.11730746    0.00414470   -0.00136292
     atom    9 type  3   force =     0.16267906    0.00696420    0.01009488
     atom   10 type  3   force =    -0.02061835   -0.03230666   -0.05915336
     atom   11 type  3   force =    -0.02106711   -0.03587810    0.05695321
     atom   12 type  3   force =    -0.01933996    0.03732801   -0.05468324
     atom   13 type  3   force =    -0.01866605    0.03161829    0.06137893
     atom   14 type  3   force =     0.02422317   -0.02984529   -0.05737658
     atom   15 type  3   force =     0.01806757   -0.03773581    0.05402359
     atom   16 type  3   force =     0.02093523    0.03531667   -0.05108371
     atom   17 type  3   force =     0.01512413    0.03773220    0.05919849
     atom   18 type  4   force =    -0.00457131    0.02872719   -0.00993264
     atom   19 type  4   force =    -0.13032529   -0.00460029   -0.11580939
     atom   20 type  4   force =    -0.13460583    0.00506243    0.11269645
     atom   21 type  4   force =     0.12816989   -0.00710104   -0.11657269
     atom   22 type  4   force =     0.15605193    0.00623665    0.10355131
     atom   23 type  5   force =    -0.02676643   -0.00295367    0.00549205
     The non-local contrib.  to forces
     atom    1 type  1   force =    -0.00503735   -0.01423778    0.03396017
     atom    2 type  1   force =    -0.24456950   -0.16393688    0.01528782
     atom    3 type  1   force =    -0.23919408    0.15867991   -0.02557592
     atom    4 type  1   force =     0.25181109   -0.16394570    0.02571453
     atom    5 type  1   force =     0.26001625    0.14760353   -0.01163824
     atom    6 type  2   force =     0.00668470   -0.05592247   -0.06408222
     atom    7 type  2   force =    -0.02429478    0.05824107    0.05672764
     atom    8 type  3   force =    -0.27114580    0.00288544    0.00104040
     atom    9 type  3   force =     0.09966353   -0.03553585   -0.05385095
     atom   10 type  3   force =    -0.21328489    0.00405867   -0.20638047
     atom   11 type  3   force =    -0.21463713    0.00682236    0.19647113
     atom   12 type  3   force =    -0.20583956   -0.01975960   -0.17695034
     atom   13 type  3   force =    -0.21011905   -0.00453599    0.20572541
     atom   14 type  3   force =     0.20684660    0.00386218   -0.21974745
     atom   15 type  3   force =     0.22088336    0.00369687    0.18717880
     atom   16 type  3   force =     0.19827324   -0.01896356   -0.18698332
     atom   17 type  3   force =     0.23405142   -0.01293818    0.18605591
     atom   18 type  4   force =    -0.00420349    0.05780253   -0.06070343
     atom   19 type  4   force =     0.06123768    0.00887527    0.07377349
     atom   20 type  4   force =     0.05375455   -0.01806828   -0.06065512
     atom   21 type  4   force =    -0.05438851    0.01168735    0.07631470
     atom   22 type  4   force =    -0.05757361   -0.00911356   -0.08511294
     atom   23 type  5   force =    -0.03808241   -0.01021436   -0.01385099
     The ionic contribution  to forces
     atom    1 type  1   force =    -0.26316664   -4.74693388   14.02851364
     atom    2 type  1   force =   -39.66161355   -6.16068848    0.73523893
     atom    3 type  1   force =   -39.63686855    6.18955266   -0.76795655
     atom    4 type  1   force =    39.48992486   -6.27626781    0.68532232
     atom    5 type  1   force =    39.31140391    6.49327933   -0.87966706
     atom    6 type  2   force =    -0.15414886   -3.63047644  -14.01055254
     atom    7 type  2   force =    -0.42641916    3.71596977   13.99708823
     atom    8 type  3   force =   -52.07814508    0.03185351   -0.14983742
     atom    9 type  3   force =    50.56559936   -0.36110887   -0.83684448
     atom   10 type  3   force =   -36.04323933   -2.10365363  -23.07459600
     atom   11 type  3   force =   -35.12089650   -0.87330470   22.10984029
     atom   12 type  3   force =   -35.22837246    0.82434765  -22.13706566
     atom   13 type  3   force =   -36.02416331    2.23999260   23.10561480
     atom   14 type  3   force =    35.97058715   -2.12598097  -23.11398566
     atom   15 type  3   force =    34.98472141   -0.94393157   22.18909249
     atom   16 type  3   force =    35.13674634    0.86697350  -22.19848127
     atom   17 type  3   force =    35.80670452    2.39961398   23.25905087
     atom   18 type  4   force =    -0.19515231    4.40826339  -14.00903083
     atom   19 type  4   force =   -35.88096916    0.94223544  -25.54889019
     atom   20 type  4   force =   -35.86814075   -0.97912799   25.58478083
     atom   21 type  4   force =    35.75875588    0.92364451  -25.66315180
     atom   22 type  4   force =    35.41246419   -1.07579189   26.02843524
     atom   23 type  5   force =     4.14438803    0.24153988    0.66708184
     The local contribution  to forces
     atom    1 type  1   force =     0.26236920    4.73242797  -14.05742699
     atom    2 type  1   force =    39.81660951    6.30487285   -0.75149580
     atom    3 type  1   force =    39.78617118   -6.33035518    0.79543201
     atom    4 type  1   force =   -39.65484522    6.41991953   -0.72154572
     atom    5 type  1   force =   -39.47573342   -6.62684150    0.89045949
     atom    6 type  2   force =     0.13803441    3.65574669   14.08340825
     atom    7 type  2   force =     0.43258509   -3.76163821  -14.07106730
     atom    8 type  3   force =    52.27144775   -0.03195557    0.14735817
     atom    9 type  3   force =   -50.52035984    0.40721089    0.90976186
     atom   10 type  3   force =    36.25964864    2.05293128   23.24158316
     atom   11 type  3   force =    35.34358349    0.82278490  -22.27262668
     atom   12 type  3   force =    35.44093541   -0.75153413   22.27933331
     atom   13 type  3   force =    36.23992356   -2.18853581  -23.27062081
     atom   14 type  3   force =   -36.17729698    2.07550686   23.29624115
     atom   15 type  3   force =   -35.21933775    0.89490377  -22.33987295
     atom   16 type  3   force =   -35.34041867   -0.79331080   22.35465203
     atom   17 type  3   force =   -36.05240446   -2.33550355  -23.40324197
     atom   18 type  4   force =     0.19629503   -4.42838665   14.06213555
     atom   19 type  4   force =    35.69417643   -0.95653800   25.37442611
     atom   20 type  4   force =    35.68804080    0.99654619  -25.42552307
     atom   21 type  4   force =   -35.57992122   -0.94354554   25.48808335
     atom   22 type  4   force =   -35.20760033    1.08564587  -25.85858705
     atom   23 type  5   force =    -4.13375539   -0.23454792   -0.64844304
     The core correction contribution to forces
     atom    1 type  1   force =     0.00163606    0.00028132   -0.00011759
     atom    2 type  1   force =    -0.01227982   -0.00178962   -0.00014654
     atom    3 type  1   force =    -0.01274434    0.00272618   -0.00194067
     atom    4 type  1   force =     0.01307904   -0.00259916    0.00318074
     atom    5 type  1   force =     0.01326144    0.00386926    0.00033832
     atom    6 type  2   force =    -0.00040589    0.00245723    0.00257544
     atom    7 type  2   force =     0.00090438   -0.00287407   -0.00205898
     atom    8 type  3   force =    -0.03314133    0.00074839    0.00014060
     atom    9 type  3   force =     0.01328224   -0.00477440   -0.00755248
     atom   10 type  3   force =    -0.02162187    0.00970152   -0.01615866
     atom   11 type  3   force =    -0.02418410    0.00901964    0.01809935
     atom   12 type  3   force =    -0.02194824   -0.01002789   -0.01541850
     atom   13 type  3   force =    -0.02318447   -0.00905091    0.01672511
     atom   14 type  3   force =     0.02236053    0.01010348   -0.01633432
     atom   15 type  3   force =     0.02428671    0.01027843    0.01392215
     atom   16 type  3   force =     0.02276712   -0.01134945   -0.01575118
     atom   17 type  3   force =     0.02383552   -0.00946649    0.01399311
     atom   18 type  4   force =     0.00017141   -0.00286146    0.00290740
     atom   19 type  4   force =    -0.00982124    0.00005129   -0.00957788
     atom   20 type  4   force =    -0.00951794    0.00059018    0.00887871
     atom   21 type  4   force =     0.00948463   -0.00008494   -0.00984079
     atom   22 type  4   force =     0.01014399    0.00028584    0.00984947
     atom   23 type  5   force =     0.00000000    0.00000000    0.00000000
     The Hubbard contrib.    to forces
     atom    1 type  1   force =     0.00000000    0.00000000    0.00000000
     atom    2 type  1   force =     0.00000000    0.00000000    0.00000000
     atom    3 type  1   force =     0.00000000    0.00000000    0.00000000
     atom    4 type  1   force =     0.00000000    0.00000000    0.00000000
     atom    5 type  1   force =     0.00000000    0.00000000    0.00000000
     atom    6 type  2   force =     0.00000000    0.00000000    0.00000000
     atom    7 type  2   force =     0.00000000    0.00000000    0.00000000
     atom    8 type  3   force =     0.00000000    0.00000000    0.00000000
     atom    9 type  3   force =     0.00000000    0.00000000    0.00000000
     atom   10 type  3   force =     0.00000000    0.00000000    0.00000000
     atom   11 type  3   force =     0.00000000    0.00000000    0.00000000
     atom   12 type  3   force =     0.00000000    0.00000000    0.00000000
     atom   13 type  3   force =     0.00000000    0.00000000    0.00000000
     atom   14 type  3   force =     0.00000000    0.00000000    0.00000000
     atom   15 type  3   force =     0.00000000    0.00000000    0.00000000
     atom   16 type  3   force =     0.00000000    0.00000000    0.00000000
     atom   17 type  3   force =     0.00000000    0.00000000    0.00000000
     atom   18 type  4   force =     0.00000000    0.00000000    0.00000000
     atom   19 type  4   force =     0.00000000    0.00000000    0.00000000
     atom   20 type  4   force =     0.00000000    0.00000000    0.00000000
     atom   21 type  4   force =     0.00000000    0.00000000    0.00000000
     atom   22 type  4   force =     0.00000000    0.00000000    0.00000000
     atom   23 type  5   force =     0.00000000    0.00000000    0.00000000
     The SCF correction term to forces
     atom    1 type  1   force =    -0.00128645    0.00324793    0.00378074
     atom    2 type  1   force =    -0.01146547    0.00457510   -0.00067088
     atom    3 type  1   force =    -0.01081277   -0.00593179    0.00243583
     atom    4 type  1   force =     0.01123183    0.00339230    0.00117977
     atom    5 type  1   force =     0.01117300   -0.00495731    0.00364719
     atom    6 type  2   force =    -0.00156242    0.00835401   -0.00705825
     atom    7 type  2   force =    -0.00177754    0.00177295    0.00987814
     atom    8 type  3   force =    -0.00622967    0.00065333   -0.00026719
     atom    9 type  3   force =     0.00458710    0.00121283   -0.00162160
     atom   10 type  3   force =    -0.00202755    0.00469592   -0.00380392
     atom   11 type  3   force =    -0.00483953   -0.00115991    0.00496660
     atom   12 type  3   force =    -0.00402178   -0.00565762   -0.00478456
     atom   13 type  3   force =    -0.00102944   -0.00621120    0.00373191
     atom   14 type  3   force =     0.00181921    0.00670356   -0.00375281
     atom   15 type  3   force =     0.00760717   -0.00264291    0.00350057
     atom   16 type  3   force =     0.00366054   -0.00799263   -0.00472251
     atom   17 type  3   force =     0.00303046   -0.00393315    0.00313805
     atom   18 type  4   force =    -0.00158861   -0.00605022   -0.00544386
     atom   19 type  4   force =     0.00514434    0.00081612   -0.00574345
     atom   20 type  4   force =     0.00135084    0.00516273    0.00501257
     atom   21 type  4   force =    -0.00566756    0.00123798   -0.00818068
     atom   22 type  4   force =    -0.00128898    0.00525078    0.00876408
     atom   23 type  5   force =     0.00077667    0.00030914    0.00050171

     Total force =     0.512577     Total SCF correction =     0.042518


     Computing stress (Cartesian axis) and pressure


     negative rho (up, down):  9.089E-01 9.089E-01
          total   stress  (Ry/bohr**3)                   (kbar)     P=       82.74
   0.00067322  -0.00000305   0.00000451           99.03       -0.45        0.66
  -0.00000305   0.00064829  -0.00000848           -0.45       95.37       -1.25
   0.00000451  -0.00000848   0.00036593            0.66       -1.25       53.83


     Molecular Dynamics Calculation

     Starting temperature  =   300.00 K

     temperature is set once at start

     mass Hf               =   178.49
     mass Nb               =    92.91
     mass Ta               =   180.95
     mass Zr               =    91.22
     mass H                =     2.01
     Time step             =     4.20 a.u.,  0.2032 femto-seconds

     Entering Dynamics:    iteration =     1
                           time      =   0.0002 pico-seconds


ATOMIC_POSITIONS (angstrom)
Hf            2.6701537541        2.8271667473        6.6040414529
Hf            1.2531413836        1.2863281361        5.0585431592
Hf            1.2556375983        7.3898491572        5.0881448205
Hf            4.0871663786        1.2863280634        5.0585430341
Hf            4.0846704161        7.3898491079        5.0881448419
Nb            2.6701532808        2.7969739523        3.5156604429
Nb            2.6701528617        5.8764237490        6.6350744131
Ta            1.2095236934        4.3409724115        5.0712027723
Ta            4.1307854190        4.3409724913        5.0712030966
Ta            1.3074060578        1.3141661178        2.0588544147
Ta            1.3029416752        1.3084345633        8.0946577928
Ta            1.3041630320        7.3758716231        2.0463126109
Ta            1.3078642273        7.3651282858        8.0860809364
Ta            4.0329018726        1.3141661874        2.0588544649
Ta            4.0373660683        1.3084345107        8.0946577099
Ta            4.0361448416        7.3758715662        2.0463127127
Ta            4.0324435008        7.3651284588        8.0860808747
Zr            2.6701536576        5.8663318986        3.5274603514
Zr            1.2439812604        4.3221221489        2.0000704777
Zr            1.2405318138        4.3541680113        8.1498388541
Zr            4.0963264469        4.3221220085        2.0000704348
Zr            4.0997772184        4.3541680772        8.1498383407
H             5.6069931697        4.7662039616        5.8104109431


     kinetic energy (Ekin) =          16.19702766 Ry
     temperature           =       77494.19408669 K 
     Ekin + Etot (const)   =       -2926.87009717 Ry
     Ions kinetic stress =          286.06 (kbar)
                                    643.63         185.80         321.82
                                    185.80          53.63          92.90
                                    321.82          92.90         160.91



     Linear momentum :   -0.0000000000   -0.0000000000    0.0000000000

     File outdir/pwscf.msd.dat deleted, as requested

     Writing config-only to output data dir outdir/pwscf.save/
     NEW-OLD atomic charge density approx. for the potential

     Check: negative core charge=   -0.000002

     negative rho (up, down):  9.088E-01 9.088E-01
     Generating pointlists ...
     new r_m :   0.0753 (alat units)  1.3289 (a.u.) for type    3
     new r_m :   0.0753 (alat units)  1.3289 (a.u.) for type    5

     total cpu time spent up to now is      417.4 secs

     Self-consistent Calculation

     iteration #  1     ecut=   120.00 Ry     beta= 0.70
     Davidson diagonalization with overlap
     ethr =  1.00E-06,  avg # of iterations = 15.5

     negative rho (up, down):  9.088E-01 9.088E-01

     total cpu time spent up to now is      451.7 secs

     total energy              =   -2943.05198187 Ry
     estimated scf accuracy    <       0.04148555 Ry

     total magnetization       =    -0.02 Bohr mag/cell
     absolute magnetization    =     0.03 Bohr mag/cell

     iteration #  2     ecut=   120.00 Ry     beta= 0.70
     Davidson diagonalization with overlap
     ethr =  1.50E-05,  avg # of iterations =  2.0

     negative rho (up, down):  9.089E-01 9.089E-01

     total cpu time spent up to now is      469.2 secs

     total energy              =   -2943.05532343 Ry
     estimated scf accuracy    <       0.00949424 Ry

     total magnetization       =    -0.02 Bohr mag/cell
     absolute magnetization    =     0.03 Bohr mag/cell

     iteration #  3     ecut=   120.00 Ry     beta= 0.70
     Davidson diagonalization with overlap
     ethr =  3.43E-06,  avg # of iterations =  2.0

     negative rho (up, down):  9.089E-01 9.089E-01

     total cpu time spent up to now is      485.9 secs

     total energy              =   -2943.05578784 Ry
     estimated scf accuracy    <       0.00178527 Ry

     total magnetization       =    -0.02 Bohr mag/cell
     absolute magnetization    =     0.02 Bohr mag/cell

     iteration #  4     ecut=   120.00 Ry     beta= 0.70
     Davidson diagonalization with overlap
     ethr =  6.45E-07,  avg # of iterations =  2.0

     negative rho (up, down):  9.089E-01 9.089E-01

     Magnetic moment per site  (integrated on atomic sphere of radius R)
     atom   1 (R=0.112)  charge=  9.4640  magn=  0.0000
     atom   2 (R=0.112)  charge=  9.0585  magn=  0.0001
     atom   3 (R=0.112)  charge=  9.0582  magn=  0.0002
     atom   4 (R=0.112)  charge=  9.0578  magn= -0.0001
     atom   5 (R=0.112)  charge=  9.0563  magn= -0.0001
     atom   6 (R=0.110)  charge= 10.3502  magn=  0.0001
     atom   7 (R=0.110)  charge= 10.3483  magn= -0.0000
     atom   8 (R=0.075)  charge=  6.6181  magn= -0.0000
     atom   9 (R=0.075)  charge=  6.6294  magn=  0.0001
     atom  10 (R=0.075)  charge=  6.6032  magn= -0.0002
     atom  11 (R=0.075)  charge=  6.5989  magn= -0.0001
     atom  12 (R=0.075)  charge=  6.6034  magn= -0.0002
     atom  13 (R=0.075)  charge=  6.6010  magn= -0.0000
     atom  14 (R=0.075)  charge=  6.6021  magn= -0.0002
     atom  15 (R=0.075)  charge=  6.5986  magn= -0.0002
     atom  16 (R=0.075)  charge=  6.6029  magn= -0.0005
     atom  17 (R=0.075)  charge=  6.6015  magn= -0.0000
     atom  18 (R=0.111)  charge=  9.4559  magn=  0.0001
     atom  19 (R=0.111)  charge=  9.0002  magn= -0.0011
     atom  20 (R=0.111)  charge=  8.9960  magn=  0.0001
     atom  21 (R=0.111)  charge=  8.9987  magn= -0.0013
     atom  22 (R=0.111)  charge=  8.9895  magn= -0.0001
     atom  23 (R=0.075)  charge=  0.9136  magn= -0.0000

     total cpu time spent up to now is      520.7 secs

     End of self-consistent calculation

 ------ SPIN UP ------------


          k = 0.0000 0.0000 0.0000 ( 61588 PWs)   bands (ev):

   -60.7779 -60.7623 -60.7326 -60.7155 -60.7008 -60.6815 -60.6548 -60.6391
   -60.4793 -60.2390 -54.3904 -54.3425 -54.2644 -54.2175 -52.6869 -46.2512
   -46.2492 -41.6514 -41.6259 -41.5419 -41.5252 -39.7955 -27.7770 -27.7647
   -27.6930 -27.6765 -27.5890 -27.5774 -27.4597 -27.4514 -27.3429 -27.3244
   -27.2686 -27.2647 -27.2445 -27.2296 -27.2148 -27.1640 -27.1525 -27.1149
   -27.0522 -26.9701 -26.9565 -26.9446 -26.9379 -26.9214 -26.8879 -26.8778
   -26.8721 -26.8538 -26.8419 -26.8087 -24.1727 -23.9623 -23.6589 -23.5755
   -23.3182 -23.1826 -23.1624 -23.0583 -22.9323 -22.8674 -22.8443 -22.6278
   -22.4968 -22.4470 -22.3901 -22.3453 -22.2763 -22.2275 -21.7505 -21.6839
   -21.6184 -20.1932 -19.9523 -19.8285 -19.8199 -19.6280 -19.6008 -19.5928
   -19.5716 -19.5695 -19.5288 -19.3747 -19.3664 -18.1434 -17.9357 -17.8133
     1.4317   2.7258   2.9363   3.1460   3.3041   3.4658   3.5001   3.6932
     3.7472   3.8464   3.9251   4.0486   4.2669   4.5072   4.6409   4.6874
     4.7461   4.8664   5.0553   5.0759   5.1466   5.2711   5.2961   5.3114
     5.4062   5.5645   5.5930   5.7324   5.7434   5.7600   5.7792   5.7924
     5.9381   6.1059   6.1720   6.2339   6.2749   6.3256   6.3707   6.3797
     6.4595   6.6459   6.6723   6.6984   6.8983   6.9422   7.0113   7.0502
     7.1025   7.1524   7.2699   7.3054   7.3259   7.4327   7.5542   7.5746
     7.6246   7.6898   7.8996   7.9493   8.0913   8.0941   8.1248   8.1946
     8.2575   8.3445   8.3588   8.3764   8.5017   8.5410   8.6322   8.7287
     8.7966   8.9029   8.9595   9.0686   9.1822   9.2528   9.2947

 ------ SPIN DOWN ----------


          k = 0.0000 0.0000 0.0000 ( 61588 PWs)   bands (ev):

   -60.7783 -60.7624 -60.7329 -60.7156 -60.7012 -60.6817 -60.6552 -60.6392
   -60.4793 -60.2390 -54.3904 -54.3424 -54.2644 -54.2174 -52.6869 -46.2512
   -46.2492 -41.6515 -41.6271 -41.5419 -41.5264 -39.7953 -27.7776 -27.7648
   -27.6936 -27.6766 -27.5895 -27.5775 -27.4602 -27.4516 -27.3432 -27.3247
   -27.2687 -27.2651 -27.2447 -27.2301 -27.2149 -27.1645 -27.1527 -27.1150
   -27.0522 -26.9703 -26.9570 -26.9447 -26.9383 -26.9217 -26.8880 -26.8782
   -26.8723 -26.8544 -26.8420 -26.8087 -24.1725 -23.9621 -23.6588 -23.5754
   -23.3182 -23.1825 -23.1623 -23.0583 -22.9322 -22.8673 -22.8442 -22.6277
   -22.4968 -22.4469 -22.3900 -22.3452 -22.2763 -22.2274 -21.7505 -21.6839
   -21.6184 -20.1945 -19.9521 -19.8299 -19.8209 -19.6281 -19.6010 -19.5937
   -19.5724 -19.5700 -19.5288 -19.3747 -19.3680 -18.1433 -17.9356 -17.8134
     1.4315   2.7257   2.9357   3.1459   3.3040   3.4653   3.4998   3.6930
     3.7469   3.8463   3.9246   4.0482   4.2667   4.5070   4.6407   4.6872
     4.7457   4.8659   5.0547   5.0755   5.1462   5.2707   5.2959   5.3112
     5.4057   5.5642   5.5928   5.7320   5.7427   5.7597   5.7791   5.7920
     5.9379   6.1053   6.1716   6.2336   6.2747   6.3253   6.3704   6.3792
     6.4589   6.6456   6.6719   6.6981   6.8976   6.9416   7.0100   7.0495
     7.1008   7.1514   7.2687   7.3039   7.3255   7.4312   7.5539   7.5728
     7.6238   7.6892   7.8993   7.9490   8.0904   8.0935   8.1243   8.1937
     8.2564   8.3441   8.3579   8.3758   8.5012   8.5403   8.6317   8.7281
     8.7962   8.9016   8.9589   9.0680   9.1818   9.2523   9.2799

     the Fermi energy is     7.2422 ev

!    total energy              =   -2943.05568068 Ry
     estimated scf accuracy    <       0.00051541 Ry
     smearing contrib. (-TS)   =      -0.10094549 Ry
     internal energy E=F+TS    =   -2942.95473518 Ry

     total magnetization       =    -0.02 Bohr mag/cell
     absolute magnetization    =     0.02 Bohr mag/cell

     convergence has been achieved in   4 iterations

     negative rho (up, down):  9.089E-01 9.089E-01

     Forces acting on atoms (cartesian axes, Ry/au):

     atom    1 type  1   force =    -0.00519433   -0.02207101    0.00868765
     atom    2 type  1   force =    -0.11828324   -0.01573796   -0.00471367
     atom    3 type  1   force =    -0.11803115    0.01264473   -0.00040161
     atom    4 type  1   force =     0.11518289   -0.01735432   -0.00896552
     atom    5 type  1   force =     0.12273240    0.01114099    0.00069682
     atom    6 type  2   force =    -0.01251662   -0.02167831    0.00307779
     atom    7 type  2   force =    -0.01854890    0.01158686   -0.00730371
     atom    8 type  3   force =    -0.12323574    0.00518431    0.00021835
     atom    9 type  3   force =     0.08669378   -0.01892026   -0.03862442
     atom   10 type  3   force =    -0.01976597   -0.03063701   -0.05740935
     atom   11 type  3   force =    -0.02374317   -0.03486707    0.05893497
     atom   12 type  3   force =    -0.01951628    0.03462808   -0.05456333
     atom   13 type  3   force =    -0.02005140    0.02865698    0.06382896
     atom   14 type  3   force =     0.02402154   -0.02792489   -0.05628682
     atom   15 type  3   force =     0.02130055   -0.03762476    0.05590200
     atom   16 type  3   force =     0.02131195    0.03235870   -0.05084095
     atom   17 type  3   force =     0.01652109    0.03572978    0.06154171
     atom   18 type  4   force =    -0.00435039    0.02942965   -0.01258663
     atom   19 type  4   force =    -0.12813756   -0.00348989   -0.11538263
     atom   20 type  4   force =    -0.13336665    0.00578234    0.11438987
     atom   21 type  4   force =     0.12575002   -0.00604574   -0.11748278
     atom   22 type  4   force =     0.14720266    0.00688712    0.10896590
     atom   23 type  5   force =     0.06402451    0.02232169    0.04831741
     The non-local contrib.  to forces
     atom    1 type  1   force =    -0.00535759   -0.01286203    0.03417385
     atom    2 type  1   force =    -0.24639513   -0.16279947    0.01386082
     atom    3 type  1   force =    -0.24126962    0.15710605   -0.02713031
     atom    4 type  1   force =     0.25261342   -0.16314039    0.02350856
     atom    5 type  1   force =     0.25931906    0.14721746   -0.01616724
     atom    6 type  2   force =     0.00852349   -0.05816234   -0.06660828
     atom    7 type  2   force =    -0.02189075    0.05771163    0.05769807
     atom    8 type  3   force =    -0.26372755    0.00196435   -0.00244681
     atom    9 type  3   force =     0.04006606   -0.05355625   -0.09186191
     atom   10 type  3   force =    -0.21100487    0.00351492   -0.20829500
     atom   11 type  3   force =    -0.21521147    0.00922247    0.19689077
     atom   12 type  3   force =    -0.20345450   -0.02152035   -0.17799859
     atom   13 type  3   force =    -0.20768705   -0.00847771    0.20653828
     atom   14 type  3   force =     0.20381213    0.00462859   -0.21976956
     atom   15 type  3   force =     0.22060170    0.00295574    0.18850215
     atom   16 type  3   force =     0.19581306   -0.02093422   -0.18645474
     atom   17 type  3   force =     0.22765587   -0.01031438    0.19335537
     atom   18 type  4   force =    -0.00504675    0.05733514   -0.06503352
     atom   19 type  4   force =     0.06364229    0.00991968    0.07301382
     atom   20 type  4   force =     0.05406004   -0.01609666   -0.05987466
     atom   21 type  4   force =    -0.05615512    0.01225265    0.07549863
     atom   22 type  4   force =    -0.05994189   -0.00918683   -0.07589276
     atom   23 type  5   force =    -0.06100948   -0.01742223   -0.02663526
     The ionic contribution  to forces
     atom    1 type  1   force =    -0.31616629   -4.78074870   14.06002782
     atom    2 type  1   force =   -39.68615442   -6.16689284    0.74020863
     atom    3 type  1   force =   -39.67054245    6.19171890   -0.76078982
     atom    4 type  1   force =    39.48845566   -6.32003491    0.68745256
     atom    5 type  1   force =    39.32195372    6.55159973   -0.87037384
     atom    6 type  2   force =    -0.19293690   -3.65442094  -14.03754906
     atom    7 type  2   force =    -0.49509700    3.75850162   14.04328202
     atom    8 type  3   force =   -52.15015487    0.03578333   -0.14103226
     atom    9 type  3   force =    49.96127898   -0.53409852   -1.13578321
     atom   10 type  3   force =   -36.05521116   -2.10688581  -23.08091536
     atom   11 type  3   force =   -35.13952004   -0.87602007   22.11295731
     atom   12 type  3   force =   -35.24246584    0.82587130  -22.14317438
     atom   13 type  3   force =   -36.04790341    2.23783947   23.10700823
     atom   14 type  3   force =    35.97128850   -2.13644370  -23.13085626
     atom   15 type  3   force =    34.99402977   -0.95775020   22.20493235
     atom   16 type  3   force =    35.13921027    0.87718826  -22.21752277
     atom   17 type  3   force =    35.83320635    2.40103933   23.27024269
     atom   18 type  4   force =    -0.23978398    4.43172675  -14.04002051
     atom   19 type  4   force =   -35.89966148    0.94356531  -25.55806284
     atom   20 type  4   force =   -35.90586552   -0.97500723   25.58841567
     atom   21 type  4   force =    35.75534135    0.92307563  -25.70855283
     atom   22 type  4   force =    35.44861292   -1.06422268   26.09807448
     atom   23 type  5   force =     5.12808584    0.39461596    0.91203139
     The local contribution  to forces
     atom    1 type  1   force =     0.31499464    4.77598143  -14.09744821
     atom    2 type  1   force =    39.82254818    6.31534955   -0.77160543
     atom    3 type  1   force =    39.80221647   -6.33840723    0.77539735
     atom    4 type  1   force =   -39.63763451    6.47087510   -0.73575054
     atom    5 type  1   force =   -39.47278106   -6.69141333    0.87179691
     atom    6 type  2   force =     0.17341353    3.68964484   14.08988504
     atom    7 type  2   force =     0.49551993   -3.80561004  -14.11663027
     atom    8 type  3   force =    52.32294989   -0.03287457    0.12863492
     atom    9 type  3   force =   -49.91574064    0.57771053    1.18885579
     atom   10 type  3   force =    36.26511183    2.06210088   23.24725845
     atom   11 type  3   force =    35.34574114    0.82607182  -22.26424456
     atom   12 type  3   force =    35.44698725   -0.76325980   22.27968013
     atom   13 type  3   force =    36.24970737   -2.19919576  -23.25808744
     atom   14 type  3   force =   -36.17262149    2.09287085   23.30918831
     atom   15 type  3   force =   -35.20987774    0.90941590  -22.34660941
     atom   16 type  3   force =   -35.33714901   -0.81601471   22.36630160
     atom   17 type  3   force =   -36.06328601   -2.35025115  -23.40685936
     atom   18 type  4   force =     0.24098789   -4.45628000   14.07244427
     atom   19 type  4   force =    35.71990183   -0.95337494   25.37567127
     atom   20 type  4   force =    35.72533100    0.99932746  -25.41360474
     atom   21 type  4   force =   -35.58677520   -0.93781221   25.52387663
     atom   22 type  4   force =   -35.25968837    1.08055220  -25.91121178
     atom   23 type  5   force =    -5.00701311   -0.35579430   -0.84113584
     The core correction contribution to forces
     atom    1 type  1   force =     0.00173747    0.00013368   -0.00034450
     atom    2 type  1   force =    -0.01223216   -0.00179078    0.00000083
     atom    3 type  1   force =    -0.01264136    0.00278715   -0.00182076
     atom    4 type  1   force =     0.01287848   -0.00268179    0.00301566
     atom    5 type  1   force =     0.01325514    0.00353467    0.00009866
     atom    6 type  2   force =    -0.00041377    0.00272530    0.00281758
     atom    7 type  2   force =     0.00079477   -0.00280805   -0.00208088
     atom    8 type  3   force =    -0.03213992    0.00068678    0.00007607
     atom    9 type  3   force =     0.00815055   -0.00610407   -0.01143464
     atom   10 type  3   force =    -0.02121732    0.00966222   -0.01602838
     atom   11 type  3   force =    -0.02437409    0.00916343    0.01814648
     atom   12 type  3   force =    -0.02177850   -0.01013186   -0.01529158
     atom   13 type  3   force =    -0.02311120   -0.00916354    0.01668632
     atom   14 type  3   force =     0.02221806    0.00991501   -0.01633182
     atom   15 type  3   force =     0.02415413    0.01023187    0.01407964
     atom   16 type  3   force =     0.02254626   -0.01127699   -0.01561946
     atom   17 type  3   force =     0.02332399   -0.00925755    0.01455261
     atom   18 type  4   force =     0.00026052   -0.00290105    0.00306990
     atom   19 type  4   force =    -0.00987772    0.00003063   -0.00963139
     atom   20 type  4   force =    -0.00951981    0.00053528    0.00892248
     atom   21 type  4   force =     0.00948018   -0.00008397   -0.00989689
     atom   22 type  4   force =     0.01022975    0.00031967    0.00944420
     atom   23 type  5   force =     0.00000000    0.00000000    0.00000000
     The Hubbard contrib.    to forces
     atom    1 type  1   force =     0.00000000    0.00000000    0.00000000
     atom    2 type  1   force =     0.00000000    0.00000000    0.00000000
     atom    3 type  1   force =     0.00000000    0.00000000    0.00000000
     atom    4 type  1   force =     0.00000000    0.00000000    0.00000000
     atom    5 type  1   force =     0.00000000    0.00000000    0.00000000
     atom    6 type  2   force =     0.00000000    0.00000000    0.00000000
     atom    7 type  2   force =     0.00000000    0.00000000    0.00000000
     atom    8 type  3   force =     0.00000000    0.00000000    0.00000000
     atom    9 type  3   force =     0.00000000    0.00000000    0.00000000
     atom   10 type  3   force =     0.00000000    0.00000000    0.00000000
     atom   11 type  3   force =     0.00000000    0.00000000    0.00000000
     atom   12 type  3   force =     0.00000000    0.00000000    0.00000000
     atom   13 type  3   force =     0.00000000    0.00000000    0.00000000
     atom   14 type  3   force =     0.00000000    0.00000000    0.00000000
     atom   15 type  3   force =     0.00000000    0.00000000    0.00000000
     atom   16 type  3   force =     0.00000000    0.00000000    0.00000000
     atom   17 type  3   force =     0.00000000    0.00000000    0.00000000
     atom   18 type  4   force =     0.00000000    0.00000000    0.00000000
     atom   19 type  4   force =     0.00000000    0.00000000    0.00000000
     atom   20 type  4   force =     0.00000000    0.00000000    0.00000000
     atom   21 type  4   force =     0.00000000    0.00000000    0.00000000
     atom   22 type  4   force =     0.00000000    0.00000000    0.00000000
     atom   23 type  5   force =     0.00000000    0.00000000    0.00000000
     The SCF correction term to forces
     atom    1 type  1   force =    -0.00057688   -0.00452023    0.01127635
     atom    2 type  1   force =     0.00377597    0.00045075    0.01181914
     atom    3 type  1   force =     0.00403149   -0.00050497    0.01293959
     atom    4 type  1   force =    -0.00130447   -0.00231716    0.01180590
     atom    5 type  1   force =     0.00081122    0.00025763    0.01433998
     atom    6 type  2   force =    -0.00127729   -0.00140999    0.01353016
     atom    7 type  2   force =     0.00194984    0.00384687    0.00942500
     atom    8 type  3   force =    -0.00033761   -0.00032041    0.01398409
     atom    9 type  3   force =    -0.00723550   -0.00281678    0.01059720
     atom   10 type  3   force =     0.00238124    0.00102594   -0.00043140
     atom   11 type  3   force =     0.00944697   -0.00324955   -0.00581738
     atom   12 type  3   force =     0.00102099    0.00372397    0.00121875
     atom   13 type  3   force =     0.00876857    0.00770968   -0.00931878
     atom   14 type  3   force =    -0.00084998    0.00115953    0.00048016
     atom   15 type  3   force =    -0.00778162   -0.00242291   -0.00600507
     atom   16 type  3   force =     0.00071704    0.00345153    0.00145209
     atom   17 type  3   force =    -0.00455342    0.00456870   -0.01075193
     atom   18 type  4   force =    -0.00094239   -0.00039602    0.01595089
     atom   19 type  4   force =    -0.00231681   -0.00357539    0.00262417
     atom   20 type  4   force =     0.00245332   -0.00292135   -0.01047122
     atom   21 type  4   force =     0.00368449   -0.00342267    0.00058933
     atom   22 type  4   force =     0.00781593   -0.00052007   -0.01245057
     atom   23 type  5   force =     0.00378694    0.00097743    0.00305478

     Total force =     0.504051     Total SCF correction =     0.053191
     SCF correction compared to forces is large: reduce conv_thr to get better values


     Computing stress (Cartesian axis) and pressure


     negative rho (up, down):  9.089E-01 9.089E-01
          total   stress  (Ry/bohr**3)                   (kbar)     P=       86.43
   0.00071963   0.00000949   0.00002202          105.86        1.40        3.24
   0.00000949   0.00066688  -0.00000371            1.40       98.10       -0.55
   0.00002202  -0.00000371   0.00037604            3.24       -0.55       55.32


     Entering Dynamics:    iteration =     2
                           time      =   0.0004 pico-seconds


ATOMIC_POSITIONS (angstrom)
Hf            2.6703072532        2.8272091989        6.6041191857
Hf            1.2532853000        1.2863711877        5.0586198219
Hf            1.2557815255        7.3898947451        5.0882218506
Hf            4.0873301326        1.2863709496        5.0586193277
Hf            4.0848348592        7.3898945603        5.0882219563
Nb            2.6703052248        2.7970149094        3.5157380085
Nb            2.6703037216        5.8764700990        6.6351500778
Ta            1.2096673556        4.3410172649        5.0712797247
Ta            4.1309488869        4.3410160601        5.0712781747
Ta            1.3075583127        1.3142079120        2.0589264698
Ta            1.3030936923        1.3084760171        8.0947397189
Ta            1.3043153372        7.3759190821        2.0463849536
Ta            1.3080165214        7.3651752452        8.0861632647
Ta            4.0330578749        1.3142082049        2.0589266339
Ta            4.0375217424        1.3084757559        8.0947393814
Ta            4.0363005975        7.3759188398        2.0463853681
Ta            4.0325988211        7.3651759916        8.0861630119
Zr            2.6703068697        5.8663812579        3.5275353594
Zr            1.2441135160        4.3221659415        2.0001280014
Zr            1.2406632420        4.3542133873        8.1499350013
Zr            4.0965017167        4.3221653738        2.0001276800
Zr            4.0999564618        4.3542136432        8.1499333656
H             5.3516342528        4.6925214838        5.6828623926


     kinetic energy (Ekin) =          16.18019623 Ry
     temperature           =       77413.66462270 K 
     Ekin + Etot (const)   =       -2926.87548445 Ry
     Ions kinetic stress =          285.76 (kbar)
                                    643.15         185.60         321.35
                                    185.60          53.56          92.74
                                    321.35          92.74         160.56



     Linear momentum :   -0.0000000000   -0.0000000000    0.0000000000

     Writing config-only to output data dir outdir/pwscf.save/
     NEW-OLD atomic charge density approx. for the potential

     Check: negative core charge=   -0.000002

     negative rho (up, down):  9.087E-01 9.087E-01
     Generating pointlists ...
     new r_m :   0.0623 (alat units)  1.0990 (a.u.) for type    3
     new r_m :   0.0623 (alat units)  1.0990 (a.u.) for type    5

     total cpu time spent up to now is      574.1 secs

     Self-consistent Calculation

     iteration #  1     ecut=   120.00 Ry     beta= 0.70
     Davidson diagonalization with overlap
     c_bands:  1 eigenvalues not converged
     ethr =  1.00E-06,  avg # of iterations = 18.0

     negative rho (up, down):  9.090E-01 9.090E-01

     total cpu time spent up to now is      613.6 secs

     total energy              =   -2942.91897375 Ry
     estimated scf accuracy    <       0.17724675 Ry

     total magnetization       =    -0.02 Bohr mag/cell
     absolute magnetization    =     0.02 Bohr mag/cell

     iteration #  2     ecut=   120.00 Ry     beta= 0.70
     Davidson diagonalization with overlap
     ethr =  6.40E-05,  avg # of iterations =  2.0

     negative rho (up, down):  9.088E-01 9.088E-01

     total cpu time spent up to now is      630.9 secs

     total energy              =   -2942.93304109 Ry
     estimated scf accuracy    <       0.08920483 Ry

     total magnetization       =    -0.02 Bohr mag/cell
     absolute magnetization    =     0.02 Bohr mag/cell

     iteration #  3     ecut=   120.00 Ry     beta= 0.70
     Davidson diagonalization with overlap
     ethr =  3.22E-05,  avg # of iterations =  1.0

     negative rho (up, down):  9.087E-01 9.087E-01

     total cpu time spent up to now is      647.0 secs

     total energy              =   -2942.93764481 Ry
     estimated scf accuracy    <       0.00498841 Ry

     total magnetization       =    -0.01 Bohr mag/cell
     absolute magnetization    =     0.02 Bohr mag/cell

     iteration #  4     ecut=   120.00 Ry     beta= 0.70
     Davidson diagonalization with overlap
     c_bands:  1 eigenvalues not converged
     ethr =  1.80E-06,  avg # of iterations = 16.0

     negative rho (up, down):  9.085E-01 9.085E-01

     Magnetic moment per site  (integrated on atomic sphere of radius R)
     atom   1 (R=0.112)  charge=  9.4655  magn=  0.0000
     atom   2 (R=0.112)  charge=  9.0590  magn= -0.0000
     atom   3 (R=0.112)  charge=  9.0592  magn= -0.0000
     atom   4 (R=0.112)  charge=  9.0586  magn= -0.0000
     atom   5 (R=0.112)  charge=  9.0578  magn=  0.0000
     atom   6 (R=0.110)  charge= 10.3510  magn= -0.0001
     atom   7 (R=0.110)  charge= 10.3481  magn= -0.0000
     atom   8 (R=0.062)  charge=  4.5386  magn=  0.0000
     atom   9 (R=0.062)  charge=  4.5630  magn= -0.0000
     atom  10 (R=0.062)  charge=  4.5252  magn= -0.0000
     atom  11 (R=0.062)  charge=  4.5256  magn= -0.0001
     atom  12 (R=0.062)  charge=  4.5245  magn= -0.0000
     atom  13 (R=0.062)  charge=  4.5252  magn= -0.0000
     atom  14 (R=0.062)  charge=  4.5247  magn= -0.0001
     atom  15 (R=0.062)  charge=  4.5236  magn= -0.0001
     atom  16 (R=0.062)  charge=  4.5212  magn= -0.0002
     atom  17 (R=0.062)  charge=  4.5255  magn= -0.0001
     atom  18 (R=0.111)  charge=  9.4571  magn= -0.0000
     atom  19 (R=0.111)  charge=  8.9964  magn= -0.0008
     atom  20 (R=0.111)  charge=  9.0002  magn=  0.0000
     atom  21 (R=0.111)  charge=  8.9962  magn= -0.0007
     atom  22 (R=0.111)  charge=  8.9949  magn= -0.0001
     atom  23 (R=0.062)  charge=  0.8619  magn=  0.0000

     total cpu time spent up to now is      685.9 secs

     End of self-consistent calculation

 ------ SPIN UP ------------


          k = 0.0000 0.0000 0.0000 ( 61588 PWs)   bands (ev):

   -60.7803 -60.7714 -60.7342 -60.7262 -60.7017 -60.6941 -60.6546 -60.6519
   -60.4655 -60.0415 -54.3870 -54.3414 -54.2615 -54.2162 -52.6868 -46.2752
   -46.2474 -41.6522 -41.6237 -41.5425 -41.5222 -39.8157 -27.7793 -27.7733
   -27.6938 -27.6862 -27.5944 -27.5853 -27.4680 -27.4568 -27.3473 -27.3295
   -27.2740 -27.2657 -27.2545 -27.2303 -27.2231 -27.1645 -27.1619 -27.1084
   -27.0406 -26.9602 -26.9527 -26.9485 -26.9394 -26.8979 -26.8864 -26.8783
   -26.8572 -26.8550 -26.7696 -26.7105 -24.1723 -23.9604 -23.6619 -23.5762
   -23.3188 -23.1825 -23.1618 -23.0578 -22.9326 -22.8677 -22.8440 -22.6274
   -22.5137 -22.4548 -22.3942 -22.3480 -22.2833 -22.2314 -21.7506 -21.6833
   -21.6185 -20.1933 -19.9522 -19.8286 -19.8170 -19.6293 -19.6012 -19.5936
   -19.5744 -19.5677 -19.5294 -19.3750 -19.3634 -18.1637 -17.9502 -17.8292
     1.3402   2.3547   2.9325   3.1422   3.2900   3.4659   3.4890   3.6921
     3.7308   3.8632   3.9215   4.0395   4.2579   4.4736   4.6196   4.6860
     4.7368   4.8575   5.0515   5.0678   5.1548   5.2711   5.2878   5.3140
     5.4048   5.5599   5.6036   5.7341   5.7404   5.7573   5.7810   5.7973
     5.9313   6.1049   6.1720   6.2333   6.2695   6.3337   6.3667   6.3706
     6.4543   6.6497   6.6721   6.7028   6.9049   6.9480   7.0047   7.0515
     7.1027   7.1528   7.2597   7.2820   7.3248   7.4301   7.5521   7.5605
     7.6230   7.6819   7.8973   7.9520   8.0868   8.0880   8.1220   8.1855
     8.2560   8.3388   8.3547   8.3757   8.5057   8.5429   8.6332   8.7261
     8.8020   8.9015   8.9735   9.0654   9.1551   9.2615   9.2981

 ------ SPIN DOWN ----------


          k = 0.0000 0.0000 0.0000 ( 61588 PWs)   bands (ev):

   -60.7807 -60.7714 -60.7345 -60.7263 -60.7021 -60.6942 -60.6549 -60.6520
   -60.4656 -60.0415 -54.3870 -54.3414 -54.2615 -54.2162 -52.6868 -46.2751
   -46.2475 -41.6523 -41.6244 -41.5424 -41.5229 -39.8157 -27.7797 -27.7735
   -27.6942 -27.6864 -27.5948 -27.5855 -27.4682 -27.4573 -27.3475 -27.3297
   -27.2741 -27.2660 -27.2546 -27.2306 -27.2233 -27.1647 -27.1622 -27.1086
   -27.0407 -26.9606 -26.9529 -26.9487 -26.9399 -26.8981 -26.8866 -26.8787
   -26.8574 -26.8555 -26.7697 -26.7106 -24.1722 -23.9604 -23.6619 -23.5762
   -23.3188 -23.1825 -23.1619 -23.0578 -22.9326 -22.8677 -22.8439 -22.6273
   -22.5137 -22.4548 -22.3942 -22.3480 -22.2833 -22.2314 -21.7507 -21.6833
   -21.6186 -20.1941 -19.9521 -19.8295 -19.8177 -19.6294 -19.6014 -19.5941
   -19.5744 -19.5684 -19.5294 -19.3750 -19.3644 -18.1637 -17.9503 -17.8293
     1.3400   2.3546   2.9320   3.1420   3.2899   3.4655   3.4887   3.6919
     3.7306   3.8630   3.9211   4.0391   4.2576   4.4734   4.6195   4.6858
     4.7364   4.8571   5.0510   5.0675   5.1544   5.2707   5.2876   5.3138
     5.4043   5.5596   5.6034   5.7337   5.7401   5.7569   5.7806   5.7972
     5.9312   6.1044   6.1716   6.2330   6.2693   6.3334   6.3665   6.3703
     6.4538   6.6494   6.6718   6.7025   6.9043   6.9475   7.0037   7.0509
     7.1012   7.1520   7.2585   7.2810   7.3245   7.4287   7.5508   7.5601
     7.6223   7.6814   7.8970   7.9517   8.0862   8.0873   8.1215   8.1847
     8.2550   8.3385   8.3538   8.3752   8.5053   8.5422   8.6328   8.7256
     8.8015   8.9004   8.9729   9.0654   9.1546   9.2609   9.2798

     the Fermi energy is     7.2375 ev

!    total energy              =   -2942.93749743 Ry
     estimated scf accuracy    <       0.00082855 Ry
     smearing contrib. (-TS)   =      -0.10238657 Ry
     internal energy E=F+TS    =   -2942.83511086 Ry

     total magnetization       =    -0.01 Bohr mag/cell
     absolute magnetization    =     0.02 Bohr mag/cell

     convergence has been achieved in   4 iterations

     negative rho (up, down):  9.085E-01 9.085E-01

     Forces acting on atoms (cartesian axes, Ry/au):

     atom    1 type  1   force =    -0.00467766   -0.02653944    0.01688409
     atom    2 type  1   force =    -0.11530700   -0.01706088    0.00609653
     atom    3 type  1   force =    -0.11500522    0.01442400    0.00956169
     atom    4 type  1   force =     0.11184550   -0.01936757    0.00133750
     atom    5 type  1   force =     0.11913434    0.01529733    0.01148660
     atom    6 type  2   force =    -0.01149761   -0.02261608    0.00044239
     atom    7 type  2   force =    -0.01620429    0.01206300   -0.00879859
     atom    8 type  3   force =    -0.13045721    0.00691358    0.00740120
     atom    9 type  3   force =    -0.17711576   -0.10044107   -0.18286735
     atom   10 type  3   force =    -0.01784307   -0.02929817   -0.05866586
     atom   11 type  3   force =    -0.02060358   -0.03580973    0.05267796
     atom   12 type  3   force =    -0.01855561    0.03474518   -0.05636341
     atom   13 type  3   force =    -0.01795308    0.03167282    0.05692190
     atom   14 type  3   force =     0.02265039   -0.02675623   -0.05845549
     atom   15 type  3   force =     0.01859229   -0.03875164    0.05022262
     atom   16 type  3   force =     0.02107987    0.03296804   -0.05333248
     atom   17 type  3   force =     0.01525378    0.03750348    0.05463083
     atom   18 type  4   force =    -0.00361434    0.03115391   -0.01107353
     atom   19 type  4   force =    -0.12846920   -0.00428919   -0.11606999
     atom   20 type  4   force =    -0.13222398    0.00381754    0.10789357
     atom   21 type  4   force =     0.12679302   -0.00662422   -0.12057195
     atom   22 type  4   force =     0.13976140    0.00578245    0.10812390
     atom   23 type  5   force =     0.33441700    0.10121290    0.18251786
     The non-local contrib.  to forces
     atom    1 type  1   force =    -0.00531022   -0.01337606    0.03896757
     atom    2 type  1   force =    -0.24407286   -0.16411228    0.02076121
     atom    3 type  1   force =    -0.23910751    0.15832746   -0.02106712
     atom    4 type  1   force =     0.24907065   -0.16516781    0.02849011
     atom    5 type  1   force =     0.25379739    0.15145365   -0.01404875
     atom    6 type  2   force =     0.01037082   -0.06051810   -0.06785302
     atom    7 type  2   force =    -0.01917071    0.05705030    0.05882382
     atom    8 type  3   force =    -0.25165579    0.00036630   -0.00060623
     atom    9 type  3   force =     0.08668338   -0.04419470   -0.07943351
     atom   10 type  3   force =    -0.21180143    0.00343965   -0.21234960
     atom   11 type  3   force =    -0.21245827    0.01080341    0.19312976
     atom   12 type  3   force =    -0.20410029   -0.02207705   -0.17975086
     atom   13 type  3   force =    -0.20371352   -0.00832046    0.20222879
     atom   14 type  3   force =     0.20402110    0.00490345   -0.22072534
     atom   15 type  3   force =     0.21679449    0.00083542    0.18683500
     atom   16 type  3   force =     0.19674586   -0.02027146   -0.18628617
     atom   17 type  3   force =     0.21895875   -0.00376157    0.19682603
     atom   18 type  4   force =    -0.00603685    0.05869988   -0.06292815
     atom   19 type  4   force =     0.06518148    0.00944296    0.07500154
     atom   20 type  4   force =     0.05549447   -0.01617342   -0.06516104
     atom   21 type  4   force =    -0.05745277    0.01132592    0.07702560
     atom   22 type  4   force =    -0.06083420   -0.01104048   -0.07111664
     atom   23 type  5   force =    -0.10205977   -0.03035607   -0.04969165
     The ionic contribution  to forces
     atom    1 type  1   force =    -0.36959454   -4.82127525   14.10169680
     atom    2 type  1   force =   -39.71196992   -6.17526448    0.74505291
     atom    3 type  1   force =   -39.70285713    6.19682541   -0.75415025
     atom    4 type  1   force =    39.49298074   -6.37055792    0.69228469
     atom    5 type  1   force =    39.34793898    6.60461453   -0.85391584
     atom    6 type  2   force =    -0.23664746   -3.68576555  -14.07182060
     atom    7 type  2   force =    -0.55542800    3.80998411   14.10083719
     atom    8 type  3   force =   -52.22832154    0.03869948   -0.13393794
     atom    9 type  3   force =    48.94795519   -0.82514280   -1.64061618
     atom   10 type  3   force =   -36.06785111   -2.11087967  -23.08799000
     atom   11 type  3   force =   -35.15666511   -0.87948211   22.11689196
     atom   12 type  3   force =   -35.25673146    0.82820012  -22.14999554
     atom   13 type  3   force =   -36.06767131    2.23709677   23.10949125
     atom   14 type  3   force =    35.97395551   -2.14867695  -23.14888722
     atom   15 type  3   force =    35.00711167   -0.96978786   22.21945043
     atom   16 type  3   force =    35.14446742    0.88801938  -22.23610515
     atom   17 type  3   force =    35.86343472    2.39673389   23.27548658
     atom   18 type  4   force =    -0.28756130    4.46336080  -14.07767932
     atom   19 type  4   force =   -35.92004537    0.94480311  -25.56904769
     atom   20 type  4   force =   -35.93917348   -0.97150730   25.59496175
     atom   21 type  4   force =    35.75541137    0.92329987  -25.76027627
     atom   22 type  4   force =    35.50531500   -1.04725821   26.14962569
     atom   23 type  5   force =     6.46194715    0.67396062    1.37864276
     The local contribution  to forces
     atom    1 type  1   force =     0.36546110    4.79806452  -14.10459999
     atom    2 type  1   force =    39.85755273    6.31989151   -0.73461502
     atom    3 type  1   force =    39.84405970   -6.33791173    0.80958095
     atom    4 type  1   force =   -39.65084212    6.51563152   -0.69737409
     atom    5 type  1   force =   -39.50494916   -6.73740370    0.90364211
     atom    6 type  2   force =     0.21251126    3.71061005   14.15119887
     atom    7 type  2   force =     0.55526405   -3.84530179  -14.14923975
     atom    8 type  3   force =    52.37786760   -0.03277265    0.17049805
     atom    9 type  3   force =   -49.22213599    0.77735948    1.58496448
     atom   10 type  3   force =    36.28795418    2.07271167   23.25915619
     atom   11 type  3   force =    35.38095344    0.82164804  -22.28775840
     atom   12 type  3   force =    35.46856819   -0.76106614   22.29275513
     atom   13 type  3   force =    36.28178029   -2.17772326  -23.28354093
     atom   14 type  3   force =   -36.18316621    2.10789067   23.32548456
     atom   15 type  3   force =   -35.23862326    0.91436029  -22.37990553
     atom   16 type  3   force =   -35.34608363   -0.82151942   22.38501556
     atom   17 type  3   force =   -36.09415691   -2.33562664  -23.44339632
     atom   18 type  4   force =     0.28741787   -4.48244167   14.14204887
     atom   19 type  4   force =    35.73803657   -0.96130293   25.38898534
     atom   20 type  4   force =    35.76347326    0.98535694  -25.44045999
     atom   21 type  4   force =   -35.58431939   -0.94304494   25.57185937
     atom   22 type  4   force =   -35.32659508    1.05944696  -25.98352620
     atom   23 type  5   force =    -6.03060890   -0.54314821   -1.14459105
     The core correction contribution to forces
     atom    1 type  1   force =     0.00182022    0.00008736   -0.00074128
     atom    2 type  1   force =    -0.01213746   -0.00195438    0.00018242
     atom    3 type  1   force =    -0.01243326    0.00288338   -0.00177124
     atom    4 type  1   force =     0.01253222   -0.00291529    0.00256392
     atom    5 type  1   force =     0.01317646    0.00330909   -0.00040755
     atom    6 type  2   force =    -0.00035980    0.00310604    0.00312693
     atom    7 type  2   force =     0.00069141   -0.00277857   -0.00212075
     atom    8 type  3   force =    -0.03088899    0.00058366   -0.00002046
     atom    9 type  3   force =     0.00824413   -0.00601568   -0.01408416
     atom   10 type  3   force =    -0.02106549    0.00953346   -0.01610757
     atom   11 type  3   force =    -0.02440011    0.00922200    0.01813449
     atom   12 type  3   force =    -0.02182992   -0.01022373   -0.01547650
     atom   13 type  3   force =    -0.02297639   -0.00934476    0.01653180
     atom   14 type  3   force =     0.02236511    0.00969251   -0.01649555
     atom   15 type  3   force =     0.02385737    0.01001309    0.01439034
     atom   16 type  3   force =     0.02254077   -0.01108842   -0.01573584
     atom   17 type  3   force =     0.02248314   -0.00891907    0.01532325
     atom   18 type  4   force =     0.00036006   -0.00301525    0.00321907
     atom   19 type  4   force =    -0.00994365    0.00001030   -0.00973209
     atom   20 type  4   force =    -0.00958948    0.00048922    0.00908444
     atom   21 type  4   force =     0.00952505   -0.00007638   -0.00999059
     atom   22 type  4   force =     0.01025314    0.00036462    0.00910457
     atom   23 type  5   force =     0.00000000    0.00000000    0.00000000
     The Hubbard contrib.    to forces
     atom    1 type  1   force =     0.00000000    0.00000000    0.00000000
     atom    2 type  1   force =     0.00000000    0.00000000    0.00000000
     atom    3 type  1   force =     0.00000000    0.00000000    0.00000000
     atom    4 type  1   force =     0.00000000    0.00000000    0.00000000
     atom    5 type  1   force =     0.00000000    0.00000000    0.00000000
     atom    6 type  2   force =     0.00000000    0.00000000    0.00000000
     atom    7 type  2   force =     0.00000000    0.00000000    0.00000000
     atom    8 type  3   force =     0.00000000    0.00000000    0.00000000
     atom    9 type  3   force =     0.00000000    0.00000000    0.00000000
     atom   10 type  3   force =     0.00000000    0.00000000    0.00000000
     atom   11 type  3   force =     0.00000000    0.00000000    0.00000000
     atom   12 type  3   force =     0.00000000    0.00000000    0.00000000
     atom   13 type  3   force =     0.00000000    0.00000000    0.00000000
     atom   14 type  3   force =     0.00000000    0.00000000    0.00000000
     atom   15 type  3   force =     0.00000000    0.00000000    0.00000000
     atom   16 type  3   force =     0.00000000    0.00000000    0.00000000
     atom   17 type  3   force =     0.00000000    0.00000000    0.00000000
     atom   18 type  4   force =     0.00000000    0.00000000    0.00000000
     atom   19 type  4   force =     0.00000000    0.00000000    0.00000000
     atom   20 type  4   force =     0.00000000    0.00000000    0.00000000
     atom   21 type  4   force =     0.00000000    0.00000000    0.00000000
     atom   22 type  4   force =     0.00000000    0.00000000    0.00000000
     atom   23 type  5   force =     0.00000000    0.00000000    0.00000000
     The SCF correction term to forces
     atom    1 type  1   force =     0.00262738    0.00995511   -0.01697258
     atom    2 type  1   force =    -0.00499788    0.00437387   -0.02381857
     atom    3 type  1   force =    -0.00498541   -0.00570541   -0.02156422
     atom    4 type  1   force =     0.00778562    0.00363706   -0.02316071
     atom    5 type  1   force =     0.00885227   -0.00668112   -0.02231694
     atom    6 type  2   force =     0.00230918    0.00994660   -0.01274336
     atom    7 type  2   force =     0.00212058   -0.00689592   -0.01563268
     atom    8 type  3   force =     0.00222311    0.00003192   -0.02706579
     atom    9 type  3   force =     0.00181914   -0.00245224   -0.03223155
     atom   10 type  3   force =    -0.00539760   -0.00410814    0.00009155
     atom   11 type  3   force =    -0.00835193    0.00199405    0.01374657
     atom   12 type  3   force =    -0.00478051   -0.00009290   -0.00242922
     atom   13 type  3   force =    -0.00569054   -0.01004034    0.01367742
     atom   14 type  3   force =     0.00515650   -0.00057078    0.00363448
     atom   15 type  3   force =     0.00913364    0.00582255    0.01091881
     atom   16 type  3   force =     0.00309106   -0.00217691    0.00124554
     atom   17 type  3   force =     0.00421569   -0.01092801    0.01185773
     atom   18 type  4   force =     0.00188749   -0.00545474   -0.01426757
     atom   19 type  4   force =    -0.00201663    0.00275249    0.00018934
     atom   20 type  4   force =    -0.00274714    0.00564721    0.01093484
     atom   21 type  4   force =     0.00331038    0.00186643    0.00227637
     atom   22 type  4   force =     0.01130415    0.00426469    0.00550291
     atom   23 type  5   force =     0.00482012    0.00075168   -0.00037577

     Total force =     0.680230     Total SCF correction =     0.083447
     SCF correction compared to forces is large: reduce conv_thr to get better values


     Computing stress (Cartesian axis) and pressure


     negative rho (up, down):  9.085E-01 9.085E-01
          total   stress  (Ry/bohr**3)                   (kbar)     P=       93.52
   0.00083443   0.00003854   0.00006839          122.75        5.67       10.06
[...]
     4.7254   4.9666   5.0002   5.0692   5.2044   5.2417   5.2689   5.3180
     5.5046   5.5541   5.5848   5.6528   5.6647   5.7035   5.7346   5.8525
     5.9295   6.0489   6.0895   6.1936   6.2303   6.2657   6.3254   6.3713
     6.4474   6.5489   6.6313   6.6728   6.7337   6.8732   6.9752   7.0118
     7.0606   7.0964   7.2260   7.2520   7.2753   7.3928   7.4826   7.5651
     7.5976   7.7907   7.8797   7.9519   8.0462   8.0545   8.1078   8.1926
     8.2113   8.2277   8.3006   8.3354   8.3588   8.5224   8.5302   8.6150
     8.7291   8.8119   8.8816   9.0264   9.0329   9.1491   9.2175

     the Fermi energy is     7.1947 ev

!    total energy              =   -2942.94737974 Ry
     estimated scf accuracy    <       0.00095769 Ry
     smearing contrib. (-TS)   =      -0.09703512 Ry
     internal energy E=F+TS    =   -2942.85034462 Ry

     total magnetization       =    -0.00 Bohr mag/cell
     absolute magnetization    =     0.00 Bohr mag/cell

     convergence has been achieved in   4 iterations

     negative rho (up, down):  9.089E-01 9.089E-01

     Forces acting on atoms (cartesian axes, Ry/au):

     atom    1 type  1   force =    -0.00665591   -0.02932766    0.01275167
     atom    2 type  1   force =    -0.11510352   -0.01915989   -0.00959968
     atom    3 type  1   force =    -0.11888993    0.01442082   -0.00328642
     atom    4 type  1   force =     0.11549736   -0.01812598   -0.00936268
     atom    5 type  1   force =     0.11866092    0.01200717   -0.00175930
     atom    6 type  2   force =    -0.01442079   -0.02252661   -0.00199908
     atom    7 type  2   force =    -0.00011463    0.01194407   -0.00756632
     atom    8 type  3   force =    -0.12656239    0.00494241   -0.00082516
     atom    9 type  3   force =     0.14869264    0.01461477    0.01587197
     atom   10 type  3   force =    -0.01963430   -0.03163910   -0.05650786
     atom   11 type  3   force =    -0.01560708   -0.03381454    0.05745878
     atom   12 type  3   force =    -0.01880395    0.03731879   -0.05073145
     atom   13 type  3   force =    -0.02514541    0.03040466    0.06151158
     atom   14 type  3   force =     0.02234282   -0.03463015   -0.05768256
     atom   15 type  3   force =     0.01607236   -0.03543835    0.05755855
     atom   16 type  3   force =     0.01927444    0.03856660   -0.05200341
     atom   17 type  3   force =     0.02604422    0.03081154    0.06167704
     atom   18 type  4   force =    -0.00914440    0.02991836   -0.01832733
     atom   19 type  4   force =    -0.12449057   -0.00528754   -0.11614351
     atom   20 type  4   force =    -0.15623113    0.00777205    0.11723228
     atom   21 type  4   force =     0.12529811   -0.00622992   -0.11945715
     atom   22 type  4   force =     0.15418321    0.00809004    0.11429552
     atom   23 type  5   force =     0.00473792   -0.00463154    0.00689454
     The non-local contrib.  to forces
     atom    1 type  1   force =     0.00217525   -0.01131623    0.01546216
     atom    2 type  1   force =    -0.24709920   -0.16472871    0.01105480
     atom    3 type  1   force =    -0.24943462    0.16006994   -0.02848457
     atom    4 type  1   force =     0.24931458   -0.16740169    0.01089417
     atom    5 type  1   force =     0.25293624    0.15970608   -0.02882852
     atom    6 type  2   force =     0.00574788   -0.04303264   -0.04693593
     atom    7 type  2   force =     0.00390197    0.06026061    0.05426707
     atom    8 type  3   force =    -0.29513041    0.00358753    0.00756606
     atom    9 type  3   force =     0.25217697    0.00391491    0.00225527
     atom   10 type  3   force =    -0.20505693    0.00238400   -0.20922983
     atom   11 type  3   force =    -0.21956567    0.00545988    0.19972164
     atom   12 type  3   force =    -0.20040320   -0.01810464   -0.18321985
     atom   13 type  3   force =    -0.24459244   -0.01080771    0.20104300
     atom   14 type  3   force =     0.20261470    0.00256368   -0.20764070
     atom   15 type  3   force =     0.21591495    0.00456058    0.19918697
     atom   16 type  3   force =     0.19570588   -0.01862295   -0.18277850
     atom   17 type  3   force =     0.24244716   -0.00816749    0.20361294
     atom   18 type  4   force =     0.00064676    0.05256886   -0.05717670
     atom   19 type  4   force =     0.05821695    0.00832232    0.06839949
     atom   20 type  4   force =     0.05596046   -0.01065544   -0.07964400
     atom   21 type  4   force =    -0.06311974    0.00790686    0.07579929
     atom   22 type  4   force =    -0.06476837   -0.01064928   -0.07991098
     atom   23 type  5   force =     0.00103817   -0.00150295    0.00136009
     The ionic contribution  to forces
     atom    1 type  1   force =     0.08918866   -4.77238712   14.35952468
     atom    2 type  1   force =   -39.64036746   -6.23847200    0.73789464
     atom    3 type  1   force =   -39.46825706    6.27063881   -0.81208544
     atom    4 type  1   force =    39.74844077   -6.26980111    0.80782063
     atom    5 type  1   force =    39.63480001    6.05261509   -0.74297550
     atom    6 type  2   force =    -0.29190628   -4.10209685  -14.42971707
     atom    7 type  2   force =     0.30018838    3.68345256   14.06697524
     atom    8 type  3   force =   -52.33297670    0.03747470   -0.14792092
     atom    9 type  3   force =    51.64799878    0.39324947    0.20845323
     atom   10 type  3   force =   -36.02066661   -2.12475951  -23.06313043
     atom   11 type  3   force =   -34.99225586   -0.86643134   22.09069059
     atom   12 type  3   force =   -35.17578416    0.83792209  -22.10600751
     atom   13 type  3   force =   -35.75754222    2.30342690   23.10433626
     atom   14 type  3   force =    36.04364526   -2.14970923  -23.07317655
     atom   15 type  3   force =    35.05704759   -0.82463493   22.04798378
     atom   16 type  3   force =    35.21707271    0.82793102  -22.07870090
     atom   17 type  3   force =    35.84476808    2.22386302   23.02282810
     atom   18 type  4   force =    -0.07308607    4.80744670  -14.16493617
     atom   19 type  4   force =   -35.87805500    0.94583051  -25.55499012
     atom   20 type  4   force =   -35.49142232   -1.04527686   25.60034037
     atom   21 type  4   force =    35.95024041    0.98250113  -25.65664605
     atom   22 type  4   force =    35.67774798   -1.00806444   25.29422504
     atom   23 type  5   force =    -0.08881887    0.03528139    0.48921412
     The local contribution  to forces
     atom    1 type  1   force =    -0.10939932    4.75230770  -14.37454572
     atom    2 type  1   force =    39.77781646    6.38513790   -0.78426320
     atom    3 type  1   force =    39.60343824   -6.41778008    0.81368430
     atom    4 type  1   force =   -39.90017873    6.42051851   -0.85168338
     atom    5 type  1   force =   -39.78837950   -6.20076040    0.74960915
     atom    6 type  2   force =     0.25559074    4.11376960   14.43986202
     atom    7 type  2   force =    -0.31740058   -3.72982813  -14.14422379
     atom    8 type  3   force =    52.52576015   -0.03733267    0.11525206
     atom    9 type  3   force =   -51.79585175   -0.38639924   -0.22062978
     atom   10 type  3   force =    36.21840763    2.06950156   23.22737897
     atom   11 type  3   force =    35.20830384    0.82108054  -22.23815160
     atom   12 type  3   force =    35.36767917   -0.75826748   22.24975851
     atom   13 type  3   force =    35.98636269   -2.25486647  -23.24838526
     atom   14 type  3   force =   -36.26289967    2.09795389   23.23745314
     atom   15 type  3   force =   -35.29004503    0.78098507  -22.19816096
     atom   16 type  3   force =   -35.43252256   -0.75087007   22.22347148
     atom   17 type  3   force =   -36.09348257   -2.18011122  -23.17353435
     atom   18 type  4   force =     0.04712386   -4.82313057   14.17218748
     atom   19 type  4   force =    35.69642780   -0.96151757   25.37487263
     atom   20 type  4   force =    35.27256358    1.06275174  -25.40583566
     atom   21 type  4   force =   -35.78209305   -0.99984605   25.46866543
     atom   22 type  4   force =   -35.48089800    1.02403233  -25.10124189
     atom   23 type  5   force =     0.09532645   -0.03762766   -0.48440592
     The core correction contribution to forces
     atom    1 type  1   force =     0.00035406    0.00111853   -0.00122898
     atom    2 type  1   force =    -0.01251111   -0.00212710    0.00109935
     atom    3 type  1   force =    -0.01243793    0.00364544   -0.00106893
     atom    4 type  1   force =     0.01343426   -0.00241998    0.00081699
     atom    5 type  1   force =     0.01335198    0.00416301   -0.00139326
     atom    6 type  2   force =    -0.00040869    0.00183685    0.00166445
     atom    7 type  2   force =    -0.00016305   -0.00304855   -0.00224291
     atom    8 type  3   force =    -0.03419731    0.00022606    0.00103013
     atom    9 type  3   force =     0.03166821    0.00022265    0.00127373
     atom   10 type  3   force =    -0.02234053    0.00945023   -0.01707675
     atom   11 type  3   force =    -0.02329103    0.00948328    0.01578834
     atom   12 type  3   force =    -0.02275262   -0.01020411   -0.01640876
     atom   13 type  3   force =    -0.02390751   -0.00819718    0.01545783
     atom   14 type  3   force =     0.02215506    0.00952109   -0.01648934
     atom   15 type  3   force =     0.02304805    0.00968962    0.01577701
     atom   16 type  3   force =     0.02257720   -0.01049496   -0.01605980
     atom   17 type  3   force =     0.02371798   -0.00849578    0.01563702
     atom   18 type  4   force =    -0.00013801   -0.00271363    0.00248079
     atom   19 type  4   force =    -0.00973194    0.00007658   -0.00937544
     atom   20 type  4   force =    -0.00999364    0.00028863    0.01009891
     atom   21 type  4   force =     0.00996988    0.00009765   -0.00986793
     atom   22 type  4   force =     0.01040697    0.00026899    0.01001702
     atom   23 type  5   force =     0.00000000    0.00000000    0.00000000
     The Hubbard contrib.    to forces
     atom    1 type  1   force =     0.00000000    0.00000000    0.00000000
     atom    2 type  1   force =     0.00000000    0.00000000    0.00000000
     atom    3 type  1   force =     0.00000000    0.00000000    0.00000000
     atom    4 type  1   force =     0.00000000    0.00000000    0.00000000
     atom    5 type  1   force =     0.00000000    0.00000000    0.00000000
     atom    6 type  2   force =     0.00000000    0.00000000    0.00000000
     atom    7 type  2   force =     0.00000000    0.00000000    0.00000000
     atom    8 type  3   force =     0.00000000    0.00000000    0.00000000
     atom    9 type  3   force =     0.00000000    0.00000000    0.00000000
     atom   10 type  3   force =     0.00000000    0.00000000    0.00000000
     atom   11 type  3   force =     0.00000000    0.00000000    0.00000000
     atom   12 type  3   force =     0.00000000    0.00000000    0.00000000
     atom   13 type  3   force =     0.00000000    0.00000000    0.00000000
     atom   14 type  3   force =     0.00000000    0.00000000    0.00000000
     atom   15 type  3   force =     0.00000000    0.00000000    0.00000000
     atom   16 type  3   force =     0.00000000    0.00000000    0.00000000
     atom   17 type  3   force =     0.00000000    0.00000000    0.00000000
     atom   18 type  4   force =     0.00000000    0.00000000    0.00000000
     atom   19 type  4   force =     0.00000000    0.00000000    0.00000000
     atom   20 type  4   force =     0.00000000    0.00000000    0.00000000
     atom   21 type  4   force =     0.00000000    0.00000000    0.00000000
     atom   22 type  4   force =     0.00000000    0.00000000    0.00000000
     atom   23 type  5   force =     0.00000000    0.00000000    0.00000000
     The SCF correction term to forces
     atom    1 type  1   force =     0.00955917    0.00097453    0.01169493
     atom    2 type  1   force =     0.00559153    0.00105509    0.02277014
     atom    3 type  1   force =     0.00633517   -0.00212821    0.02282360
     atom    4 type  1   force =     0.00302021    0.00100336    0.02094431
     atom    5 type  1   force =     0.00448592   -0.00369154    0.01998424
     atom    6 type  2   force =     0.01508929    0.00702150    0.03128286
     atom    7 type  2   force =     0.01189238    0.00113266    0.01581347
     atom    8 type  3   force =     0.00851561    0.00101187    0.02140290
     atom    9 type  3   force =     0.01123416    0.00365206    0.02267492
     atom   10 type  3   force =     0.00855587    0.01180969    0.00370558
     atom   11 type  3   force =     0.00973536   -0.00338182   -0.01243479
     atom   12 type  3   force =     0.01099059   -0.01400199    0.00330156
     atom   13 type  3   force =     0.01306780    0.00087420   -0.01278486
     atom   14 type  3   force =     0.01536119    0.00506549    0.00032628
     atom   15 type  3   force =     0.00864054   -0.00601361   -0.00907285
     atom   16 type  3   force =     0.01497494   -0.00935136    0.00021972
     atom   17 type  3   force =     0.00712729    0.00374810   -0.00871127
     atom   18 type  4   force =     0.01484279   -0.00422793    0.02727267
     atom   19 type  4   force =     0.00718535    0.00202571    0.00310533
     atom   20 type  4   force =     0.01519453    0.00068906   -0.00957195
     atom   21 type  4   force =     0.00883434    0.00313557    0.00074752
     atom   22 type  4   force =     0.01022836    0.00252752   -0.01063827
     atom   23 type  5   force =    -0.00427411   -0.00075724   -0.00111834

     Total force =     0.520547     Total SCF correction =     0.093923
     SCF correction compared to forces is large: reduce conv_thr to get better values


     Computing stress (Cartesian axis) and pressure


     negative rho (up, down):  9.089E-01 9.089E-01
          total   stress  (Ry/bohr**3)                   (kbar)     P=       82.02
   0.00062134   0.00000347   0.00000415           91.40        0.51        0.61
   0.00000347   0.00065592  -0.00001076            0.51       96.49       -1.58
   0.00000415  -0.00001076   0.00039550            0.61       -1.58       58.18


     Entering Dynamics:    iteration =    20
                           time      =   0.0041 pico-seconds


ATOMIC_POSITIONS (angstrom)
Hf            2.6731216085        2.8277890971        6.6056114754
Hf            1.2547132163        1.2869958392        5.0599886621
Hf            1.2572168515        7.3908305673        5.0896485300
Hf            4.0914180389        1.2870140263        5.0599576725
Hf            4.0889790836        7.3907975847        5.0896572074
Nb            2.6731069914        2.7974949616        3.5172916248
Nb            2.6729382374        5.8774584824        6.6362852380
Ta            1.2110851990        4.3419040190        5.0727175637
Ta            4.0586531046        4.3196286263        5.0329825373
Ta            1.3100773787        1.3146421400        2.0596747144
Ta            1.3056180965        1.3088634087        8.0967564808
Ta            1.3068722213        7.3771268522        2.0471578625
Ta            1.3105732104        7.3663225567        8.0882209071
Ta            4.0360703978        1.3147091201        2.0596784337
Ta            4.0405106571        1.3088700171        8.0967409611
Ta            4.0392973903        7.3770888529        2.0471805952
Ta            4.0355507311        7.3663436731        8.0881995687
Zr            2.6730975754        5.8677572826        3.5287457208
Zr            1.2440087845        4.3228753657        1.9989266104
Zr            1.2404510722        4.3551249270        8.1538394686
Zr            4.1021291118        4.3228321241        1.9989005517
Zr            4.1058997424        4.3551409323        8.1537603182
H             7.6137784612        5.3561354193        6.9449538255


     kinetic energy (Ekin) =          15.97340906 Ry
     temperature           =       76424.29761793 K 
     Ekin + Etot (const)   =       -2926.97397068 Ry
     Ions kinetic stress =          282.11 (kbar)
                                    613.63         179.39         332.36
                                    179.39          52.48          97.20
                                    332.36          97.20         180.22



     Linear momentum :    0.0000000000    0.0000000000   -0.0000000000

     The maximum number of steps has been reached.

     End of molecular dynamics calculation

     diffusion coefficients :
     atom     1   D =       0.00000005 cm^2/s
     atom     2   D =       0.00000002 cm^2/s
     atom     3   D =       0.00000003 cm^2/s
     atom     4   D =       0.00000009 cm^2/s
     atom     5   D =       0.00000010 cm^2/s
     atom     6   D =       0.00000005 cm^2/s
     atom     7   D =       0.00000005 cm^2/s
     atom     8   D =       0.00000003 cm^2/s
     atom     9   D =       0.00002907 cm^2/s
     atom    10   D =       0.00000004 cm^2/s
     atom    11   D =       0.00000005 cm^2/s
     atom    12   D =       0.00000004 cm^2/s
     atom    13   D =       0.00000006 cm^2/s
     atom    14   D =       0.00000005 cm^2/s
     atom    15   D =       0.00000006 cm^2/s
     atom    16   D =       0.00000006 cm^2/s
     atom    17   D =       0.00000007 cm^2/s
     atom    18   D =       0.00000006 cm^2/s
     atom    19   D =       0.00000001 cm^2/s
     atom    20   D =       0.00000007 cm^2/s
     atom    21   D =       0.00000015 cm^2/s
     atom    22   D =       0.00000023 cm^2/s
     atom    23   D =       0.01782557 cm^2/s

     < D > =       0.00077635 cm^2/s

     Writing all to output data dir outdir/pwscf.save/

     init_run     :     18.24s CPU     24.72s WALL (       1 calls)
     electrons    :   2541.75s CPU   2996.58s WALL (      20 calls)
     update_pot   :     19.47s CPU     20.27s WALL (      19 calls)
     forces       :    230.13s CPU    250.69s WALL (      20 calls)
     stress       :    326.95s CPU    350.27s WALL (      20 calls)

     Called by init_run:
     wfcinit      :     14.57s CPU     20.04s WALL (       1 calls)
     potinit      :      0.46s CPU      0.52s WALL (       1 calls)
     hinit0       :      0.93s CPU      1.05s WALL (       1 calls)

     Called by electrons:
     c_bands      :   2029.16s CPU   2407.74s WALL (     102 calls)
     sum_band     :    339.53s CPU    391.83s WALL (     102 calls)
     v_of_rho     :     10.63s CPU     12.55s WALL (     122 calls)
     newd         :    188.74s CPU    213.99s WALL (     122 calls)
     mix_rho      :      0.99s CPU      1.28s WALL (     102 calls)

     Called by c_bands:
     init_us_2    :      4.11s CPU      4.20s WALL (     490 calls)
     init_us_2:cp :      4.10s CPU      4.20s WALL (     490 calls)
     regterg      :   2014.84s CPU   2390.95s WALL (     204 calls)

     Called by *egterg:
     rdiaghg      :     65.23s CPU     81.26s WALL (    1662 calls)
     h_psi        :   1055.86s CPU   1172.69s WALL (    1702 calls)
     s_psi        :    358.38s CPU    358.92s WALL (    1702 calls)
     g_psi        :      0.78s CPU      0.84s WALL (    1496 calls)

     Called by h_psi:
     h_psi:calbec :    517.44s CPU    596.04s WALL (    1702 calls)
     vloc_psi     :    100.34s CPU    137.58s WALL (    1702 calls)
     add_vuspsi   :    436.63s CPU    437.55s WALL (    1702 calls)

     General routines
     calbec       :    877.61s CPU   1009.13s WALL (    2106 calls)
     fft          :      8.28s CPU     23.15s WALL (    2529 calls)
     ffts         :      0.21s CPU      0.28s WALL (     102 calls)
     fftw         :    107.89s CPU    148.36s WALL (  108444 calls)

     Parallel routines

     PWSCF        :  52m42.99s CPU      1h 1m WALL


   This run was terminated on:   0:11:57  15Jun2023            

=------------------------------------------------------------------------------=
   JOB DONE.
=------------------------------------------------------------------------------=
