
     Program PWSCF v.7.2 starts on 13Jun2023 at 21:17: 0 

     This program is part of the open-source Quantum ESPRESSO suite
     for quantum simulation of materials; please cite
         "P. Giannozzi et al., J. Phys.:Condens. Matter 21 395502 (2009);
         "P. Giannozzi et al., J. Phys.:Condens. Matter 29 465901 (2017);
         "P. Giannozzi et al., J. Chem. Phys. 152 154105 (2020);
          URL http://www.quantum-espresso.org", 
     in publications or presentations arising from this work. More details at
     http://www.quantum-espresso.org/quote

     Parallel version (MPI), running on    42 processors

     MPI processes distributed on     1 nodes
     178223 MiB available memory on the printing compute node when the environment starts

     Reading input from md_data/md_Hf5Nb2Ta10Zr5H_20steps_100eV_incident30_polar90.in
Warning: card &CELL ignored
Warning: card / ignored

     Current dimensions of program PWSCF are:
     Max number of different atomic species (ntypx) = 10
     Max number of k-points (npk) =  40000
     Max angular momentum in pseudopotentials (lmaxx) =  4

     File outdir/pwscf.md deleted, as requested

     gamma-point specific algorithms are used

     R & G space division:  proc/nbgrp/npool/nimage =      42
     Subspace diagonalization in iterative solution of the eigenvalue problem:
     one sub-group per band group will be used
     custom distributed-memory algorithm (size of sub-group:  2*  2 procs)


     Parallelization info
     --------------------
     sticks:   dense  smooth     PW     G-vecs:    dense   smooth      PW
     Min         262     262     63                23470    23470    2920
     Max         265     265     66                23484    23484    2942
     Sum       11057   11057   2753               986005   986005  123175

     Using Slab Decomposition



     bravais-lattice index     =            0
     lattice parameter (alat)  =      17.6500  a.u.
     unit-cell volume          =    5552.8853 (a.u.)^3
     number of atoms/cell      =           23
     number of atomic types    =            5
     number of electrons       =       277.00
     number of Kohn-Sham states=          167
     kinetic-energy cutoff     =     120.0000  Ry
     charge density cutoff     =     480.0000  Ry
     scf convergence threshold =      1.0E-03
     mixing beta               =       0.7000
     number of iterations used =            8  TF        mixing
     energy convergence thresh.=      0.0E+00
     force convergence thresh. =      0.0E+00
     Exchange-correlation=  SLA  PW   PBX  PBC
                           (   1   4   3   4   0   0   0)
     nstep                     =           20


     celldm(1)=  17.650041  celldm(2)=   0.000000  celldm(3)=   0.000000
     celldm(4)=   0.000000  celldm(5)=   0.000000  celldm(6)=   0.000000

     crystal axes: (cart. coord. in units of alat)
               a(1) = (   1.000000   0.000000   0.000000 )  
               a(2) = (   0.000000   0.929336   0.000000 )  
               a(3) = (   0.000000   0.000000   1.086698 )  

     reciprocal axes: (cart. coord. in units 2 pi/alat)
               b(1) = (  1.000000  0.000000  0.000000 )  
               b(2) = (  0.000000  1.076037  0.000000 )  
               b(3) = (  0.000000  0.000000  0.920219 )  


     PseudoPot. # 1 for Hf read from file:
     q-e/pseudo/hf_pbe_v1.uspp.F.UPF
     MD5 check sum: 8ee9378dfe14276e333edf04c5e4aa26
     Pseudo is Ultrasoft + core correction, Zval = 12.0
     Generated by new atomic code, or converted to UPF format
     Using radial grid of  921 points,  8 beta functions with: 
                l(1) =   0
                l(2) =   0
                l(3) =   0
                l(4) =   1
                l(5) =   1
                l(6) =   2
                l(7) =   2
                l(8) =   3
     Q(r) pseudized with  6 coefficients,  rinner =    1.200   1.200   1.200
                                                       1.200   1.200   1.200
                                                       1.200

     PseudoPot. # 2 for Nb read from file:
     q-e/pseudo/nb_pbe_v1.uspp.F.UPF
     MD5 check sum: 573aab8a2fa660278ed4a62cd769473f
     Pseudo is Ultrasoft + core correction, Zval = 13.0
     Generated by new atomic code, or converted to UPF format
     Using radial grid of  887 points,  6 beta functions with: 
                l(1) =   0
                l(2) =   0
                l(3) =   1
                l(4) =   1
                l(5) =   2
                l(6) =   2
     Q(r) pseudized with  6 coefficients,  rinner =    1.000   1.000   1.000
                                                       1.000   1.000

     PseudoPot. # 3 for Ta read from file:
     q-e/pseudo/ta_pbe_v1.uspp.F.UPF
     MD5 check sum: f8bbe9446314a3b8ea5d9f3e3836c939
     Pseudo is Ultrasoft + core correction, Zval = 13.0
     Generated by new atomic code, or converted to UPF format
     Using radial grid of  921 points,  7 beta functions with: 
                l(1) =   0
                l(2) =   0
                l(3) =   1
                l(4) =   1
                l(5) =   2
                l(6) =   2
                l(7) =   3
     Q(r) pseudized with  6 coefficients,  rinner =    1.300   1.300   1.300
                                                       1.300   1.300   1.300
                                                       1.300

     PseudoPot. # 4 for Zr read from file:
     q-e/pseudo/zr_pbe_v1.uspp.F.UPF
     MD5 check sum: 5db81b1e868ab7776c4564c113de050b
     Pseudo is Ultrasoft + core correction, Zval = 12.0
     Generated by new atomic code, or converted to UPF format
     Using radial grid of  887 points,  6 beta functions with: 
                l(1) =   0
                l(2) =   0
                l(3) =   1
                l(4) =   1
                l(5) =   2
                l(6) =   2
     Q(r) pseudized with  6 coefficients,  rinner =    1.200   1.200   1.200
                                                       1.200   1.200

     PseudoPot. # 5 for H  read from file:
     q-e/pseudo/h_pbe_v1.4.uspp.F.UPF
     MD5 check sum: 761ae9a214b05c3daf00ab9f6b793d6f
     Pseudo is Ultrasoft, Zval =  1.0
     Generated by new atomic code, or converted to UPF format
     Using radial grid of  615 points,  2 beta functions with: 
                l(1) =   0
                l(2) =   0
     Q(r) pseudized with  8 coefficients,  rinner =    0.700

     atomic species   valence    mass     pseudopotential
        Hf            12.00   178.49000     Hf( 1.00)
        Nb            13.00    92.90637     Nb( 1.00)
        Ta            13.00   180.94788     Ta( 1.00)
        Zr            12.00    91.22400     Zr( 1.00)
        H              1.00     2.01400     H ( 1.00)

     Starting magnetic structure 
     atomic species   magnetization
        Hf           0.000
        Nb           0.000
        Ta           0.000
        Zr           0.000
        H            0.000

     No symmetry found



   Cartesian axes

     site n.     atom                  positions (alat units)
         1           Hf  tau(   1) = (   0.2858672   0.3026898   0.7070626  )
         2           Hf  tau(   2) = (   0.1341532   0.1377178   0.5415917  )
         3           Hf  tau(   3) = (   0.1344204   0.7911996   0.5447610  )
         4           Hf  tau(   4) = (   0.4375813   0.1377178   0.5415917  )
         5           Hf  tau(   5) = (   0.4373140   0.7911996   0.5447610  )
         6           Nb  tau(   6) = (   0.2858672   0.2994572   0.3764008  )
         7           Nb  tau(   7) = (   0.2858672   0.6291626   0.7103852  )
         8           Ta  tau(   8) = (   0.1294832   0.4647675   0.5429471  )
         9           Ta  tau(   9) = (   0.4422513   0.4647675   0.5429471  )
        10           Ta  tau(  10) = (   0.1399628   0.1406984   0.2204260  )
        11           Ta  tau(  11) = (   0.1394848   0.1400847   0.8666573  )
        12           Ta  tau(  12) = (   0.1396156   0.7897030   0.2190832  )
        13           Ta  tau(  13) = (   0.1400119   0.7885528   0.8657390  )
        14           Ta  tau(  14) = (   0.4317717   0.1406984   0.2204260  )
        15           Ta  tau(  15) = (   0.4322496   0.1400847   0.8666573  )
        16           Ta  tau(  16) = (   0.4321189   0.7897030   0.2190832  )
        17           Ta  tau(  17) = (   0.4317226   0.7885528   0.8657390  )
        18           Zr  tau(  18) = (   0.2858672   0.6280820   0.3776642  )
        19           Zr  tau(  19) = (   0.1331729   0.4627493   0.2141328  )
        20           Zr  tau(  20) = (   0.1328036   0.4661802   0.8725649  )
        21           Zr  tau(  21) = (   0.4385616   0.4627493   0.2141328  )
        22           Zr  tau(  22) = (   0.4389309   0.4661802   0.8725649  )
        23           H   tau(  23) = (   0.6276957   0.4646681   0.6501263  )

     number of k points=     1  Gaussian smearing, width (Ry)=  0.0220
                       cart. coord. in units 2pi/alat
        k(    1) = (   0.0000000   0.0000000   0.0000000), wk =   1.0000000

     Dense  grid:   493003 G-vectors     FFT dimensions: ( 125, 120, 135)

     Estimated max dynamical RAM per process >     133.03 MB

     Estimated total dynamical RAM >       5.46 GB

     Check: negative core charge=   -0.000002
     Generating pointlists ...
     new r_m :   0.1117 (alat units)  1.9717 (a.u.) for type    1
     new r_m :   0.1098 (alat units)  1.9374 (a.u.) for type    2
     new r_m :   0.0884 (alat units)  1.5594 (a.u.) for type    3
     new r_m :   0.1112 (alat units)  1.9625 (a.u.) for type    4
     new r_m :   0.0884 (alat units)  1.5594 (a.u.) for type    5

     Initial potential from superposition of free atoms

     starting charge     266.9726, renormalised to     277.0000

     negative rho (up, down):  9.217E-01 9.217E-01
     Starting wfcs are  287 randomized atomic wfcs

     total cpu time spent up to now is       25.6 secs

     Self-consistent Calculation

     iteration #  1     ecut=   120.00 Ry     beta= 0.70
     Davidson diagonalization with overlap
     ethr =  1.00E-02,  avg # of iterations =  2.0

     negative rho (up, down):  9.974E-01 9.971E-01

     total cpu time spent up to now is       67.1 secs

     total energy              =   -2930.56980442 Ry
     estimated scf accuracy    <     277.06023899 Ry

     total magnetization       =    -0.00 Bohr mag/cell
     absolute magnetization    =     0.09 Bohr mag/cell

     iteration #  2     ecut=   120.00 Ry     beta= 0.70
     Davidson diagonalization with overlap
     ethr =  1.00E-02,  avg # of iterations =  5.0

     negative rho (up, down):  9.719E-01 9.682E-01

     total cpu time spent up to now is       91.4 secs

     total energy              =   -2942.27524027 Ry
     estimated scf accuracy    <      29.86359976 Ry

     total magnetization       =    -0.12 Bohr mag/cell
     absolute magnetization    =     0.36 Bohr mag/cell

     iteration #  3     ecut=   120.00 Ry     beta= 0.70
     Davidson diagonalization with overlap
     ethr =  1.00E-02,  avg # of iterations =  2.0

     negative rho (up, down):  1.007E+00 1.007E+00

     total cpu time spent up to now is      110.1 secs

     total energy              =   -2942.65653681 Ry
     estimated scf accuracy    <      13.03972953 Ry

     total magnetization       =    -0.08 Bohr mag/cell
     absolute magnetization    =     0.48 Bohr mag/cell

     iteration #  4     ecut=   120.00 Ry     beta= 0.70
     Davidson diagonalization with overlap
     ethr =  4.71E-03,  avg # of iterations =  3.0

     negative rho (up, down):  1.014E+00 1.015E+00

     total cpu time spent up to now is      127.8 secs

     total energy              =   -2942.91456373 Ry
     estimated scf accuracy    <       3.21496595 Ry

     total magnetization       =     0.02 Bohr mag/cell
     absolute magnetization    =     0.42 Bohr mag/cell

     iteration #  5     ecut=   120.00 Ry     beta= 0.70
     Davidson diagonalization with overlap
     ethr =  1.16E-03,  avg # of iterations =  8.0

     negative rho (up, down):  9.904E-01 9.910E-01

     total cpu time spent up to now is      150.4 secs

     total energy              =   -2943.07485376 Ry
     estimated scf accuracy    <       1.76673206 Ry

     total magnetization       =    -0.01 Bohr mag/cell
     absolute magnetization    =     0.25 Bohr mag/cell

     iteration #  6     ecut=   120.00 Ry     beta= 0.70
     Davidson diagonalization with overlap
     ethr =  6.38E-04,  avg # of iterations =  2.0

     negative rho (up, down):  9.764E-01 9.768E-01

     total cpu time spent up to now is      180.5 secs

     total energy              =   -2943.11404655 Ry
     estimated scf accuracy    <       1.00735984 Ry

     total magnetization       =    -0.02 Bohr mag/cell
     absolute magnetization    =     0.18 Bohr mag/cell

     iteration #  7     ecut=   120.00 Ry     beta= 0.70
     Davidson diagonalization with overlap
     ethr =  3.64E-04,  avg # of iterations =  2.0

     negative rho (up, down):  9.476E-01 9.479E-01

     total cpu time spent up to now is      216.3 secs

     total energy              =   -2943.06431998 Ry
     estimated scf accuracy    <       0.38701470 Ry

     total magnetization       =    -0.00 Bohr mag/cell
     absolute magnetization    =     0.15 Bohr mag/cell

     iteration #  8     ecut=   120.00 Ry     beta= 0.70
     Davidson diagonalization with overlap
     ethr =  1.40E-04,  avg # of iterations =  8.0

     negative rho (up, down):  9.216E-01 9.217E-01

     total cpu time spent up to now is      244.1 secs

     total energy              =   -2943.06254509 Ry
     estimated scf accuracy    <       0.20532332 Ry

     total magnetization       =     0.00 Bohr mag/cell
     absolute magnetization    =     0.12 Bohr mag/cell

     iteration #  9     ecut=   120.00 Ry     beta= 0.70
     Davidson diagonalization with overlap
     ethr =  7.41E-05,  avg # of iterations =  2.0

     negative rho (up, down):  9.079E-01 9.079E-01

     total cpu time spent up to now is      261.1 secs

     total energy              =   -2943.05797870 Ry
     estimated scf accuracy    <       0.06038637 Ry

     total magnetization       =     0.01 Bohr mag/cell
     absolute magnetization    =     0.09 Bohr mag/cell

     iteration # 10     ecut=   120.00 Ry     beta= 0.70
     Davidson diagonalization with overlap
     ethr =  2.18E-05,  avg # of iterations = 13.0

     negative rho (up, down):  9.085E-01 9.085E-01

     total cpu time spent up to now is      284.8 secs

     total energy              =   -2943.06449003 Ry
     estimated scf accuracy    <       0.02919452 Ry

     total magnetization       =     0.01 Bohr mag/cell
     absolute magnetization    =     0.07 Bohr mag/cell

     iteration # 11     ecut=   120.00 Ry     beta= 0.70
     Davidson diagonalization with overlap
     ethr =  1.05E-05,  avg # of iterations =  2.0

     negative rho (up, down):  9.091E-01 9.091E-01

     total cpu time spent up to now is      302.2 secs

     total energy              =   -2943.06776952 Ry
     estimated scf accuracy    <       0.00666322 Ry

     total magnetization       =     0.02 Bohr mag/cell
     absolute magnetization    =     0.05 Bohr mag/cell

     iteration # 12     ecut=   120.00 Ry     beta= 0.70
     Davidson diagonalization with overlap
     ethr =  2.41E-06,  avg # of iterations = 12.5

     negative rho (up, down):  9.092E-01 9.092E-01

     total cpu time spent up to now is      332.5 secs

     total energy              =   -2943.07012351 Ry
     estimated scf accuracy    <       0.00280606 Ry

     total magnetization       =     0.02 Bohr mag/cell
     absolute magnetization    =     0.05 Bohr mag/cell

     iteration # 13     ecut=   120.00 Ry     beta= 0.70
     Davidson diagonalization with overlap
     ethr =  1.01E-06,  avg # of iterations =  4.0

     negative rho (up, down):  9.089E-01 9.089E-01

     Magnetic moment per site  (integrated on atomic sphere of radius R)
     atom   1 (R=0.112)  charge=  9.4641  magn= -0.0001
     atom   2 (R=0.112)  charge=  9.0587  magn= -0.0003
     atom   3 (R=0.112)  charge=  9.0582  magn= -0.0002
     atom   4 (R=0.112)  charge=  9.0594  magn=  0.0002
     atom   5 (R=0.112)  charge=  9.0581  magn=  0.0001
     atom   6 (R=0.110)  charge= 10.3487  magn= -0.0000
     atom   7 (R=0.110)  charge= 10.3488  magn=  0.0000
     atom   8 (R=0.088)  charge=  8.1295  magn=  0.0002
     atom   9 (R=0.088)  charge=  8.1188  magn= -0.0002
     atom  10 (R=0.088)  charge=  8.1085  magn= -0.0000
     atom  11 (R=0.088)  charge=  8.1051  magn=  0.0001
     atom  12 (R=0.088)  charge=  8.1093  magn= -0.0001
     atom  13 (R=0.088)  charge=  8.1064  magn=  0.0002
     atom  14 (R=0.088)  charge=  8.1071  magn=  0.0001
     atom  15 (R=0.088)  charge=  8.1086  magn=  0.0005
     atom  16 (R=0.088)  charge=  8.1081  magn=  0.0012
     atom  17 (R=0.088)  charge=  8.1098  magn=  0.0009
     atom  18 (R=0.111)  charge=  9.4542  magn= -0.0002
     atom  19 (R=0.111)  charge=  8.9990  magn=  0.0012
     atom  20 (R=0.111)  charge=  8.9967  magn= -0.0015
     atom  21 (R=0.111)  charge=  8.9976  magn=  0.0022
     atom  22 (R=0.111)  charge=  8.9886  magn=  0.0000
     atom  23 (R=0.088)  charge=  0.9769  magn=  0.0000

     total cpu time spent up to now is      370.9 secs

     End of self-consistent calculation

 ------ SPIN UP ------------


          k = 0.0000 0.0000 0.0000 ( 61588 PWs)   bands (ev):

   -60.7870 -60.7854 -60.7412 -60.7393 -60.7093 -60.7053 -60.6648 -60.6598
   -60.4982 -60.4275 -54.4048 -54.3537 -54.2806 -54.2297 -52.7046 -46.2693
   -46.2613 -41.6721 -41.6291 -41.5677 -41.5286 -39.7980 -27.7904 -27.7847
   -27.7027 -27.6998 -27.6010 -27.5953 -27.4756 -27.4651 -27.3721 -27.3418
   -27.3036 -27.2745 -27.2680 -27.2456 -27.2336 -27.1775 -27.1710 -27.1396
   -27.0922 -27.0722 -27.0254 -26.9657 -26.9625 -26.9570 -26.9433 -26.9146
   -26.8969 -26.8884 -26.8632 -26.8621 -24.1879 -23.9781 -23.6730 -23.5903
   -23.3312 -23.1975 -23.1730 -23.0739 -22.9466 -22.8768 -22.8617 -22.6428
   -22.5102 -22.4594 -22.4052 -22.3602 -22.2905 -22.2423 -21.7662 -21.7084
   -21.6340 -20.1983 -19.9703 -19.8313 -19.8269 -19.6468 -19.6223 -19.5985
   -19.5894 -19.5759 -19.5530 -19.3979 -19.3719 -18.1460 -17.9407 -17.8139
     1.4658   2.9191   3.0156   3.1307   3.3014   3.4497   3.4871   3.6688
     3.7364   3.8461   3.9103   4.0463   4.2867   4.4955   4.5961   4.6729
     4.7309   4.9186   5.0241   5.0551   5.1089   5.2509   5.2799   5.3094
     5.3935   5.5523   5.5625   5.7129   5.7356   5.7471   5.7567   5.7915
     5.9205   6.0907   6.1458   6.2194   6.2628   6.3120   6.3566   6.3702
     6.4520   6.6452   6.6537   6.6736   6.8342   6.9416   7.0035   7.0430
     7.0930   7.1384   7.2594   7.3107   7.3365   7.4123   7.5232   7.5745
     7.6282   7.6561   7.8851   7.9445   8.0761   8.0913   8.1167   8.1835
     8.2428   8.3380   8.3432   8.3579   8.4886   8.5108   8.6175   8.7404
     8.7683   8.8968   8.9310   9.0549   9.1929   9.2219   9.2736

 ------ SPIN DOWN ----------


          k = 0.0000 0.0000 0.0000 ( 61588 PWs)   bands (ev):

   -60.7868 -60.7849 -60.7411 -60.7387 -60.7088 -60.7050 -60.6645 -60.6594
   -60.4979 -60.4277 -54.4048 -54.3538 -54.2806 -54.2298 -52.7046 -46.2693
   -46.2614 -41.6724 -41.6275 -41.5689 -41.5270 -39.7981 -27.7898 -27.7843
   -27.7024 -27.6991 -27.6004 -27.5949 -27.4752 -27.4645 -27.3718 -27.3414
   -27.3033 -27.2742 -27.2673 -27.2452 -27.2330 -27.1771 -27.1705 -27.1394
   -27.0923 -27.0719 -27.0254 -26.9653 -26.9619 -26.9563 -26.9429 -26.9147
   -26.8962 -26.8881 -26.8628 -26.8616 -24.1878 -23.9781 -23.6730 -23.5904
   -23.3313 -23.1976 -23.1731 -23.0740 -22.9467 -22.8769 -22.8618 -22.6430
   -22.5102 -22.4595 -22.4052 -22.3602 -22.2904 -22.2423 -21.7662 -21.7086
   -21.6341 -20.1968 -19.9718 -19.8290 -19.8256 -19.6468 -19.6223 -19.5982
   -19.5897 -19.5743 -19.5539 -19.3991 -19.3696 -18.1461 -17.9406 -17.8140
     1.4661   2.9196   3.0156   3.1308   3.3016   3.4505   3.4873   3.6689
     3.7366   3.8464   3.9108   4.0468   4.2869   4.4955   4.5964   4.6732
     4.7311   4.9190   5.0242   5.0560   5.1094   5.2511   5.2802   5.3096
     5.3943   5.5526   5.5627   5.7133   5.7363   5.7472   5.7569   5.7920
     5.9206   6.0915   6.1463   6.2197   6.2630   6.3124   6.3569   6.3706
     6.4525   6.6455   6.6540   6.6740   6.8349   6.9424   7.0049   7.0434
     7.0952   7.1398   7.2607   7.3111   7.3392   7.4142   7.5226   7.5757
     7.6291   7.6570   7.8856   7.9448   8.0772   8.0920   8.1173   8.1848
     8.2437   8.3383   8.3442   8.3589   8.4895   8.5113   8.6179   8.7408
     8.7688   8.8987   8.9324   9.0555   9.1940   9.2222   9.2742

     the Fermi energy is     7.2348 ev

!    total energy              =   -2943.07136859 Ry
     estimated scf accuracy    <       0.00044700 Ry
     smearing contrib. (-TS)   =      -0.10010666 Ry
     internal energy E=F+TS    =   -2942.97126193 Ry

     total magnetization       =     0.02 Bohr mag/cell
     absolute magnetization    =     0.04 Bohr mag/cell

     convergence has been achieved in  13 iterations

     negative rho (up, down):  9.089E-01 9.089E-01

     Forces acting on atoms (cartesian axes, Ry/au):

     atom    1 type  1   force =    -0.01037380   -0.02469643    0.00770510
     atom    2 type  1   force =    -0.11413734   -0.01656073   -0.00184054
     atom    3 type  1   force =    -0.11281493    0.01481430    0.00256351
     atom    4 type  1   force =     0.11289255   -0.02207106   -0.00519792
     atom    5 type  1   force =     0.11398331    0.01892224    0.00102007
     atom    6 type  2   force =    -0.00735167   -0.01915610    0.00697328
     atom    7 type  2   force =    -0.01319586    0.01235174   -0.00778673
     atom    8 type  3   force =    -0.11777606    0.00321561   -0.00151014
     atom    9 type  3   force =     0.16281463    0.00406118    0.01450506
     atom   10 type  3   force =    -0.02323637   -0.03224603   -0.06030311
     atom   11 type  3   force =    -0.01948730   -0.03634204    0.05784619
     atom   12 type  3   force =    -0.01808551    0.03718462   -0.05440676
     atom   13 type  3   force =    -0.02004127    0.03022858    0.06158144
     atom   14 type  3   force =     0.02547024   -0.02886652   -0.05650926
     atom   15 type  3   force =     0.01628645   -0.04026465    0.05375616
     atom   16 type  3   force =     0.02074562    0.03326275   -0.05118760
     atom   17 type  3   force =     0.01627096    0.03503270    0.05813454
     atom   18 type  4   force =    -0.00896534    0.02865181   -0.01407576
     atom   19 type  4   force =    -0.12925347   -0.00497366   -0.11698006
     atom   20 type  4   force =    -0.13525064    0.00524026    0.11233479
     atom   21 type  4   force =     0.12699061   -0.00520527   -0.11735699
     atom   22 type  4   force =     0.16396895    0.00763697    0.10009424
     atom   23 type  5   force =    -0.02945375   -0.00022025    0.01064048
     The non-local contrib.  to forces
     atom    1 type  1   force =    -0.00708670   -0.01315940    0.03451439
     atom    2 type  1   force =    -0.24428130   -0.16406012    0.01647086
     atom    3 type  1   force =    -0.23825009    0.16052238   -0.02766629
     atom    4 type  1   force =     0.26143597   -0.16082084    0.03078271
     atom    5 type  1   force =     0.25127219    0.15629241   -0.01429494
     atom    6 type  2   force =     0.00324811   -0.05253805   -0.06323607
     atom    7 type  2   force =    -0.01876504    0.05458840    0.05521148
     atom    8 type  3   force =    -0.27130849    0.00165837    0.00109123
     atom    9 type  3   force =     0.10857848   -0.00053977   -0.05897489
     atom   10 type  3   force =    -0.21581466    0.00575535   -0.20594601
     atom   11 type  3   force =    -0.21663442    0.00789579    0.19531205
     atom   12 type  3   force =    -0.20456531   -0.01962294   -0.17804570
     atom   13 type  3   force =    -0.20698539   -0.00488059    0.20875917
     atom   14 type  3   force =     0.20796012    0.00475254   -0.21953028
     atom   15 type  3   force =     0.23207992    0.00799457    0.17961579
     atom   16 type  3   force =     0.19664526   -0.01999064   -0.18998419
     atom   17 type  3   force =     0.22241403   -0.00469078    0.19149566
     atom   18 type  4   force =     0.00336234    0.05953145   -0.06141789
     atom   19 type  4   force =     0.06163581    0.00907718    0.07391198
     atom   20 type  4   force =     0.05152222   -0.01414511   -0.05850191
     atom   21 type  4   force =    -0.05291377    0.01001774    0.07594851
     atom   22 type  4   force =    -0.05668759   -0.01070943   -0.09331050
     atom   23 type  5   force =    -0.03925946   -0.00000096   -0.01413183
     The ionic contribution  to forces
     atom    1 type  1   force =    -0.33925142   -4.74720957   14.02699793
     atom    2 type  1   force =   -39.66248163   -6.18415836    0.72476069
     atom    3 type  1   force =   -39.63519894    6.17121189   -0.76889681
     atom    4 type  1   force =    39.44291274   -6.37650162    0.64401299
     atom    5 type  1   force =    39.41318384    6.36587510   -0.84814787
     atom    6 type  2   force =    -0.17065393   -3.61832791  -14.03170692
     atom    7 type  2   force =    -0.36203446    3.75439789   13.96127222
     atom    8 type  3   force =   -52.07814131    0.07188752   -0.16241189
     atom    9 type  3   force =    50.56657761    0.07261802   -0.95498199
     atom   10 type  3   force =   -36.04350637   -2.11374533  -23.07260453
     atom   11 type  3   force =   -35.12256741   -0.89557811   22.11554073
     atom   12 type  3   force =   -35.22755961    0.81607498  -22.12566267
     atom   13 type  3   force =   -36.02273631    2.22942334   23.09391164
     atom   14 type  3   force =    35.96610570   -2.14505102  -23.11584314
     atom   15 type  3   force =    34.94591863   -1.02097058   22.22460612
     atom   16 type  3   force =    35.15084800    0.84699997  -22.16826631
     atom   17 type  3   force =    35.84437850    2.35568738   23.20318709
     atom   18 type  4   force =    -0.15928070    4.42256152  -13.98437079
     atom   19 type  4   force =   -35.88084756    0.95669503  -25.54154909
     atom   20 type  4   force =   -35.86879705   -0.95269571   25.58576488
     atom   21 type  4   force =    35.76474304    0.95609777  -25.64354188
     atom   22 type  4   force =    35.33034193   -0.94927204   26.09324942
     atom   23 type  5   force =     4.14804671   -0.01602015    0.74468019
     The local contribution  to forces
     atom    1 type  1   force =     0.33746741    4.73273741  -14.05448543
     atom    2 type  1   force =    39.81730999    6.32829324   -0.74317133
     atom    3 type  1   force =    39.78392617   -6.31440822    0.79950706
     atom    4 type  1   force =   -39.61503914    6.51411368   -0.68440228
     atom    5 type  1   force =   -39.57272583   -6.50196695    0.86097264
     atom    6 type  2   force =     0.16636426    3.64713689   14.09707894
     atom    7 type  2   force =     0.37280240   -3.79359249  -14.02547706
     atom    8 type  3   force =    52.26963278   -0.07040658    0.15788692
     atom    9 type  3   force =   -50.52687089   -0.06835184    1.03462053
     atom   10 type  3   force =    36.26117830    2.06499040   23.23557741
     atom   11 type  3   force =    35.35178550    0.84310159  -22.27276076
     atom   12 type  3   force =    35.44021705   -0.74844758   22.26618342
     atom   13 type  3   force =    36.23790752   -2.18326921  -23.25907452
     atom   14 type  3   force =   -36.17068243    2.10232815   23.29558298
     atom   15 type  3   force =   -35.19121787    0.96299737  -22.36395487
     atom   16 type  3   force =   -35.35002426   -0.78305072   22.32363690
     atom   17 type  3   force =   -36.07495844   -2.30558658  -23.35051005
     atom   18 type  4   force =     0.15220240   -4.44935826   14.02526910
     atom   19 type  4   force =    35.70119381   -0.97123924   25.36106811
     atom   20 type  4   force =    35.69301608    0.96917686  -25.42407929
     atom   21 type  4   force =   -35.59038307   -0.97233659   25.46424006
     atom   22 type  4   force =   -35.11731668    0.96553372  -25.91330749
     atom   23 type  5   force =    -4.13867175    0.01597953   -0.72046956
     The core correction contribution to forces
     atom    1 type  1   force =     0.00252941    0.00061542    0.00013221
     atom    2 type  1   force =    -0.01270522   -0.00192172   -0.00017575
     atom    3 type  1   force =    -0.01252861    0.00288538   -0.00220669
     atom    4 type  1   force =     0.01382055   -0.00315338    0.00339179
     atom    5 type  1   force =     0.01403107    0.00319987    0.00122346
     atom    6 type  2   force =    -0.00025414    0.00219572    0.00249473
     atom    7 type  2   force =     0.00067341   -0.00265899   -0.00196947
     atom    8 type  3   force =    -0.03312908    0.00020479    0.00033851
     atom    9 type  3   force =     0.01414821    0.00035540   -0.00826270
     atom   10 type  3   force =    -0.02180919    0.00992089   -0.01598317
     atom   11 type  3   force =    -0.02433097    0.00927663    0.01752399
     atom   12 type  3   force =    -0.02187362   -0.01003229   -0.01535680
     atom   13 type  3   force =    -0.02297635   -0.00877463    0.01738571
     atom   14 type  3   force =     0.02272387    0.01026433   -0.01649059
     atom   15 type  3   force =     0.02531259    0.01066286    0.01348930
     atom   16 type  3   force =     0.02233885   -0.01070302   -0.01600882
     atom   17 type  3   force =     0.02316028   -0.00931213    0.01403587
     atom   18 type  4   force =    -0.00021603   -0.00303121    0.00289593
     atom   19 type  4   force =    -0.00981373    0.00003496   -0.00964773
     atom   20 type  4   force =    -0.00935640    0.00036873    0.00879539
     atom   21 type  4   force =     0.00938094   -0.00002244   -0.00991747
     atom   22 type  4   force =     0.00998018    0.00018884    0.01047193
     atom   23 type  5   force =     0.00000000    0.00000000    0.00000000
     The Hubbard contrib.    to forces
     atom    1 type  1   force =     0.00000000    0.00000000    0.00000000
     atom    2 type  1   force =     0.00000000    0.00000000    0.00000000
     atom    3 type  1   force =     0.00000000    0.00000000    0.00000000
     atom    4 type  1   force =     0.00000000    0.00000000    0.00000000
     atom    5 type  1   force =     0.00000000    0.00000000    0.00000000
     atom    6 type  2   force =     0.00000000    0.00000000    0.00000000
     atom    7 type  2   force =     0.00000000    0.00000000    0.00000000
     atom    8 type  3   force =     0.00000000    0.00000000    0.00000000
     atom    9 type  3   force =     0.00000000    0.00000000    0.00000000
     atom   10 type  3   force =     0.00000000    0.00000000    0.00000000
     atom   11 type  3   force =     0.00000000    0.00000000    0.00000000
     atom   12 type  3   force =     0.00000000    0.00000000    0.00000000
     atom   13 type  3   force =     0.00000000    0.00000000    0.00000000
     atom   14 type  3   force =     0.00000000    0.00000000    0.00000000
     atom   15 type  3   force =     0.00000000    0.00000000    0.00000000
     atom   16 type  3   force =     0.00000000    0.00000000    0.00000000
     atom   17 type  3   force =     0.00000000    0.00000000    0.00000000
     atom   18 type  4   force =     0.00000000    0.00000000    0.00000000
     atom   19 type  4   force =     0.00000000    0.00000000    0.00000000
     atom   20 type  4   force =     0.00000000    0.00000000    0.00000000
     atom   21 type  4   force =     0.00000000    0.00000000    0.00000000
     atom   22 type  4   force =     0.00000000    0.00000000    0.00000000
     atom   23 type  5   force =     0.00000000    0.00000000    0.00000000
     The SCF correction term to forces
     atom    1 type  1   force =    -0.00367653    0.00229717    0.00035201
     atom    2 type  1   force =    -0.01162320    0.00526369    0.00008098
     atom    3 type  1   force =    -0.01040748   -0.00541966    0.00163224
     atom    4 type  1   force =     0.01011841    0.00426857    0.00082287
     atom    5 type  1   force =     0.00857802   -0.00450073    0.00107278
     atom    6 type  2   force =    -0.00570001    0.00235472    0.00214861
     atom    7 type  2   force =    -0.00551620   -0.00040560    0.00298209
     atom    8 type  3   force =    -0.00447399   -0.00015104    0.00139108
     atom    9 type  3   force =     0.00073719   -0.00004317    0.00191011
     atom   10 type  3   force =    -0.00292847    0.00081011   -0.00154081
     atom   11 type  3   force =    -0.00738403   -0.00106048    0.00203618
     atom   12 type  3   force =    -0.00394805   -0.00081009   -0.00171901
     atom   13 type  3   force =    -0.00489477   -0.00229288    0.00040543
     atom   14 type  3   force =    -0.00028104   -0.00118307   -0.00042223
     atom   15 type  3   force =     0.00454915   -0.00097141   -0.00019418
     atom   16 type  3   force =     0.00129374   -0.00001538   -0.00075918
     atom   17 type  3   force =     0.00163257   -0.00108773   -0.00026804
     atom   18 type  4   force =    -0.00467737   -0.00107422    0.00335389
     atom   19 type  4   force =    -0.00106582    0.00043587   -0.00095734
     atom   20 type  4   force =    -0.00127952    0.00251295    0.00016172
     atom   21 type  4   force =    -0.00348056    0.00101571   -0.00428021
     atom   22 type  4   force =    -0.00199294    0.00187334    0.00279689
     atom   23 type  5   force =     0.00078673   -0.00020120    0.00036767

     Total force =     0.513777     Total SCF correction =     0.029803


     Computing stress (Cartesian axis) and pressure


     negative rho (up, down):  9.089E-01 9.089E-01
          total   stress  (Ry/bohr**3)                   (kbar)     P=       83.36
   0.00067542   0.00000017   0.00000950           99.36        0.03        1.40
   0.00000017   0.00066073  -0.00001230            0.03       97.20       -1.81
   0.00000950  -0.00001230   0.00036379            1.40       -1.81       53.51


     Molecular Dynamics Calculation

     Starting temperature  =   300.00 K

     temperature is set once at start

     mass Hf               =   178.49
     mass Nb               =    92.91
     mass Ta               =   180.95
     mass Zr               =    91.22
     mass H                =     2.01
     Time step             =     4.20 a.u.,  0.2032 femto-seconds

     Entering Dynamics:    iteration =     1
                           time      =   0.0002 pico-seconds


ATOMIC_POSITIONS (angstrom)
Hf            2.6701085184        2.8271223207        6.6040272908
Hf            1.2530962647        1.2862837063        5.0585290244
Hf            1.2555925210        7.3898047198        5.0881306921
Hf            4.0871213317        1.2862835482        5.0585289281
Hf            4.0846251446        7.3898048377        5.0881306478
Nb            2.6701084108        2.7969295497        3.5156464522
Nb            2.6701080887        5.8763793571        6.6350603651
Ta            1.2094785820        4.3409279426        5.0711886407
Ta            4.1307403247        4.3409279665        5.0711890939
Ta            1.3073608855        1.3141216768        2.0588402547
Ta            1.3028966217        1.3083901075        8.0946436906
Ta            1.3041179693        7.3758271764        2.0462984912
Ta            1.3078190903        7.3650838039        8.0860668147
Ta            4.0328568097        1.3141217725        2.0588403620
Ta            4.0373209197        1.3083899965        8.0946435748
Ta            4.0360997380        7.3758270654        2.0462985823
Ta            4.0323984351        7.3650839398        8.0860667171
Zr            2.6701083128        5.8662874518        3.5274459914
Zr            1.2439362224        4.3220776853        2.0000562845
Zr            1.2404866795        4.3541235787        8.1498247063
Zr            4.0962812826        4.3220776723        2.0000562633
Zr            4.0997325646        4.3541237132        8.1498240192
H             5.6818632066        4.3399993902        5.9678545700


     kinetic energy (Ekin) =           8.09785715 Ry
     temperature           =       38743.95520174 K 
     Ekin + Etot (const)   =       -2934.97351144 Ry
     Ions kinetic stress =          143.02 (kbar)
                                    321.78           0.00         185.79
                                      0.00           0.00           0.00
                                    185.79           0.00         107.27



     Linear momentum :    0.0000000000    0.0000000000   -0.0000000000

     File outdir/pwscf.msd.dat deleted, as requested

     Writing config-only to output data dir outdir/pwscf.save/
     NEW-OLD atomic charge density approx. for the potential

     Check: negative core charge=   -0.000002

     negative rho (up, down):  9.088E-01 9.088E-01
     Generating pointlists ...
     new r_m :   0.0791 (alat units)  1.3966 (a.u.) for type    3
     new r_m :   0.0791 (alat units)  1.3966 (a.u.) for type    5

     total cpu time spent up to now is      412.0 secs

     Self-consistent Calculation

     iteration #  1     ecut=   120.00 Ry     beta= 0.70
     Davidson diagonalization with overlap
     ethr =  1.00E-06,  avg # of iterations =  9.5

     negative rho (up, down):  9.089E-01 9.089E-01

     total cpu time spent up to now is      444.5 secs

     total energy              =   -2943.06752009 Ry
     estimated scf accuracy    <       0.01979914 Ry

     total magnetization       =     0.02 Bohr mag/cell
     absolute magnetization    =     0.03 Bohr mag/cell

     iteration #  2     ecut=   120.00 Ry     beta= 0.70
     Davidson diagonalization with overlap
     ethr =  7.15E-06,  avg # of iterations =  2.0

     negative rho (up, down):  9.088E-01 9.088E-01

     total cpu time spent up to now is      463.0 secs

     total energy              =   -2943.06906271 Ry
     estimated scf accuracy    <       0.00469381 Ry

     total magnetization       =     0.02 Bohr mag/cell
     absolute magnetization    =     0.03 Bohr mag/cell

     iteration #  3     ecut=   120.00 Ry     beta= 0.70
     Davidson diagonalization with overlap
     ethr =  1.69E-06,  avg # of iterations =  2.0

     negative rho (up, down):  9.088E-01 9.088E-01

     total cpu time spent up to now is      483.0 secs

     total energy              =   -2943.06922616 Ry
     estimated scf accuracy    <       0.00105538 Ry

     total magnetization       =     0.02 Bohr mag/cell
     absolute magnetization    =     0.03 Bohr mag/cell

     iteration #  4     ecut=   120.00 Ry     beta= 0.70
     Davidson diagonalization with overlap
     ethr =  3.81E-07,  avg # of iterations =  2.0

     negative rho (up, down):  9.089E-01 9.089E-01

     Magnetic moment per site  (integrated on atomic sphere of radius R)
     atom   1 (R=0.112)  charge=  9.4644  magn= -0.0000
     atom   2 (R=0.112)  charge=  9.0578  magn= -0.0000
     atom   3 (R=0.112)  charge=  9.0577  magn=  0.0000
     atom   4 (R=0.112)  charge=  9.0586  magn=  0.0001
     atom   5 (R=0.112)  charge=  9.0577  magn=  0.0001
     atom   6 (R=0.110)  charge= 10.3498  magn= -0.0000
     atom   7 (R=0.110)  charge= 10.3482  magn=  0.0001
     atom   8 (R=0.079)  charge=  7.1199  magn=  0.0001
     atom   9 (R=0.079)  charge=  7.1229  magn= -0.0000
     atom  10 (R=0.079)  charge=  7.1019  magn= -0.0000
     atom  11 (R=0.079)  charge=  7.0980  magn= -0.0000
     atom  12 (R=0.079)  charge=  7.1020  magn=  0.0001
     atom  13 (R=0.079)  charge=  7.0996  magn=  0.0001
     atom  14 (R=0.079)  charge=  7.1009  magn=  0.0002
     atom  15 (R=0.079)  charge=  7.0996  magn=  0.0003
     atom  16 (R=0.079)  charge=  7.1021  magn=  0.0008
     atom  17 (R=0.079)  charge=  7.1006  magn=  0.0005
     atom  18 (R=0.111)  charge=  9.4557  magn= -0.0000
     atom  19 (R=0.111)  charge=  8.9989  magn=  0.0006
     atom  20 (R=0.111)  charge=  8.9966  magn= -0.0009
     atom  21 (R=0.111)  charge=  8.9961  magn=  0.0015
     atom  22 (R=0.111)  charge=  8.9867  magn=  0.0001
     atom  23 (R=0.079)  charge=  0.9334  magn=  0.0000

     total cpu time spent up to now is      519.9 secs

     End of self-consistent calculation

 ------ SPIN UP ------------


          k = 0.0000 0.0000 0.0000 ( 61588 PWs)   bands (ev):

   -60.7733 -60.7635 -60.7269 -60.7168 -60.6946 -60.6823 -60.6494 -60.6364
   -60.4788 -60.3011 -54.3868 -54.3373 -54.2625 -54.2133 -52.6846 -46.2442
   -46.2391 -41.6541 -41.6161 -41.5449 -41.5149 -39.7890 -27.7726 -27.7651
   -27.6881 -27.6770 -27.5839 -27.5771 -27.4555 -27.4479 -27.3443 -27.3246
   -27.2731 -27.2592 -27.2467 -27.2254 -27.2151 -27.1593 -27.1507 -27.1137
   -27.0517 -27.0072 -26.9522 -26.9476 -26.9358 -26.9309 -26.9205 -26.8749
   -26.8728 -26.8491 -26.8404 -26.8358 -24.1692 -23.9593 -23.6550 -23.5732
   -23.3134 -23.1786 -23.1556 -23.0550 -22.9282 -22.8611 -22.8433 -22.6264
   -22.4889 -22.4392 -22.3849 -22.3380 -22.2706 -22.2205 -21.7466 -21.6871
   -21.6155 -20.1838 -19.9522 -19.8204 -19.8093 -19.6288 -19.6031 -19.5852
   -19.5691 -19.5589 -19.5317 -19.3767 -19.3576 -18.1399 -17.9285 -17.8040
     1.4552   2.8287   2.9396   3.1489   3.3066   3.4649   3.4971   3.6825
     3.7500   3.8605   3.9285   4.0493   4.3027   4.5175   4.5755   4.6909
     4.7430   4.9151   5.0386   5.0709   5.1257   5.2664   5.2968   5.3295
     5.4117   5.5696   5.5816   5.7330   5.7536   5.7653   5.7775   5.8014
     5.9360   6.1082   6.1632   6.2377   6.2785   6.3313   6.3753   6.3822
     6.4665   6.6619   6.6771   6.6889   6.8562   6.9612   7.0199   7.0545
     7.1043   7.1523   7.2745   7.3265   7.3401   7.4244   7.5423   7.5779
     7.6331   7.6716   7.9016   7.9623   8.0932   8.0967   8.1306   8.1958
     8.2575   8.3566   8.3595   8.3739   8.5137   8.5237   8.6339   8.7606
     8.7843   8.9059   8.9543   9.0688   9.2086   9.2454   9.2955

 ------ SPIN DOWN ----------


          k = 0.0000 0.0000 0.0000 ( 61588 PWs)   bands (ev):

   -60.7730 -60.7632 -60.7267 -60.7164 -60.6941 -60.6821 -60.6491 -60.6360
   -60.4787 -60.3011 -54.3867 -54.3372 -54.2624 -54.2133 -52.6846 -46.2441
   -46.2391 -41.6542 -41.6151 -41.5456 -41.5138 -39.7890 -27.7722 -27.7646
   -27.6877 -27.6766 -27.5835 -27.5766 -27.4549 -27.4475 -27.3440 -27.3243
   -27.2729 -27.2590 -27.2461 -27.2249 -27.2147 -27.1590 -27.1504 -27.1134
   -27.0516 -27.0072 -26.9518 -26.9472 -26.9353 -26.9306 -26.9201 -26.8744
   -26.8724 -26.8486 -26.8401 -26.8358 -24.1691 -23.9593 -23.6550 -23.5731
   -23.3134 -23.1786 -23.1555 -23.0550 -22.9281 -22.8611 -22.8433 -22.6264
   -22.4889 -22.4392 -22.3848 -22.3380 -22.2705 -22.2205 -21.7466 -21.6871
   -21.6156 -20.1828 -19.9531 -19.8194 -19.8082 -19.6287 -19.6029 -19.5847
   -19.5697 -19.5575 -19.5323 -19.3774 -19.3561 -18.1399 -17.9285 -17.8039
     1.4555   2.8289   2.9402   3.1491   3.3067   3.4657   3.4974   3.6827
     3.7503   3.8608   3.9291   4.0498   4.3030   4.5176   4.5758   4.6911
     4.7433   4.9156   5.0387   5.0718   5.1261   5.2667   5.2971   5.3298
     5.4125   5.5699   5.5818   5.7334   5.7543   5.7654   5.7777   5.8018
     5.9362   6.1089   6.1636   6.2380   6.2788   6.3317   6.3756   6.3826
     6.4670   6.6622   6.6774   6.6894   6.8569   6.9619   7.0213   7.0549
     7.1064   7.1535   7.2758   7.3269   7.3421   7.4263   7.5422   7.5792
     7.6339   7.6723   7.9021   7.9628   8.0941   8.0976   8.1311   8.1970
     8.2586   8.3569   8.3604   8.3746   8.5145   8.5243   8.6343   8.7610
     8.7847   8.9073   8.9551   9.0694   9.2093   9.2457   9.2959

     the Fermi energy is     7.2476 ev

!    total energy              =   -2943.06918373 Ry
     estimated scf accuracy    <       0.00026594 Ry
     smearing contrib. (-TS)   =      -0.10094877 Ry
     internal energy E=F+TS    =   -2942.96823496 Ry

     total magnetization       =     0.02 Bohr mag/cell
     absolute magnetization    =     0.03 Bohr mag/cell

     convergence has been achieved in   4 iterations

     negative rho (up, down):  9.089E-01 9.089E-01

     Forces acting on atoms (cartesian axes, Ry/au):

     atom    1 type  1   force =    -0.01235859   -0.02214924    0.00627122
     atom    2 type  1   force =    -0.11928046   -0.01428426   -0.00342851
     atom    3 type  1   force =    -0.11779651    0.01245129    0.00127147
     atom    4 type  1   force =     0.11731425   -0.02011971   -0.00721049
     atom    5 type  1   force =     0.11792202    0.01675725   -0.00101970
     atom    6 type  2   force =    -0.00800678   -0.02065725    0.00582711
     atom    7 type  2   force =    -0.01265595    0.01204563   -0.00704934
     atom    8 type  3   force =    -0.12107032    0.00279799   -0.00001294
     atom    9 type  3   force =     0.12112106    0.00495568   -0.01622348
     atom   10 type  3   force =    -0.02270843   -0.03152147   -0.05915926
     atom   11 type  3   force =    -0.02190246   -0.03579535    0.05879319
     atom   12 type  3   force =    -0.01813224    0.03613046   -0.05343693
     atom   13 type  3   force =    -0.02209827    0.02849120    0.06195709
     atom   14 type  3   force =     0.02574134   -0.02874749   -0.05507424
     atom   15 type  3   force =     0.01900996   -0.03993686    0.05399704
     atom   16 type  3   force =     0.02163844    0.03230808   -0.05007292
     atom   17 type  3   force =     0.01854549    0.03437030    0.05879554
     atom   18 type  4   force =    -0.00984435    0.02972195   -0.01373339
     atom   19 type  4   force =    -0.12854062   -0.00460363   -0.11517298
     atom   20 type  4   force =    -0.13419860    0.00560768    0.11181674
     atom   21 type  4   force =     0.12676835   -0.00484465   -0.11740966
     atom   22 type  4   force =     0.15631150    0.00775782    0.10205294
     atom   23 type  5   force =     0.02422118   -0.00073542    0.03822152
     The non-local contrib.  to forces
     atom    1 type  1   force =    -0.00910318   -0.01308566    0.03452885
     atom    2 type  1   force =    -0.24681351   -0.16187338    0.01570645
     atom    3 type  1   force =    -0.24103634    0.15869434   -0.02806228
     atom    4 type  1   force =     0.26225770   -0.15931329    0.02886773
     atom    5 type  1   force =     0.25181354    0.15465238   -0.01665269
     atom    6 type  2   force =     0.00369893   -0.05424636   -0.06480115
     atom    7 type  2   force =    -0.01864563    0.05420043    0.05608648
     atom    8 type  3   force =    -0.26584009    0.00143384   -0.00102493
     atom    9 type  3   force =     0.06248138    0.00039769   -0.08942957
     atom   10 type  3   force =    -0.21344362    0.00561933   -0.20595348
     atom   11 type  3   force =    -0.21619644    0.00954649    0.19481977
     atom   12 type  3   force =    -0.20294898   -0.01985560   -0.17873991
     atom   13 type  3   force =    -0.20606599   -0.00774772    0.20780762
     atom   14 type  3   force =     0.20484410    0.00443286   -0.21863548
     atom   15 type  3   force =     0.22929736    0.00651748    0.18094568
     atom   16 type  3   force =     0.19422916   -0.02045615   -0.18963815
     atom   17 type  3   force =     0.21949186   -0.00392437    0.19353131
     atom   18 type  4   force =     0.00263995    0.06010663   -0.06346024
     atom   19 type  4   force =     0.06136851    0.00933780    0.07427860
     atom   20 type  4   force =     0.05072340   -0.01345081   -0.05926457
     atom   21 type  4   force =    -0.05448941    0.01030769    0.07678158
     atom   22 type  4   force =    -0.05970515   -0.01025336   -0.08761221
     atom   23 type  5   force =    -0.05397326   -0.00008664   -0.02365345
     The ionic contribution  to forces
     atom    1 type  1   force =    -0.38256185   -4.77245483   14.05287014
     atom    2 type  1   force =   -39.68210903   -6.18631852    0.72923000
     atom    3 type  1   force =   -39.65494656    6.17338163   -0.76434435
     atom    4 type  1   force =    39.44184396   -6.41026822    0.64582660
     atom    5 type  1   force =    39.41211143    6.39990923   -0.84587943
     atom    6 type  2   force =    -0.19973439   -3.63396829  -14.05246366
     atom    7 type  2   force =    -0.40751358    3.78130418   13.98927854
     atom    8 type  3   force =   -52.12837636    0.07188722   -0.15511536
     atom    9 type  3   force =    50.17006479    0.07294886   -1.18125724
     atom   10 type  3   force =   -36.05225095   -2.11497969  -23.07776362
     atom   11 type  3   force =   -35.13804986   -0.89469967   22.11779761
     atom   12 type  3   force =   -35.23626264    0.81729183  -22.13082953
     atom   13 type  3   force =   -36.03827168    2.22857491   23.09623281
     atom   14 type  3   force =    35.96655770   -2.15146776  -23.12948913
     atom   15 type  3   force =    34.95724193   -1.02528598   22.23691209
     atom   16 type  3   force =    35.15136498    0.85331413  -22.18183832
     atom   17 type  3   force =    35.85566485    2.36012367   23.21564765
     atom   18 type  4   force =    -0.18651442    4.43705964  -14.00368445
     atom   19 type  4   force =   -35.89335163    0.95666771  -25.54866241
     atom   20 type  4   force =   -35.89784991   -0.95270857   25.58832653
     atom   21 type  4   force =    35.76227485    0.95595413  -25.67507559
     atom   22 type  4   force =    35.36506316   -0.94911495   26.14655123
     atom   23 type  5   force =     4.81560522   -0.01715067    0.92772990
     The local contribution  to forces
     atom    1 type  1   force =     0.37200574    4.76711163  -14.09037840
     atom    2 type  1   force =    39.81456753    6.33689456   -0.75548232
     atom    3 type  1   force =    39.78269490   -6.32346027    0.78820058
     atom    4 type  1   force =   -39.59902364    6.55349646   -0.69326507
     atom    5 type  1   force =   -39.55840170   -6.54142232    0.85110910
     atom    6 type  2   force =     0.18362796    3.66502512   14.11688939
     atom    7 type  2   force =     0.40586425   -3.82544467  -14.06018282
     atom    8 type  3   force =    52.30119472   -0.07075440    0.14887312
     atom    9 type  3   force =   -50.11696906   -0.06948397    1.26286580
     atom   10 type  3   force =    36.25698298    2.06616121   23.24135031
     atom   11 type  3   force =    35.34371714    0.84227597  -22.26968671
     atom   12 type  3   force =    35.43606546   -0.75074814   22.27247338
     atom   13 type  3   force =    36.23183458   -2.18735470  -23.25687564
     atom   14 type  3   force =   -36.16803737    2.10459843   23.31166319
     atom   15 type  3   force =   -35.18930364    0.96981417  -22.37655256
     atom   16 type  3   force =   -35.34631102   -0.78803431   22.33972218
     atom   17 type  3   force =   -36.07681482   -2.31441319  -23.36228282
     atom   18 type  4   force =     0.16999158   -4.46314997   14.04561896
     atom   19 type  4   force =    35.70758482   -0.96963930   25.37082580
     atom   20 type  4   force =    35.71531933    0.97251392  -25.42471582
     atom   21 type  4   force =   -35.59222924   -0.96974706   25.49383875
     atom   22 type  4   force =   -35.16869284    0.96712191  -25.96320201
     atom   23 type  5   force =    -4.74041039    0.01649967   -0.86907387
     The core correction contribution to forces
     atom    1 type  1   force =     0.00248474    0.00045355    0.00010351
     atom    2 type  1   force =    -0.01262229   -0.00186464   -0.00010258
     atom    3 type  1   force =    -0.01246360    0.00284816   -0.00206136
     atom    4 type  1   force =     0.01368828   -0.00304043    0.00316261
     atom    5 type  1   force =     0.01386770    0.00305476    0.00106919
     atom    6 type  2   force =    -0.00025655    0.00233012    0.00261334
     atom    7 type  2   force =     0.00065434   -0.00262910   -0.00199360
     atom    8 type  3   force =    -0.03232761    0.00020963    0.00030201
     atom    9 type  3   force =     0.01032209    0.00063358   -0.01143472
     atom   10 type  3   force =    -0.02147498    0.00997784   -0.01582374
     atom   11 type  3   force =    -0.02431634    0.00936877    0.01750170
     atom   12 type  3   force =    -0.02161691   -0.01006374   -0.01522822
     atom   13 type  3   force =    -0.02294743   -0.00882021    0.01737402
     atom   14 type  3   force =     0.02255275    0.01015278   -0.01644927
     atom   15 type  3   force =     0.02508579    0.01058325    0.01364981
     atom   16 type  3   force =     0.02223527   -0.01067729   -0.01599668
     atom   17 type  3   force =     0.02300047   -0.00917417    0.01428496
     atom   18 type  4   force =    -0.00019368   -0.00312200    0.00308324
     atom   19 type  4   force =    -0.00978769    0.00004408   -0.00966719
     atom   20 type  4   force =    -0.00934137    0.00035718    0.00883045
     atom   21 type  4   force =     0.00939127   -0.00001122   -0.00999047
     atom   22 type  4   force =     0.01014260    0.00017968    0.01012049
     atom   23 type  5   force =     0.00000000    0.00000000    0.00000000
     The Hubbard contrib.    to forces
     atom    1 type  1   force =     0.00000000    0.00000000    0.00000000
     atom    2 type  1   force =     0.00000000    0.00000000    0.00000000
     atom    3 type  1   force =     0.00000000    0.00000000    0.00000000
     atom    4 type  1   force =     0.00000000    0.00000000    0.00000000
     atom    5 type  1   force =     0.00000000    0.00000000    0.00000000
     atom    6 type  2   force =     0.00000000    0.00000000    0.00000000
     atom    7 type  2   force =     0.00000000    0.00000000    0.00000000
     atom    8 type  3   force =     0.00000000    0.00000000    0.00000000
     atom    9 type  3   force =     0.00000000    0.00000000    0.00000000
     atom   10 type  3   force =     0.00000000    0.00000000    0.00000000
     atom   11 type  3   force =     0.00000000    0.00000000    0.00000000
     atom   12 type  3   force =     0.00000000    0.00000000    0.00000000
     atom   13 type  3   force =     0.00000000    0.00000000    0.00000000
     atom   14 type  3   force =     0.00000000    0.00000000    0.00000000
     atom   15 type  3   force =     0.00000000    0.00000000    0.00000000
     atom   16 type  3   force =     0.00000000    0.00000000    0.00000000
     atom   17 type  3   force =     0.00000000    0.00000000    0.00000000
     atom   18 type  4   force =     0.00000000    0.00000000    0.00000000
     atom   19 type  4   force =     0.00000000    0.00000000    0.00000000
     atom   20 type  4   force =     0.00000000    0.00000000    0.00000000
     atom   21 type  4   force =     0.00000000    0.00000000    0.00000000
     atom   22 type  4   force =     0.00000000    0.00000000    0.00000000
     atom   23 type  5   force =     0.00000000    0.00000000    0.00000000
     The SCF correction term to forces
     atom    1 type  1   force =     0.00423717   -0.00413271    0.00860521
     atom    2 type  1   force =     0.00711805   -0.00108106    0.00667805
     atom    3 type  1   force =     0.00737630    0.00102864    0.00699698
     atom    4 type  1   force =    -0.00203085   -0.00095302    0.00765574
     atom    5 type  1   force =    -0.00204773    0.00060442    0.00879223
     atom    6 type  2   force =     0.00407849    0.00024338    0.00304728
     atom    7 type  2   force =     0.00640590    0.00465601    0.00922015
     atom    8 type  3   force =     0.00370024    0.00006291    0.00641032
     atom    9 type  3   force =    -0.00535692    0.00050073    0.00249035
     atom   10 type  3   force =     0.00689935    0.00174104   -0.00151063
     atom   11 type  3   force =     0.01236425   -0.00224571   -0.00218108
     atom   12 type  3   force =     0.00605204   -0.00045267   -0.00165456
     atom   13 type  3   force =     0.01277346    0.00388013   -0.00312363
     atom   14 type  3   force =    -0.00075463    0.00357741   -0.00270546
     atom   15 type  3   force =    -0.00389027   -0.00152457   -0.00149989
     atom   16 type  3   force =    -0.00045874   -0.00179709   -0.00286387
     atom   17 type  3   force =    -0.00337565    0.00179956   -0.00292748
     atom   18 type  4   force =     0.00365344   -0.00113114    0.00416719
     atom   19 type  4   force =     0.00506658   -0.00097272   -0.00248968
     atom   20 type  4   force =     0.00637116   -0.00106283   -0.00190175
     atom   21 type  4   force =     0.00124210   -0.00130697   -0.00350583
     atom   22 type  4   force =     0.00892494   -0.00013425   -0.00434646
     atom   23 type  5   force =     0.00242082    0.00004343    0.00267704

     Total force =     0.504655     Total SCF correction =     0.038402


     Computing stress (Cartesian axis) and pressure


     negative rho (up, down):  9.089E-01 9.089E-01
          total   stress  (Ry/bohr**3)                   (kbar)     P=       84.82
   0.00069417   0.00000079   0.00002092          102.12        0.12        3.08
   0.00000079   0.00066709  -0.00001234            0.12       98.13       -1.82
   0.00002092  -0.00001234   0.00036857            3.08       -1.82       54.22


     Entering Dynamics:    iteration =     2
                           time      =   0.0004 pico-seconds


ATOMIC_POSITIONS (angstrom)
Hf            2.6702163707        2.8271203412        6.6040907228
Hf            1.2531950049        1.2862824115        5.0585916260
Hf            1.2556913843        7.3898058593        5.0881936897
Hf            4.0872401610        1.2862817605        5.0585912164
Hf            4.0847440400        7.3898063421        5.0881934697
Nb            2.6702159820        2.7969262166        3.5157103300
Nb            2.6702148252        5.8763813658        6.6351220100
Ta            1.2095772553        4.3409281920        5.0712514484
Ta            4.1308606468        4.3409283620        5.0712514373
Ta            1.3074678017        1.3141189802        2.0588980508
Ta            1.3030036896        1.3083870530        8.0947115065
Ta            1.3042252902        7.3758302737        2.0463567781
Ta            1.3079261313        7.3650862719        8.0861349153
Ta            4.0329678465        1.3141193284        2.0588984967
Ta            4.0374313156        1.3083865966        8.0947110035
Ta            4.0362104089        7.3758298354        2.0463571507
Ta            4.0325088043        7.3650868766        8.0861345413
Zr            2.6702155633        5.8662923970        3.5275065106
Zr            1.2440233947        4.3220768893        2.0000996386
Zr            1.2405728799        4.3541245024        8.1499064169
Zr            4.0964115023        4.3220768362        2.0000993452
Zr            4.0998681770        4.3541250129        8.1499039465
H             5.5011719178        4.3399950904        5.8637237102


     kinetic energy (Ekin) =           8.09395411 Ry
     temperature           =       38725.28121002 K 
     Ekin + Etot (const)   =       -2934.97522962 Ry
     Ions kinetic stress =          142.95 (kbar)
                                    321.83           0.00         185.58
                                      0.00           0.00           0.00
                                    185.58           0.00         107.01



     Linear momentum :    0.0000000000    0.0000000000   -0.0000000000

     Writing config-only to output data dir outdir/pwscf.save/
     NEW-OLD atomic charge density approx. for the potential

     Check: negative core charge=   -0.000002

     negative rho (up, down):  9.088E-01 9.088E-01
     Generating pointlists ...
     new r_m :   0.0699 (alat units)  1.2339 (a.u.) for type    3
     new r_m :   0.0699 (alat units)  1.2339 (a.u.) for type    5

     total cpu time spent up to now is      568.4 secs

     Self-consistent Calculation

     iteration #  1     ecut=   120.00 Ry     beta= 0.70
     Davidson diagonalization with overlap
     c_bands:  1 eigenvalues not converged
     c_bands:  1 eigenvalues not converged
     ethr =  1.00E-06,  avg # of iterations = 20.0

     negative rho (up, down):  9.090E-01 9.090E-01

     total cpu time spent up to now is      603.4 secs

     total energy              =   -2943.02408334 Ry
     estimated scf accuracy    <       0.06394691 Ry

     total magnetization       =     0.02 Bohr mag/cell
     absolute magnetization    =     0.03 Bohr mag/cell

     iteration #  2     ecut=   120.00 Ry     beta= 0.70
     Davidson diagonalization with overlap
     ethr =  2.31E-05,  avg # of iterations =  2.0

     negative rho (up, down):  9.089E-01 9.089E-01

     total cpu time spent up to now is      620.4 secs

     total energy              =   -2943.02873142 Ry
     estimated scf accuracy    <       0.03077706 Ry

     total magnetization       =     0.02 Bohr mag/cell
     absolute magnetization    =     0.03 Bohr mag/cell

     iteration #  3     ecut=   120.00 Ry     beta= 0.70
     Davidson diagonalization with overlap
     ethr =  1.11E-05,  avg # of iterations =  1.0

     negative rho (up, down):  9.088E-01 9.088E-01

     total cpu time spent up to now is      635.9 secs

     total energy              =   -2943.03034353 Ry
     estimated scf accuracy    <       0.00197184 Ry

     total magnetization       =     0.02 Bohr mag/cell
     absolute magnetization    =     0.03 Bohr mag/cell

     iteration #  4     ecut=   120.00 Ry     beta= 0.70
     Davidson diagonalization with overlap
     ethr =  7.12E-07,  avg # of iterations =  2.0

     negative rho (up, down):  9.087E-01 9.087E-01

     Magnetic moment per site  (integrated on atomic sphere of radius R)
     atom   1 (R=0.112)  charge=  9.4649  magn=  0.0000
     atom   2 (R=0.112)  charge=  9.0585  magn= -0.0000
     atom   3 (R=0.112)  charge=  9.0584  magn=  0.0000
     atom   4 (R=0.112)  charge=  9.0593  magn=  0.0001
     atom   5 (R=0.112)  charge=  9.0586  magn=  0.0002
     atom   6 (R=0.110)  charge= 10.3513  magn=  0.0000
     atom   7 (R=0.110)  charge= 10.3487  magn=  0.0001
     atom   8 (R=0.070)  charge=  5.8295  magn=  0.0000
     atom   9 (R=0.070)  charge=  5.8480  magn= -0.0000
     atom  10 (R=0.070)  charge=  5.8154  magn= -0.0000
     atom  11 (R=0.070)  charge=  5.8141  magn= -0.0000
     atom  12 (R=0.070)  charge=  5.8138  magn=  0.0001
     atom  13 (R=0.070)  charge=  5.8160  magn=  0.0000
     atom  14 (R=0.070)  charge=  5.8130  magn=  0.0002
     atom  15 (R=0.070)  charge=  5.8125  magn=  0.0002
     atom  16 (R=0.070)  charge=  5.8123  magn=  0.0005
     atom  17 (R=0.070)  charge=  5.8133  magn=  0.0003
     atom  18 (R=0.111)  charge=  9.4561  magn= -0.0000
     atom  19 (R=0.111)  charge=  8.9977  magn=  0.0004
     atom  20 (R=0.111)  charge=  8.9986  magn= -0.0007
     atom  21 (R=0.111)  charge=  8.9976  magn=  0.0012
     atom  22 (R=0.111)  charge=  8.9909  magn=  0.0002
     atom  23 (R=0.070)  charge=  0.8946  magn=  0.0000

     total cpu time spent up to now is      669.3 secs

     End of self-consistent calculation

 ------ SPIN UP ------------


          k = 0.0000 0.0000 0.0000 ( 61588 PWs)   bands (ev):

   -60.7773 -60.7713 -60.7297 -60.7257 -60.6978 -60.6912 -60.6511 -60.6467
   -60.4632 -60.1625 -54.3895 -54.3436 -54.2650 -54.2195 -52.6836 -46.2510
   -46.2441 -41.6595 -41.6189 -41.5439 -41.5166 -39.8056 -27.7769 -27.7723
   -27.6909 -27.6849 -27.5888 -27.5844 -27.4619 -27.4537 -27.3423 -27.3294
   -27.2640 -27.2593 -27.2520 -27.2285 -27.2207 -27.1608 -27.1576 -27.1052
   -27.0377 -26.9557 -26.9523 -26.9500 -26.9390 -26.8976 -26.8808 -26.8719
   -26.8520 -26.8462 -26.8237 -26.8081 -24.1730 -23.9632 -23.6602 -23.5783
   -23.3177 -23.1829 -23.1603 -23.0592 -22.9323 -22.8664 -22.8471 -22.6313
   -22.4952 -22.4457 -22.3896 -22.3417 -22.2765 -22.2250 -21.7476 -21.6857
   -21.6150 -20.1877 -19.9560 -19.8253 -19.8111 -19.6354 -19.6075 -19.5897
   -19.5711 -19.5599 -19.5310 -19.3777 -19.3599 -18.1582 -17.9408 -17.8176
     1.4057   2.5632   2.9330   3.1443   3.2961   3.4591   3.4882   3.6763
     3.7413   3.8636   3.9245   4.0391   4.2968   4.5188   4.5305   4.6874
     4.7351   4.9008   5.0350   5.0670   5.1255   5.2608   5.2915   5.3296
     5.4113   5.5646   5.5797   5.7319   5.7553   5.7582   5.7790   5.7938
     5.9289   6.1065   6.1610   6.2349   6.2726   6.3319   6.3705   6.3733
     6.4628   6.6571   6.6807   6.6909   6.8599   6.9616   7.0155   7.0515
     7.1030   7.1505   7.2675   7.3157   7.3274   7.4196   7.5419   7.5622
     7.6226   7.6676   7.8981   7.9643   8.0872   8.0909   8.1275   8.1895
     8.2534   8.3536   8.3549   8.3721   8.5175   8.5213   8.6322   8.7635
     8.7803   8.9033   8.9593   9.0649   9.1944   9.2490   9.2951

 ------ SPIN DOWN ----------


          k = 0.0000 0.0000 0.0000 ( 61588 PWs)   bands (ev):

   -60.7769 -60.7710 -60.7295 -60.7254 -60.6973 -60.6910 -60.6508 -60.6464
   -60.4632 -60.1625 -54.3895 -54.3436 -54.2649 -54.2195 -52.6836 -46.2509
   -46.2441 -41.6594 -41.6182 -41.5444 -41.5158 -39.8056 -27.7764 -27.7718
   -27.6905 -27.6845 -27.5885 -27.5840 -27.4615 -27.4531 -27.3420 -27.3291
   -27.2638 -27.2592 -27.2516 -27.2282 -27.2202 -27.1605 -27.1573 -27.1050
   -27.0376 -26.9554 -26.9519 -26.9496 -26.9384 -26.8972 -26.8804 -26.8717
   -26.8516 -26.8460 -26.8236 -26.8082 -24.1729 -23.9631 -23.6602 -23.5782
   -23.3176 -23.1828 -23.1602 -23.0591 -22.9322 -22.8664 -22.8471 -22.6312
   -22.4952 -22.4457 -22.3895 -22.3417 -22.2764 -22.2249 -21.7476 -21.6857
   -21.6150 -20.1869 -19.9565 -19.8247 -19.8103 -19.6352 -19.6073 -19.5893
   -19.5716 -19.5588 -19.5314 -19.3782 -19.3588 -18.1582 -17.9407 -17.8175
     1.4060   2.5633   2.9336   3.1445   3.2962   3.4598   3.4886   3.6766
     3.7416   3.8638   3.9250   4.0395   4.2972   4.5190   4.5307   4.6876
     4.7355   4.9013   5.0352   5.0678   5.1259   5.2611   5.2917   5.3299
     5.4120   5.5649   5.5799   5.7323   5.7558   5.7584   5.7793   5.7941
     5.9291   6.1072   6.1614   6.2352   6.2729   6.3323   6.3708   6.3736
     6.4633   6.6575   6.6810   6.6913   6.8604   6.9623   7.0169   7.0518
     7.1048   7.1516   7.2688   7.3169   7.3282   7.4214   7.5424   7.5631
     7.6233   7.6682   7.8986   7.9648   8.0881   8.0916   8.1280   8.1905
     8.2545   8.3539   8.3557   8.3727   8.5181   8.5220   8.6326   8.7639
     8.7808   8.9047   8.9600   9.0654   9.1949   9.2492   9.2954

     the Fermi energy is     7.2420 ev

!    total energy              =   -2943.03028609 Ry
     estimated scf accuracy    <       0.00034529 Ry
     smearing contrib. (-TS)   =      -0.10219968 Ry
     internal energy E=F+TS    =   -2942.92808641 Ry

     total magnetization       =     0.02 Bohr mag/cell
     absolute magnetization    =     0.03 Bohr mag/cell

     convergence has been achieved in   4 iterations

     negative rho (up, down):  9.087E-01 9.087E-01

     Forces acting on atoms (cartesian axes, Ry/au):

     atom    1 type  1   force =    -0.00933881   -0.02489048    0.01188563
     atom    2 type  1   force =    -0.11465441   -0.01592818    0.00163357
     atom    3 type  1   force =    -0.11338514    0.01443411    0.00600710
     atom    4 type  1   force =     0.11305228   -0.02082774   -0.00147041
     atom    5 type  1   force =     0.11376052    0.01760335    0.00467897
     atom    6 type  2   force =    -0.00942400   -0.02180596    0.00322628
     atom    7 type  2   force =    -0.01269853    0.01204298   -0.00745329
     atom    8 type  3   force =    -0.12546059    0.00283828    0.00344588
     atom    9 type  3   force =     0.01230931    0.00728693   -0.08695603
     atom   10 type  3   force =    -0.02064754   -0.03037282   -0.06038666
     atom   11 type  3   force =    -0.01907899   -0.03599531    0.05644601
     atom   12 type  3   force =    -0.01645306    0.03554766   -0.05476453
     atom   13 type  3   force =    -0.01946575    0.02942129    0.05938250
     atom   14 type  3   force =     0.02363474   -0.02739368   -0.05749239
     atom   15 type  3   force =     0.01649580   -0.04031387    0.05163675
     atom   16 type  3   force =     0.01973687    0.03139035   -0.05245931
     atom   17 type  3   force =     0.01649579    0.03582461    0.05677486
     atom   18 type  4   force =    -0.00920819    0.03007162   -0.01360951
     atom   19 type  4   force =    -0.12738146   -0.00474116   -0.11641680
     atom   20 type  4   force =    -0.13217958    0.00514433    0.10986374
     atom   21 type  4   force =     0.12566738   -0.00523440   -0.12086591
     atom   22 type  4   force =     0.14874596    0.00728638    0.10428762
     atom   23 type  5   force =     0.13947741   -0.00138831    0.10260595
     The non-local contrib.  to forces
     atom    1 type  1   force =    -0.00787865   -0.01435597    0.03860164
     atom    2 type  1   force =    -0.24329794   -0.16314789    0.01897114
     atom    3 type  1   force =    -0.23768058    0.16004820   -0.02480533
     atom    4 type  1   force =     0.25927676   -0.16078233    0.03067510
     atom    5 type  1   force =     0.24879157    0.15560335   -0.01517011
     atom    6 type  2   force =     0.00460106   -0.05560144   -0.06577673
     atom    7 type  2   force =    -0.01772363    0.05367524    0.05708548
     atom    8 type  3   force =    -0.25692542    0.00144895   -0.00111042
     atom    9 type  3   force =     0.04419783    0.00259933   -0.10729069
     atom   10 type  3   force =    -0.21205158    0.00645103   -0.20830748
     atom   11 type  3   force =    -0.21220405    0.01123331    0.19341751
     atom   12 type  3   force =    -0.20197972   -0.02056118   -0.18122778
     atom   13 type  3   force =    -0.20235714   -0.00904767    0.20626745
     atom   14 type  3   force =     0.20516997    0.00473375   -0.22015759
     atom   15 type  3   force =     0.22511681    0.00369026    0.18256324
     atom   16 type  3   force =     0.19483946   -0.02050852   -0.19100172
     atom   17 type  3   force =     0.21594093   -0.00069498    0.19557660
     atom   18 type  4   force =     0.00448899    0.06053367   -0.06413369
     atom   19 type  4   force =     0.06402465    0.00930373    0.07386115
     atom   20 type  4   force =     0.05338509   -0.01371774   -0.06096374
     atom   21 type  4   force =    -0.05533471    0.01016674    0.07644101
     atom   22 type  4   force =    -0.06022763   -0.01070701   -0.08202803
     atom   23 type  5   force =    -0.07531102   -0.00018060   -0.03785098
     The ionic contribution  to forces
     atom    1 type  1   force =    -0.42457713   -4.80120268   14.08406232
     atom    2 type  1   force =   -39.70205219   -6.18968145    0.73354090
     atom    3 type  1   force =   -39.67499469    6.17677329   -0.75993660
     atom    4 type  1   force =    39.44515423   -6.44574645    0.65002407
     atom    5 type  1   force =    39.41547193    6.43562637   -0.84117825
     atom    6 type  2   force =    -0.23101967   -3.65302864  -14.07654195
     atom    7 type  2   force =    -0.45136721    3.81183082   14.02288278
     atom    8 type  3   force =   -52.18129147    0.07188395   -0.14898733
     atom    9 type  3   force =    49.61040993    0.07348665   -1.50243371
     atom   10 type  3   force =   -36.06122232   -2.11654679  -23.08309226
     atom   11 type  3   force =   -35.15212835   -0.89446116   22.12032812
     atom   12 type  3   force =   -35.24520939    0.81885122  -22.13617402
     atom   13 type  3   force =   -36.05238817    2.22837864   23.09883324
     atom   14 type  3   force =    35.96795453   -2.15851230  -23.14343447
     atom   15 type  3   force =    34.97086964   -1.02756981   22.24734179
     atom   16 type  3   force =    35.15284157    0.86025601  -22.19571662
     atom   17 type  3   force =    35.86927705    2.36251528   23.22623132
     atom   18 type  4   force =    -0.21585287    4.45471529  -14.02609538
     atom   19 type  4   force =   -35.90651088    0.95661639  -25.55622655
     atom   20 type  4   force =   -35.92387267   -0.95270535   25.59212306
     atom   21 type  4   force =    35.76092151    0.95577253  -25.70953281
     atom   22 type  4   force =    35.41206823   -0.94902708   26.18829901
     atom   23 type  5   force =     5.61751839   -0.01822471    1.21568336
     The local contribution  to forces
     atom    1 type  1   force =     0.42800860    4.78538239  -14.10185748
     atom    2 type  1   force =    39.85421690    6.33491998   -0.74033772
     atom    3 type  1   force =    39.82254011   -6.32110420    0.80204108
     atom    4 type  1   force =   -39.61027297    6.58760735   -0.67320762
     atom    5 type  1   force =   -39.56939965   -6.57494315    0.87080225
     atom    6 type  2   force =     0.22536275    3.68075047   14.14648830
     atom    7 type  2   force =     0.46422968   -3.84711727  -14.07661352
     atom    8 type  3   force =    52.35290245   -0.07093746    0.16444084
     atom    9 type  3   force =   -49.64430466   -0.07047285    1.55423927
     atom   10 type  3   force =    36.28741702    2.07334431   23.24553223
     atom   11 type  3   force =    35.38500956    0.83800638  -22.27769925
     atom   12 type  3   force =    35.46582600   -0.75523308   22.27792776
     atom   13 type  3   force =    36.27216841   -2.17846904  -23.26585804
     atom   14 type  3   force =   -36.17395936    2.11770847   23.31714976
     atom   15 type  3   force =   -35.20606602    0.97022839  -22.39246893
     atom   16 type  3   force =   -35.35162897   -0.79862133   22.34624929
     atom   17 type  3   force =   -36.09212102   -2.31079706  -23.37981020
     atom   18 type  4   force =     0.21001458   -4.47907652   14.07724356
     atom   19 type  4   force =    35.73561538   -0.97145474   25.37234823
     atom   20 type  4   force =    35.75825305    0.96924937  -25.42918189
     atom   21 type  4   force =   -35.59104891   -0.97159581   25.51850760
     atom   22 type  4   force =   -35.22173671    0.96459550  -26.00725405
     atom   23 type  5   force =    -5.40606243    0.01690423   -1.07561495
     The core correction contribution to forces
     atom    1 type  1   force =     0.00230509    0.00034827    0.00012707
     atom    2 type  1   force =    -0.01240906   -0.00197204    0.00002677
     atom    3 type  1   force =    -0.01226673    0.00292437   -0.00190995
     atom    4 type  1   force =     0.01349043   -0.00312150    0.00274864
     atom    5 type  1   force =     0.01364884    0.00305157    0.00070370
     atom    6 type  2   force =    -0.00024869    0.00248881    0.00273205
     atom    7 type  2   force =     0.00062996   -0.00261585   -0.00201872
     atom    8 type  3   force =    -0.03145318    0.00026311    0.00027045
     atom    9 type  3   force =     0.00819551    0.00110248   -0.01445776
     atom   10 type  3   force =    -0.02144648    0.01005441   -0.01587125
     atom   11 type  3   force =    -0.02434748    0.00948671    0.01751466
     atom   12 type  3   force =    -0.02159087   -0.01008401   -0.01530569
     atom   13 type  3   force =    -0.02300051   -0.00894325    0.01739720
     atom   14 type  3   force =     0.02261222    0.00996921   -0.01652796
     atom   15 type  3   force =     0.02464288    0.01039650    0.01393845
     atom   16 type  3   force =     0.02231099   -0.01055313   -0.01608810
     atom   17 type  3   force =     0.02265615   -0.00899703    0.01466179
     atom   18 type  4   force =    -0.00017678   -0.00323440    0.00325547
     atom   19 type  4   force =    -0.00983078    0.00003785   -0.00970097
     atom   20 type  4   force =    -0.00939402    0.00035559    0.00890663
     atom   21 type  4   force =     0.00942321   -0.00001551   -0.01005258
     atom   22 type  4   force =     0.01025098    0.00019230    0.00976717
     atom   23 type  5   force =     0.00000000    0.00000000    0.00000000
     The Hubbard contrib.    to forces
     atom    1 type  1   force =     0.00000000    0.00000000    0.00000000
     atom    2 type  1   force =     0.00000000    0.00000000    0.00000000
     atom    3 type  1   force =     0.00000000    0.00000000    0.00000000
     atom    4 type  1   force =     0.00000000    0.00000000    0.00000000
     atom    5 type  1   force =     0.00000000    0.00000000    0.00000000
     atom    6 type  2   force =     0.00000000    0.00000000    0.00000000
     atom    7 type  2   force =     0.00000000    0.00000000    0.00000000
     atom    8 type  3   force =     0.00000000    0.00000000    0.00000000
     atom    9 type  3   force =     0.00000000    0.00000000    0.00000000
     atom   10 type  3   force =     0.00000000    0.00000000    0.00000000
     atom   11 type  3   force =     0.00000000    0.00000000    0.00000000
     atom   12 type  3   force =     0.00000000    0.00000000    0.00000000
     atom   13 type  3   force =     0.00000000    0.00000000    0.00000000
     atom   14 type  3   force =     0.00000000    0.00000000    0.00000000
     atom   15 type  3   force =     0.00000000    0.00000000    0.00000000
     atom   16 type  3   force =     0.00000000    0.00000000    0.00000000
     atom   17 type  3   force =     0.00000000    0.00000000    0.00000000
     atom   18 type  4   force =     0.00000000    0.00000000    0.00000000
     atom   19 type  4   force =     0.00000000    0.00000000    0.00000000
     atom   20 type  4   force =     0.00000000    0.00000000    0.00000000
     atom   21 type  4   force =     0.00000000    0.00000000    0.00000000
     atom   22 type  4   force =     0.00000000    0.00000000    0.00000000
     atom   23 type  5   force =     0.00000000    0.00000000    0.00000000
     The SCF correction term to forces
     atom    1 type  1   force =    -0.00650981    0.00491734   -0.00838994
     atom    2 type  1   force =    -0.01042521    0.00393305   -0.00990955
     atom    3 type  1   force =    -0.01029635   -0.00422772   -0.00872412
     atom    4 type  1   force =     0.00609074    0.00119502   -0.01105261
     atom    5 type  1   force =     0.00593475   -0.00175495   -0.00982065
     atom    6 type  2   force =    -0.00743255    0.00356467   -0.00301740
     atom    7 type  2   force =    -0.00778043   -0.00375013   -0.00813133
     atom    8 type  3   force =    -0.00800608    0.00015956   -0.01050968
     atom    9 type  3   force =    -0.00550238    0.00055115   -0.01635516
     atom   10 type  3   force =    -0.01265728   -0.00369595    0.00201008
     atom   11 type  3   force =    -0.01472177   -0.00028072    0.00354294
     atom   12 type  3   force =    -0.01281217    0.00255454    0.00067318
     atom   13 type  3   force =    -0.01320143   -0.00251756    0.00340063
     atom   14 type  3   force =     0.00254428   -0.00131298    0.00613586
     atom   15 type  3   force =     0.00261939    0.00292062    0.00092018
     atom   16 type  3   force =     0.00206074    0.00079716    0.00475582
     atom   17 type  3   force =     0.00142959   -0.00622177    0.00077333
     atom   18 type  4   force =    -0.00699520   -0.00288659   -0.00322149
     atom   19 type  4   force =    -0.00999293    0.00073543    0.00395932
     atom   20 type  4   force =    -0.00986413    0.00194229   -0.00036233
     atom   21 type  4   force =     0.00239319    0.00041748    0.00442884
     atom   22 type  4   force =     0.00907799    0.00221250   -0.00383849
     atom   23 type  5   force =     0.00401938    0.00009260    0.00104649

     Total force =     0.519175     Total SCF correction =     0.053632
     SCF correction compared to forces is large: reduce conv_thr to get better values


     Computing stress (Cartesian axis) and pressure


     negative rho (up, down):  9.087E-01 9.087E-01
          total   stress  (Ry/bohr**3)                   (kbar)     P=       88.77
   0.00076291   0.00000104   0.00004532          112.23        0.15        6.67
   0.00000104   0.00066166  -0.00001184            0.15       97.33       -1.74
[...]
     atom   17 type  3   force =     0.20837222   -0.00198224    0.19840298
     atom   18 type  4   force =    -0.01235343    0.05738554   -0.06154005
     atom   19 type  4   force =     0.06457303    0.01269498    0.07906668
     atom   20 type  4   force =     0.04917470   -0.01498977   -0.06409588
     atom   21 type  4   force =    -0.06383592    0.00991897    0.07456076
     atom   22 type  4   force =    -0.05763320   -0.01447568   -0.06649099
     atom   23 type  5   force =     0.30095114   -0.00131613    0.19065508
     The ionic contribution  to forces
     atom    1 type  1   force =    -0.55433333   -4.96992626   14.31247070
     atom    2 type  1   force =   -39.79266755   -6.22411831    0.75631099
     atom    3 type  1   force =   -39.76584429    6.21150993   -0.73644892
     atom    4 type  1   force =    39.53169405   -6.59833220    0.70909106
     atom    5 type  1   force =    39.50301303    6.58811434   -0.77948909
     atom    6 type  2   force =    -0.40736682   -3.82050623  -14.24931643
     atom    7 type  2   force =    -0.58237114    3.98838391   14.26477490
     atom    8 type  3   force =   -52.48676699    0.07182783   -0.11842928
     atom    9 type  3   force =    36.21411844    0.11084844   -9.36784344
     atom   10 type  3   force =   -36.10391072   -2.13039143  -23.11205709
     atom   11 type  3   force =   -35.19578838   -0.89791917   22.13347370
     atom   12 type  3   force =   -35.28798611    0.83266984  -22.16528036
     atom   13 type  3   force =   -36.09592928    2.23210073   23.11233196
     atom   14 type  3   force =    35.99085676   -2.19903950  -23.20630121
     atom   15 type  3   force =    35.04961671   -1.01021150   22.26196073
     atom   16 type  3   force =    35.17620250    0.90022583  -22.25837054
     atom   17 type  3   force =    35.94812138    2.34526190   23.24130699
     atom   18 type  4   force =    -0.38209312    4.61033435  -14.18743298
     atom   19 type  4   force =   -35.97801626    0.95603487  -25.60523357
     atom   20 type  4   force =   -36.00407854   -0.95247308   25.62015651
     atom   21 type  4   force =    35.78632785    0.95437542  -25.90813097
     atom   22 type  4   force =    35.69727530   -0.94941991   26.17895065
     atom   23 type  5   force =    19.73992652   -0.04934980    9.10350568
     The local contribution  to forces
     atom    1 type  1   force =     0.54481015    4.96167701  -14.34814644
     atom    2 type  1   force =    39.91772649    6.37732663   -0.78423625
     atom    3 type  1   force =    39.88595221   -6.36390230    0.76114078
     atom    4 type  1   force =   -39.66574045    6.73819976   -0.73499308
     atom    5 type  1   force =   -39.62909805   -6.72267157    0.80749942
     atom    6 type  2   force =     0.40998159    3.87709787   14.31566135
     atom    7 type  2   force =     0.58368220   -4.04249584  -14.33498383
     atom    8 type  3   force =    52.60629205   -0.06804735    0.13614673
     atom    9 type  3   force =   -49.59179931   -0.07587442    1.59639774
     atom   10 type  3   force =    36.28016279    2.06719786   23.27624851
     atom   11 type  3   force =    35.38660176    0.82885474  -22.28137800
     atom   12 type  3   force =    35.45668016   -0.74409317   22.30490179
     atom   13 type  3   force =    36.27373351   -2.17395112  -23.27232584
     atom   14 type  3   force =   -36.21361414    2.16656808   23.38982854
     atom   15 type  3   force =   -35.28355336    0.96216277  -22.41305296
     atom   16 type  3   force =   -35.39267236   -0.84337813   22.41670143
     atom   17 type  3   force =   -36.16862533   -2.30454206  -23.40397447
     atom   18 type  4   force =     0.38205151   -4.65251973   14.24186619
     atom   19 type  4   force =    35.77486644   -0.97531408   25.42354646
     atom   20 type  4   force =    35.80443770    0.97258304  -25.44878655
     atom   21 type  4   force =   -35.61227084   -0.97098466   25.72932302
     atom   22 type  4   force =   -35.51419233    0.96815960  -26.00880321
     atom   23 type  5   force =    -8.41433685    0.01772633   -2.39348480
     The core correction contribution to forces
     atom    1 type  1   force =     0.00116828    0.00107776    0.00062899
     atom    2 type  1   force =    -0.01270393   -0.00228588    0.00082493
     atom    3 type  1   force =    -0.01289145    0.00336414   -0.00108596
     atom    4 type  1   force =     0.01071439   -0.00180972    0.00062631
     atom    5 type  1   force =     0.01086023    0.00151185   -0.00040694
     atom    6 type  2   force =     0.00080900    0.00394083    0.00288273
     atom    7 type  2   force =     0.00091096   -0.00347406   -0.00217086
     atom    8 type  3   force =    -0.02821925    0.00018426   -0.00067489
     atom    9 type  3   force =     0.32971476    0.00042450    0.16451285
     atom   10 type  3   force =    -0.02002678    0.00900595   -0.01480627
     atom   11 type  3   force =    -0.02356326    0.00983549    0.01699262
     atom   12 type  3   force =    -0.02057857   -0.00935538   -0.01501395
     atom   13 type  3   force =    -0.02130458   -0.00868426    0.01653260
     atom   14 type  3   force =     0.02168717    0.00856890   -0.01675452
     atom   15 type  3   force =     0.02413253    0.00896523    0.01615111
     atom   16 type  3   force =     0.02195920   -0.00907465   -0.01659652
     atom   17 type  3   force =     0.02212900   -0.00800488    0.01633127
     atom   18 type  4   force =     0.00051455   -0.00345616    0.00310001
     atom   19 type  4   force =    -0.00996552   -0.00012979   -0.00996501
     atom   20 type  4   force =    -0.00927157    0.00042710    0.00922259
     atom   21 type  4   force =     0.00980992   -0.00000369   -0.00941442
     atom   22 type  4   force =     0.00968501    0.00038935    0.00912590
     atom   23 type  5   force =     0.00000000    0.00000000    0.00000000
     The Hubbard contrib.    to forces
     atom    1 type  1   force =     0.00000000    0.00000000    0.00000000
     atom    2 type  1   force =     0.00000000    0.00000000    0.00000000
     atom    3 type  1   force =     0.00000000    0.00000000    0.00000000
     atom    4 type  1   force =     0.00000000    0.00000000    0.00000000
     atom    5 type  1   force =     0.00000000    0.00000000    0.00000000
     atom    6 type  2   force =     0.00000000    0.00000000    0.00000000
     atom    7 type  2   force =     0.00000000    0.00000000    0.00000000
     atom    8 type  3   force =     0.00000000    0.00000000    0.00000000
     atom    9 type  3   force =     0.00000000    0.00000000    0.00000000
     atom   10 type  3   force =     0.00000000    0.00000000    0.00000000
     atom   11 type  3   force =     0.00000000    0.00000000    0.00000000
     atom   12 type  3   force =     0.00000000    0.00000000    0.00000000
     atom   13 type  3   force =     0.00000000    0.00000000    0.00000000
     atom   14 type  3   force =     0.00000000    0.00000000    0.00000000
     atom   15 type  3   force =     0.00000000    0.00000000    0.00000000
     atom   16 type  3   force =     0.00000000    0.00000000    0.00000000
     atom   17 type  3   force =     0.00000000    0.00000000    0.00000000
     atom   18 type  4   force =     0.00000000    0.00000000    0.00000000
     atom   19 type  4   force =     0.00000000    0.00000000    0.00000000
     atom   20 type  4   force =     0.00000000    0.00000000    0.00000000
     atom   21 type  4   force =     0.00000000    0.00000000    0.00000000
     atom   22 type  4   force =     0.00000000    0.00000000    0.00000000
     atom   23 type  5   force =     0.00000000    0.00000000    0.00000000
     The SCF correction term to forces
     atom    1 type  1   force =     0.01956920    0.00528196    0.00234227
     atom    2 type  1   force =     0.01369433    0.00087272    0.00539746
     atom    3 type  1   force =     0.01338714   -0.00116940    0.00472695
     atom    4 type  1   force =    -0.00024597    0.00397709    0.00402297
     atom    5 type  1   force =     0.00084746   -0.00490187    0.00402876
     atom    6 type  2   force =     0.02673806    0.00392295    0.00845496
     atom    7 type  2   force =     0.02590735   -0.00620080    0.00351522
     atom    8 type  3   force =     0.01540161    0.00023186    0.01048903
     atom    9 type  3   force =     0.01805298    0.00072461    0.01602200
     atom   10 type  3   force =     0.02118188   -0.00124854   -0.00382874
     atom   11 type  3   force =     0.02258294    0.00063909    0.00070106
     atom   12 type  3   force =     0.02209168   -0.00072336   -0.00432351
     atom   13 type  3   force =     0.02315030   -0.00069149    0.00133892
     atom   14 type  3   force =     0.01294982   -0.00187592   -0.00899099
     atom   15 type  3   force =     0.00696049    0.00134046    0.00491692
     atom   16 type  3   force =     0.01277207   -0.00004338   -0.00924022
     atom   17 type  3   force =     0.00715318   -0.00275519    0.00523743
     atom   18 type  4   force =     0.02418100   -0.00222567    0.00627067
     atom   19 type  4   force =     0.01695073    0.00143761   -0.00337299
     atom   20 type  4   force =     0.02242397    0.00006320   -0.00194250
     atom   21 type  4   force =     0.00982157    0.00118278   -0.00356216
     atom   22 type  4   force =     0.00005522    0.00124981    0.00156752
     atom   23 type  5   force =     0.00052685    0.00006229    0.00096236

     Total force =    19.100012     Total SCF correction =     0.087170


     Computing stress (Cartesian axis) and pressure


     negative rho (up, down):  9.077E-01 9.077E-01
          total   stress  (Ry/bohr**3)                   (kbar)     P=      221.33
   0.00277621  -0.00000317   0.00125718          408.39       -0.47      184.94
  -0.00000317   0.00062079  -0.00001391           -0.47       91.32       -2.05
   0.00125718  -0.00001391   0.00111669          184.94       -2.05      164.27


     Entering Dynamics:    iteration =     8
                           time      =   0.0016 pico-seconds


ATOMIC_POSITIONS (angstrom)
Hf            2.6708570625        2.8270827174        6.6044839746
Hf            1.2536457012        1.2862560603        5.0589660456
Hf            1.2561437433        7.3898294871        5.0885766287
Hf            4.0880921916        1.2862479323        5.0589604098
Hf            4.0855971863        7.3898345229        5.0885731395
Nb            2.6708519884        2.7968618340        3.5161046315
Nb            2.6708417638        5.8764151508        6.6354749563
Ta            1.2100145848        4.3409330134        5.0716377506
Ta            4.1297397186        4.3409480790        5.0704055457
Ta            1.3080834253        1.3140652266        2.0591767193
Ta            1.3036205848        1.3083249711        8.0951858900
Ta            1.3048474146        7.3758920575        2.0466438047
Ta            1.3085431490        7.3651364599        8.0866140092
Ta            4.0336625380        1.3140737372        2.0591814210
Ta            4.0381164086        1.3083210019        8.0951776075
Ta            4.0368992003        7.3758824661        2.0466476266
Ta            4.0331932183        7.3651441556        8.0866097500
Zr            2.6708500351        5.8663821888        3.5278472387
Zr            1.2442444185        4.3220612653        2.0000887416
Zr            1.2407767916        4.3541426119        8.1506572392
Zr            4.0974957972        4.3220590584        2.0000709328
Zr            4.1010176393        4.3541493930        8.1506441970
H             4.5978226176        4.3392612202        5.3483894289


     kinetic energy (Ekin) =           2.70065154 Ry
     temperature           =       12921.18648952 K 
     Ekin + Etot (const)   =       -2935.05657606 Ry
     Ions kinetic stress =           47.70 (kbar)
                                    109.01           0.28          60.92
                                      0.28           0.00           0.15
                                     60.92           0.15          34.08



     Linear momentum :    0.0000000000   -0.0000000000   -0.0000000000

     Writing config-only to output data dir outdir/pwscf.save/
     NEW-OLD atomic charge density approx. for the potential

     Check: negative core charge=   -0.000002

     negative rho (up, down):  9.062E-01 9.062E-01
     Generating pointlists ...
     new r_m :   0.0240 (alat units)  0.4244 (a.u.) for type    3
     new r_m :   0.0240 (alat units)  0.4244 (a.u.) for type    5

     total cpu time spent up to now is     1608.8 secs

     Self-consistent Calculation

     iteration #  1     ecut=   120.00 Ry     beta= 0.70
     Davidson diagonalization with overlap
     ethr =  1.00E-06,  avg # of iterations = 17.5

     negative rho (up, down):  9.066E-01 9.066E-01

     total cpu time spent up to now is     1646.6 secs

     total energy              =   -2935.06758207 Ry
     estimated scf accuracy    <       0.14397468 Ry

     total magnetization       =     0.01 Bohr mag/cell
     absolute magnetization    =     0.01 Bohr mag/cell

     iteration #  2     ecut=   120.00 Ry     beta= 0.70
     Davidson diagonalization with overlap
     ethr =  5.20E-05,  avg # of iterations =  3.0

     negative rho (up, down):  9.066E-01 9.066E-01

     total cpu time spent up to now is     1664.0 secs

     total energy              =   -2935.07783550 Ry
     estimated scf accuracy    <       0.05527362 Ry

     total magnetization       =     0.01 Bohr mag/cell
     absolute magnetization    =     0.01 Bohr mag/cell

     iteration #  3     ecut=   120.00 Ry     beta= 0.70
     Davidson diagonalization with overlap
     ethr =  2.00E-05,  avg # of iterations =  1.0

     negative rho (up, down):  9.065E-01 9.065E-01

     total cpu time spent up to now is     1679.7 secs

     total energy              =   -2935.08137888 Ry
     estimated scf accuracy    <       0.00162799 Ry

     total magnetization       =     0.01 Bohr mag/cell
     absolute magnetization    =     0.01 Bohr mag/cell

     iteration #  4     ecut=   120.00 Ry     beta= 0.70
     Davidson diagonalization with overlap
     ethr =  5.88E-07,  avg # of iterations =  5.0

     negative rho (up, down):  9.065E-01 9.065E-01

     total cpu time spent up to now is     1713.7 secs

     total energy              =   -2935.08157929 Ry
     estimated scf accuracy    <       0.00204807 Ry

     total magnetization       =     0.01 Bohr mag/cell
     absolute magnetization    =     0.01 Bohr mag/cell

     iteration #  5     ecut=   120.00 Ry     beta= 0.70
     Davidson diagonalization with overlap
     ethr =  5.88E-07,  avg # of iterations =  2.0

     negative rho (up, down):  9.065E-01 9.065E-01

     Magnetic moment per site  (integrated on atomic sphere of radius R)
     atom   1 (R=0.112)  charge=  9.4521  magn=  0.0000
     atom   2 (R=0.112)  charge=  9.0583  magn=  0.0000
     atom   3 (R=0.112)  charge=  9.0585  magn=  0.0000
     atom   4 (R=0.112)  charge=  9.0524  magn=  0.0000
     atom   5 (R=0.112)  charge=  9.0531  magn=  0.0000
     atom   6 (R=0.110)  charge= 10.3321  magn=  0.0000
     atom   7 (R=0.110)  charge= 10.3386  magn=  0.0000
     atom   8 (R=0.024)  charge= -0.0857  magn=  0.0000
     atom   9 (R=0.024)  charge= -0.0779  magn=  0.0000
     atom  10 (R=0.024)  charge= -0.0864  magn=  0.0000
     atom  11 (R=0.024)  charge= -0.0858  magn=  0.0000
     atom  12 (R=0.024)  charge= -0.0849  magn=  0.0000
     atom  13 (R=0.024)  charge= -0.0867  magn=  0.0000
     atom  14 (R=0.024)  charge= -0.0849  magn= -0.0000
     atom  15 (R=0.024)  charge= -0.0847  magn= -0.0000
     atom  16 (R=0.024)  charge= -0.0848  magn= -0.0000
     atom  17 (R=0.024)  charge= -0.0850  magn= -0.0000
     atom  18 (R=0.111)  charge=  9.4377  magn=  0.0000
     atom  19 (R=0.111)  charge=  8.9941  magn=  0.0002
     atom  20 (R=0.111)  charge=  8.9932  magn= -0.0000
     atom  21 (R=0.111)  charge=  8.9929  magn=  0.0005
     atom  22 (R=0.111)  charge=  8.9919  magn=  0.0002
     atom  23 (R=0.024)  charge=  0.4389  magn=  0.0000

     total cpu time spent up to now is     1749.3 secs

     End of self-consistent calculation

 ------ SPIN UP ------------


          k = 0.0000 0.0000 0.0000 ( 61588 PWs)   bands (ev):

   -64.6843 -60.7924 -60.7821 -60.7535 -60.7466 -60.7263 -60.7131 -60.6997
   -60.6696 -60.6488 -54.4058 -54.3510 -54.2815 -54.2272 -52.7279 -46.3639
   -46.3017 -41.6548 -41.6459 -41.5362 -41.5352 -39.8877 -32.2564 -28.4310
   -28.3584 -27.7883 -27.7750 -27.7040 -27.6804 -27.6073 -27.5879 -27.5017
   -27.4737 -27.4595 -27.3505 -27.3363 -27.3332 -27.2851 -27.2672 -27.2525
   -27.2376 -27.2276 -27.1786 -27.1589 -26.9714 -26.9542 -26.9519 -26.9490
   -26.8917 -26.8843 -26.8676 -26.8496 -24.1961 -23.9796 -23.6925 -23.5932
   -23.3431 -23.2146 -23.1759 -23.0847 -22.9644 -22.8746 -22.8676 -22.6410
   -22.5956 -22.5174 -22.4362 -22.3978 -22.3247 -22.2816 -21.7821 -21.7236
   -21.6551 -20.2194 -19.9303 -19.8649 -19.8322 -19.6373 -19.6277 -19.5980
   -19.5798 -19.5687 -19.5309 -19.3813 -19.3621 -18.2286 -18.0151 -17.8912
     1.5086   2.8720   3.0143   3.1105   3.3063   3.4024   3.4728   3.5917
     3.6318   3.8544   3.8983   4.0941   4.2762   4.4254   4.5816   4.6602
     4.6955   4.9223   5.0298   5.0767   5.1889   5.2300   5.2477   5.3551
     5.3992   5.5194   5.6159   5.6844   5.6984   5.7276   5.7547   5.8885
     5.9099   6.0876   6.1145   6.2136   6.2499   6.3419   6.3585   6.3908
     6.4572   6.6329   6.6516   6.7500   6.9077   6.9746   7.0022   7.0866
     7.1266   7.1541   7.2638   7.2916   7.3446   7.4240   7.4676   7.5701
     7.6021   7.6553   7.8860   7.9636   8.0532   8.0838   8.1056   8.1069
     8.1716   8.2283   8.3508   8.3789   8.5035   8.5261   8.6455   8.7145
     8.8084   8.8685   8.9093   9.0476   9.0967   9.1277   9.1919

 ------ SPIN DOWN ----------


          k = 0.0000 0.0000 0.0000 ( 61588 PWs)   bands (ev):

   -64.6842 -60.7923 -60.7819 -60.7535 -60.7465 -60.7262 -60.7129 -60.6995
   -60.6695 -60.6487 -54.4058 -54.3510 -54.2815 -54.2271 -52.7279 -46.3639
   -46.3016 -41.6544 -41.6457 -41.5361 -41.5351 -39.8877 -32.2563 -28.4309
   -28.3583 -27.7880 -27.7748 -27.7038 -27.6802 -27.6071 -27.5877 -27.5016
   -27.4735 -27.4593 -27.3503 -27.3362 -27.3331 -27.2850 -27.2671 -27.2524
   -27.2374 -27.2274 -27.1784 -27.1588 -26.9712 -26.9540 -26.9516 -26.9487
   -26.8915 -26.8841 -26.8673 -26.8494 -24.1961 -23.9796 -23.6925 -23.5932
   -23.3431 -23.2146 -23.1758 -23.0847 -22.9644 -22.8746 -22.8676 -22.6410
   -22.5956 -22.5173 -22.4361 -22.3978 -22.3247 -22.2816 -21.7821 -21.7236
   -21.6551 -20.2190 -19.9302 -19.8645 -19.8320 -19.6369 -19.6274 -19.5978
   -19.5796 -19.5687 -19.5309 -19.3808 -19.3620 -18.2286 -18.0150 -17.8911
     1.5088   2.8722   3.0144   3.1106   3.3064   3.4025   3.4732   3.5918
     3.6319   3.8545   3.8986   4.0944   4.2763   4.4255   4.5817   4.6604
     4.6957   4.9225   5.0300   5.0769   5.1891   5.2301   5.2479   5.3554
     5.3994   5.5196   5.6161   5.6846   5.6985   5.7278   5.7550   5.8888
     5.9101   6.0879   6.1147   6.2137   6.2501   6.3420   6.3586   6.3911
     6.4574   6.6331   6.6517   6.7502   6.9080   6.9750   7.0028   7.0876
     7.1272   7.1544   7.2643   7.2918   7.3451   7.4248   7.4685   7.5705
     7.6025   7.6556   7.8863   7.9639   8.0535   8.0842   8.1058   8.1071
     8.1719   8.2291   8.3513   8.3793   8.5037   8.5264   8.6457   8.7147
     8.8087   8.8687   8.9099   9.0478   9.0968   9.1279   9.1921

     the Fermi energy is     7.2433 ev

!    total energy              =   -2935.08116066 Ry
     estimated scf accuracy    <       0.00054094 Ry
     smearing contrib. (-TS)   =      -0.10828201 Ry
     internal energy E=F+TS    =   -2934.97287865 Ry

     total magnetization       =     0.01 Bohr mag/cell
     absolute magnetization    =     0.01 Bohr mag/cell

     convergence has been achieved in   5 iterations
