
     Program PWSCF v.7.2 starts on 12Jun2023 at 15: 9:45 

     This program is part of the open-source Quantum ESPRESSO suite
     for quantum simulation of materials; please cite
         "P. Giannozzi et al., J. Phys.:Condens. Matter 21 395502 (2009);
         "P. Giannozzi et al., J. Phys.:Condens. Matter 29 465901 (2017);
         "P. Giannozzi et al., J. Chem. Phys. 152 154105 (2020);
          URL http://www.quantum-espresso.org", 
     in publications or presentations arising from this work. More details at
     http://www.quantum-espresso.org/quote

     Parallel version (MPI), running on    42 processors

     MPI processes distributed on     1 nodes
     181592 MiB available memory on the printing compute node when the environment starts

     Reading input from md_data/md_Hf5Nb2Ta10Zr5H_30steps_2000eV_incident75_polar0.in
Warning: card &CELL ignored
Warning: card / ignored

     Current dimensions of program PWSCF are:
     Max number of different atomic species (ntypx) = 10
     Max number of k-points (npk) =  40000
     Max angular momentum in pseudopotentials (lmaxx) =  4

     File outdir/pwscf.md deleted, as requested

     gamma-point specific algorithms are used

     R & G space division:  proc/nbgrp/npool/nimage =      42
     Subspace diagonalization in iterative solution of the eigenvalue problem:
     one sub-group per band group will be used
     custom distributed-memory algorithm (size of sub-group:  2*  2 procs)


     Parallelization info
     --------------------
     sticks:   dense  smooth     PW     G-vecs:    dense   smooth      PW
     Min         262     262     63                23470    23470    2920
     Max         265     265     66                23484    23484    2942
     Sum       11057   11057   2753               986005   986005  123175

     Using Slab Decomposition



     bravais-lattice index     =            0
     lattice parameter (alat)  =      17.6500  a.u.
     unit-cell volume          =    5552.8853 (a.u.)^3
     number of atoms/cell      =           23
     number of atomic types    =            5
     number of electrons       =       277.00
     number of Kohn-Sham states=          167
     kinetic-energy cutoff     =     120.0000  Ry
     charge density cutoff     =     480.0000  Ry
     scf convergence threshold =      1.0E-03
     mixing beta               =       0.7000
     number of iterations used =            8  TF        mixing
     energy convergence thresh.=      0.0E+00
     force convergence thresh. =      0.0E+00
     Exchange-correlation=  SLA  PW   PBX  PBC
                           (   1   4   3   4   0   0   0)
     nstep                     =           30


     celldm(1)=  17.650041  celldm(2)=   0.000000  celldm(3)=   0.000000
     celldm(4)=   0.000000  celldm(5)=   0.000000  celldm(6)=   0.000000

     crystal axes: (cart. coord. in units of alat)
               a(1) = (   1.000000   0.000000   0.000000 )  
               a(2) = (   0.000000   0.929336   0.000000 )  
               a(3) = (   0.000000   0.000000   1.086698 )  

     reciprocal axes: (cart. coord. in units 2 pi/alat)
               b(1) = (  1.000000  0.000000  0.000000 )  
               b(2) = (  0.000000  1.076037  0.000000 )  
               b(3) = (  0.000000  0.000000  0.920219 )  


     PseudoPot. # 1 for Hf read from file:
     q-e/pseudo/hf_pbe_v1.uspp.F.UPF
     MD5 check sum: 8ee9378dfe14276e333edf04c5e4aa26
     Pseudo is Ultrasoft + core correction, Zval = 12.0
     Generated by new atomic code, or converted to UPF format
     Using radial grid of  921 points,  8 beta functions with: 
                l(1) =   0
                l(2) =   0
                l(3) =   0
                l(4) =   1
                l(5) =   1
                l(6) =   2
                l(7) =   2
                l(8) =   3
     Q(r) pseudized with  6 coefficients,  rinner =    1.200   1.200   1.200
                                                       1.200   1.200   1.200
                                                       1.200

     PseudoPot. # 2 for Nb read from file:
     q-e/pseudo/nb_pbe_v1.uspp.F.UPF
     MD5 check sum: 573aab8a2fa660278ed4a62cd769473f
     Pseudo is Ultrasoft + core correction, Zval = 13.0
     Generated by new atomic code, or converted to UPF format
     Using radial grid of  887 points,  6 beta functions with: 
                l(1) =   0
                l(2) =   0
                l(3) =   1
                l(4) =   1
                l(5) =   2
                l(6) =   2
     Q(r) pseudized with  6 coefficients,  rinner =    1.000   1.000   1.000
                                                       1.000   1.000

     PseudoPot. # 3 for Ta read from file:
     q-e/pseudo/ta_pbe_v1.uspp.F.UPF
     MD5 check sum: f8bbe9446314a3b8ea5d9f3e3836c939
     Pseudo is Ultrasoft + core correction, Zval = 13.0
     Generated by new atomic code, or converted to UPF format
     Using radial grid of  921 points,  7 beta functions with: 
                l(1) =   0
                l(2) =   0
                l(3) =   1
                l(4) =   1
                l(5) =   2
                l(6) =   2
                l(7) =   3
     Q(r) pseudized with  6 coefficients,  rinner =    1.300   1.300   1.300
                                                       1.300   1.300   1.300
                                                       1.300

     PseudoPot. # 4 for Zr read from file:
     q-e/pseudo/zr_pbe_v1.uspp.F.UPF
     MD5 check sum: 5db81b1e868ab7776c4564c113de050b
     Pseudo is Ultrasoft + core correction, Zval = 12.0
     Generated by new atomic code, or converted to UPF format
     Using radial grid of  887 points,  6 beta functions with: 
                l(1) =   0
                l(2) =   0
                l(3) =   1
                l(4) =   1
                l(5) =   2
                l(6) =   2
     Q(r) pseudized with  6 coefficients,  rinner =    1.200   1.200   1.200
                                                       1.200   1.200

     PseudoPot. # 5 for H  read from file:
     q-e/pseudo/h_pbe_v1.4.uspp.F.UPF
     MD5 check sum: 761ae9a214b05c3daf00ab9f6b793d6f
     Pseudo is Ultrasoft, Zval =  1.0
     Generated by new atomic code, or converted to UPF format
     Using radial grid of  615 points,  2 beta functions with: 
                l(1) =   0
                l(2) =   0
     Q(r) pseudized with  8 coefficients,  rinner =    0.700

     atomic species   valence    mass     pseudopotential
        Hf            12.00   178.49000     Hf( 1.00)
        Nb            13.00    92.90637     Nb( 1.00)
        Ta            13.00   180.94788     Ta( 1.00)
        Zr            12.00    91.22400     Zr( 1.00)
        H              1.00     2.01400     H ( 1.00)

     Starting magnetic structure 
     atomic species   magnetization
        Hf           0.000
        Nb           0.000
        Ta           0.000
        Zr           0.000
        H            0.000

     No symmetry found



   Cartesian axes

     site n.     atom                  positions (alat units)
         1           Hf  tau(   1) = (   0.2858672   0.3026898   0.7070626  )
         2           Hf  tau(   2) = (   0.1341532   0.1377178   0.5415917  )
         3           Hf  tau(   3) = (   0.1344204   0.7911996   0.5447610  )
         4           Hf  tau(   4) = (   0.4375813   0.1377178   0.5415917  )
         5           Hf  tau(   5) = (   0.4373140   0.7911996   0.5447610  )
         6           Nb  tau(   6) = (   0.2858672   0.2994572   0.3764008  )
         7           Nb  tau(   7) = (   0.2858672   0.6291626   0.7103852  )
         8           Ta  tau(   8) = (   0.1294832   0.4647675   0.5429471  )
         9           Ta  tau(   9) = (   0.4422513   0.4647675   0.5429471  )
        10           Ta  tau(  10) = (   0.1399628   0.1406984   0.2204260  )
        11           Ta  tau(  11) = (   0.1394848   0.1400847   0.8666573  )
        12           Ta  tau(  12) = (   0.1396156   0.7897030   0.2190832  )
        13           Ta  tau(  13) = (   0.1400119   0.7885528   0.8657390  )
        14           Ta  tau(  14) = (   0.4317717   0.1406984   0.2204260  )
        15           Ta  tau(  15) = (   0.4322496   0.1400847   0.8666573  )
        16           Ta  tau(  16) = (   0.4321189   0.7897030   0.2190832  )
        17           Ta  tau(  17) = (   0.4317226   0.7885528   0.8657390  )
        18           Zr  tau(  18) = (   0.2858672   0.6280820   0.3776642  )
        19           Zr  tau(  19) = (   0.1331729   0.4627493   0.2141328  )
        20           Zr  tau(  20) = (   0.1328036   0.4661802   0.8725649  )
        21           Zr  tau(  21) = (   0.4385616   0.4627493   0.2141328  )
        22           Zr  tau(  22) = (   0.4389309   0.4661802   0.8725649  )
        23           H   tau(  23) = (   0.4976729   0.6715045   0.5430600  )

     number of k points=     1  Gaussian smearing, width (Ry)=  0.0220
                       cart. coord. in units 2pi/alat
        k(    1) = (   0.0000000   0.0000000   0.0000000), wk =   1.0000000

     Dense  grid:   493003 G-vectors     FFT dimensions: ( 125, 120, 135)

     Estimated max dynamical RAM per process >     133.03 MB

     Estimated total dynamical RAM >       5.46 GB

     Check: negative core charge=   -0.000002
     Generating pointlists ...
     new r_m :   0.0553 (alat units)  0.9761 (a.u.) for type    1
     new r_m :   0.1098 (alat units)  1.9374 (a.u.) for type    2
     new r_m :   0.0883 (alat units)  1.5583 (a.u.) for type    3
     new r_m :   0.1112 (alat units)  1.9625 (a.u.) for type    4
     new r_m :   0.0553 (alat units)  0.9761 (a.u.) for type    5

     Initial potential from superposition of free atoms

     starting charge     266.9726, renormalised to     277.0000

     negative rho (up, down):  9.211E-01 9.211E-01
     Starting wfcs are  287 randomized atomic wfcs

     total cpu time spent up to now is       12.0 secs

     Self-consistent Calculation

     iteration #  1     ecut=   120.00 Ry     beta= 0.70
     Davidson diagonalization with overlap
     ethr =  1.00E-02,  avg # of iterations =  2.0

     negative rho (up, down):  9.927E-01 9.923E-01

     total cpu time spent up to now is       31.2 secs

     total energy              =   -2930.58431981 Ry
     estimated scf accuracy    <     275.85505655 Ry

     total magnetization       =    -0.00 Bohr mag/cell
     absolute magnetization    =     0.09 Bohr mag/cell

     iteration #  2     ecut=   120.00 Ry     beta= 0.70
     Davidson diagonalization with overlap
     ethr =  1.00E-02,  avg # of iterations =  5.0

     negative rho (up, down):  9.673E-01 9.665E-01

     total cpu time spent up to now is       52.5 secs

     total energy              =   -2941.92298597 Ry
     estimated scf accuracy    <      29.81418509 Ry

     total magnetization       =    -0.02 Bohr mag/cell
     absolute magnetization    =     0.11 Bohr mag/cell

     iteration #  3     ecut=   120.00 Ry     beta= 0.70
     Davidson diagonalization with overlap
     ethr =  1.00E-02,  avg # of iterations =  2.0

     negative rho (up, down):  1.001E+00 9.999E-01

     total cpu time spent up to now is       71.1 secs

     total energy              =   -2942.29453221 Ry
     estimated scf accuracy    <      13.12204740 Ry

     total magnetization       =    -0.02 Bohr mag/cell
     absolute magnetization    =     0.11 Bohr mag/cell

     iteration #  4     ecut=   120.00 Ry     beta= 0.70
     Davidson diagonalization with overlap
     ethr =  4.74E-03,  avg # of iterations =  5.0

     negative rho (up, down):  1.003E+00 1.002E+00

     total cpu time spent up to now is       88.9 secs

     total energy              =   -2942.62701708 Ry
     estimated scf accuracy    <       2.93715729 Ry

     total magnetization       =    -0.07 Bohr mag/cell
     absolute magnetization    =     0.19 Bohr mag/cell

     iteration #  5     ecut=   120.00 Ry     beta= 0.70
     Davidson diagonalization with overlap
     ethr =  1.06E-03,  avg # of iterations =  7.0

     negative rho (up, down):  9.797E-01 9.785E-01

     total cpu time spent up to now is      110.5 secs

     total energy              =   -2942.76049617 Ry
     estimated scf accuracy    <       1.26550550 Ry

     total magnetization       =    -0.01 Bohr mag/cell
     absolute magnetization    =     0.12 Bohr mag/cell

     iteration #  6     ecut=   120.00 Ry     beta= 0.70
     Davidson diagonalization with overlap
     ethr =  4.57E-04,  avg # of iterations =  3.0

     negative rho (up, down):  9.705E-01 9.694E-01

     total cpu time spent up to now is      127.9 secs

     total energy              =   -2942.77546172 Ry
     estimated scf accuracy    <       1.10134664 Ry

     total magnetization       =    -0.02 Bohr mag/cell
     absolute magnetization    =     0.09 Bohr mag/cell

     iteration #  7     ecut=   120.00 Ry     beta= 0.70
     Davidson diagonalization with overlap
     ethr =  3.98E-04,  avg # of iterations =  2.0

     negative rho (up, down):  9.411E-01 9.409E-01

     total cpu time spent up to now is      151.2 secs

     total energy              =   -2942.73884484 Ry
     estimated scf accuracy    <       0.30874565 Ry

     total magnetization       =    -0.02 Bohr mag/cell
     absolute magnetization    =     0.08 Bohr mag/cell

     iteration #  8     ecut=   120.00 Ry     beta= 0.70
     Davidson diagonalization with overlap
     ethr =  1.11E-04,  avg # of iterations =  8.0

     negative rho (up, down):  9.201E-01 9.202E-01

     total cpu time spent up to now is      192.3 secs

     total energy              =   -2942.73037887 Ry
     estimated scf accuracy    <       0.28067786 Ry

     total magnetization       =    -0.02 Bohr mag/cell
     absolute magnetization    =     0.06 Bohr mag/cell

     iteration #  9     ecut=   120.00 Ry     beta= 0.70
     Davidson diagonalization with overlap
     ethr =  1.01E-04,  avg # of iterations =  2.0

     negative rho (up, down):  9.088E-01 9.088E-01

     total cpu time spent up to now is      223.7 secs

     total energy              =   -2942.73325608 Ry
     estimated scf accuracy    <       0.07252185 Ry

     total magnetization       =    -0.01 Bohr mag/cell
     absolute magnetization    =     0.05 Bohr mag/cell

     iteration # 10     ecut=   120.00 Ry     beta= 0.70
     Davidson diagonalization with overlap
     ethr =  2.62E-05,  avg # of iterations = 13.5

     negative rho (up, down):  9.070E-01 9.070E-01

     total cpu time spent up to now is      245.5 secs

     total energy              =   -2942.73556940 Ry
     estimated scf accuracy    <       0.04271114 Ry

     total magnetization       =    -0.01 Bohr mag/cell
     absolute magnetization    =     0.04 Bohr mag/cell

     iteration # 11     ecut=   120.00 Ry     beta= 0.70
     Davidson diagonalization with overlap
     ethr =  1.54E-05,  avg # of iterations =  2.0

     negative rho (up, down):  9.080E-01 9.080E-01

     total cpu time spent up to now is      262.8 secs

     total energy              =   -2942.73935278 Ry
     estimated scf accuracy    <       0.01183771 Ry

     total magnetization       =    -0.01 Bohr mag/cell
     absolute magnetization    =     0.03 Bohr mag/cell

     iteration # 12     ecut=   120.00 Ry     beta= 0.70
     Davidson diagonalization with overlap
     ethr =  4.27E-06,  avg # of iterations =  7.5

     negative rho (up, down):  9.081E-01 9.081E-01

     total cpu time spent up to now is      283.3 secs

     total energy              =   -2942.74252292 Ry
     estimated scf accuracy    <       0.00209314 Ry

     total magnetization       =    -0.01 Bohr mag/cell
     absolute magnetization    =     0.03 Bohr mag/cell

     iteration # 13     ecut=   120.00 Ry     beta= 0.70
     Davidson diagonalization with overlap
     ethr =  7.56E-07,  avg # of iterations =  5.0

     negative rho (up, down):  9.078E-01 9.078E-01

     Magnetic moment per site  (integrated on atomic sphere of radius R)
     atom   1 (R=0.055)  charge=  2.8629  magn=  0.0000
     atom   2 (R=0.055)  charge=  2.8460  magn= -0.0000
     atom   3 (R=0.055)  charge=  2.8453  magn=  0.0000
     atom   4 (R=0.055)  charge=  2.8470  magn= -0.0000
     atom   5 (R=0.055)  charge=  2.8630  magn= -0.0000
     atom   6 (R=0.110)  charge= 10.3436  magn= -0.0003
     atom   7 (R=0.110)  charge= 10.3481  magn= -0.0001
     atom   8 (R=0.088)  charge=  8.1217  magn=  0.0000
     atom   9 (R=0.088)  charge=  8.1184  magn=  0.0002
     atom  10 (R=0.088)  charge=  8.1018  magn= -0.0001
     atom  11 (R=0.088)  charge=  8.0980  magn= -0.0008
     atom  12 (R=0.088)  charge=  8.1012  magn= -0.0003
     atom  13 (R=0.088)  charge=  8.1020  magn= -0.0001
     atom  14 (R=0.088)  charge=  8.1021  magn= -0.0003
     atom  15 (R=0.088)  charge=  8.0979  magn= -0.0004
     atom  16 (R=0.088)  charge=  8.1038  magn= -0.0006
     atom  17 (R=0.088)  charge=  8.1015  magn= -0.0003
     atom  18 (R=0.111)  charge=  9.4520  magn= -0.0000
     atom  19 (R=0.111)  charge=  9.0008  magn=  0.0002
     atom  20 (R=0.111)  charge=  8.9923  magn=  0.0003
     atom  21 (R=0.111)  charge=  9.0060  magn=  0.0001
     atom  22 (R=0.111)  charge=  8.9943  magn=  0.0003
     atom  23 (R=0.055)  charge=  0.8274  magn= -0.0000

     total cpu time spent up to now is      306.4 secs

     End of self-consistent calculation

 ------ SPIN UP ------------


          k = 0.0000 0.0000 0.0000 ( 61588 PWs)   bands (ev):

   -60.7790 -60.7747 -60.7334 -60.7312 -60.7002 -60.6813 -60.6572 -60.6375
   -60.5822 -60.5531 -54.3879 -54.3452 -54.2522 -53.8434 -52.6875 -46.2860
   -46.2489 -41.6527 -41.6283 -41.5524 -41.5452 -39.8274 -27.7803 -27.7715
   -27.6944 -27.6827 -27.6003 -27.5836 -27.4721 -27.4616 -27.4432 -27.3309
   -27.3161 -27.2652 -27.2618 -27.2497 -27.2172 -27.1990 -27.1858 -27.1611
   -27.1494 -27.1337 -27.1089 -27.0794 -26.9553 -26.9523 -26.9407 -26.9363
   -26.8834 -26.8785 -26.8540 -26.8413 -24.2483 -24.0584 -23.6804 -23.5489
   -23.3074 -23.1739 -23.1125 -23.0477 -22.9246 -22.9197 -22.7252 -22.5713
   -22.5100 -22.4506 -22.3856 -22.3128 -22.2629 -22.1294 -21.7462 -21.6909
   -21.6172 -20.2140 -19.9293 -19.8552 -19.8544 -19.6195 -19.6080 -19.6036
   -19.5905 -19.5752 -19.5365 -19.3862 -19.3561 -18.1770 -17.9768 -17.8265
     0.8704   2.0013   2.9353   3.1362   3.3526   3.4481   3.5308   3.5680
     3.6726   3.9023   3.9157   4.1276   4.1944   4.4805   4.5073   4.6954
     4.7378   4.9590   5.0279   5.1139   5.1752   5.2694   5.2882   5.3458
     5.4083   5.5330   5.5628   5.7032   5.7321   5.7393   5.7661   5.8985
     6.0376   6.0673   6.1876   6.1989   6.2405   6.2970   6.3633   6.3983
     6.5092   6.5967   6.6498   6.7104   6.7947   6.9908   7.0270   7.0742
     7.1139   7.1346   7.2773   7.3121   7.3302   7.4551   7.5431   7.5596
     7.6183   7.7909   7.8715   7.9062   8.0679   8.0919   8.1159   8.2214
     8.2423   8.2536   8.3633   8.3776   8.4048   8.5301   8.6584   8.7033
     8.8611   8.9124   9.0193   9.0800   9.0880   9.2047   9.2498

 ------ SPIN DOWN ----------


          k = 0.0000 0.0000 0.0000 ( 61588 PWs)   bands (ev):

   -60.7792 -60.7751 -60.7337 -60.7316 -60.7005 -60.6819 -60.6575 -60.6381
   -60.5820 -60.5528 -54.3879 -54.3452 -54.2522 -53.8434 -52.6874 -46.2860
   -46.2495 -41.6526 -41.6279 -41.5523 -41.5449 -39.8275 -27.7808 -27.7721
   -27.6949 -27.6833 -27.6007 -27.5840 -27.4724 -27.4619 -27.4437 -27.3312
   -27.3164 -27.2655 -27.2622 -27.2499 -27.2177 -27.1988 -27.1860 -27.1615
   -27.1493 -27.1342 -27.1088 -27.0790 -26.9557 -26.9528 -26.9413 -26.9368
   -26.8839 -26.8793 -26.8545 -26.8420 -24.2484 -24.0585 -23.6805 -23.5489
   -23.3075 -23.1741 -23.1126 -23.0477 -22.9246 -22.9198 -22.7252 -22.5715
   -22.5102 -22.4509 -22.3857 -22.3132 -22.2633 -22.1295 -21.7460 -21.6907
   -21.6172 -20.2139 -19.9287 -19.8549 -19.8542 -19.6196 -19.6078 -19.6034
   -19.5904 -19.5748 -19.5361 -19.3861 -19.3556 -18.1772 -17.9769 -17.8267
     0.8705   2.0011   2.9347   3.1360   3.3524   3.4476   3.5306   3.5679
     3.6725   3.9021   3.9150   4.1274   4.1943   4.4805   4.5071   4.6951
     4.7375   4.9586   5.0274   5.1136   5.1750   5.2690   5.2881   5.3455
     5.4079   5.5329   5.5626   5.7032   5.7318   5.7391   5.7660   5.8982
     6.0373   6.0670   6.1873   6.1987   6.2402   6.2968   6.3632   6.3980
     6.5090   6.5966   6.6494   6.7100   6.7945   6.9904   7.0265   7.0738
     7.1128   7.1338   7.2760   7.3111   7.3294   7.4547   7.5424   7.5599
     7.6176   7.7904   7.8713   7.9059   8.0675   8.0911   8.1156   8.2206
     8.2419   8.2534   8.3624   8.3771   8.4047   8.5303   8.6581   8.7033
     8.8612   8.9112   9.0191   9.0800   9.0875   9.2044   9.2495

     the Fermi energy is     7.2484 ev

!    total energy              =   -2942.74362993 Ry
     estimated scf accuracy    <       0.00061312 Ry
     smearing contrib. (-TS)   =      -0.10067391 Ry
     internal energy E=F+TS    =   -2942.64295601 Ry

     total magnetization       =    -0.01 Bohr mag/cell
     absolute magnetization    =     0.02 Bohr mag/cell

     convergence has been achieved in  13 iterations

     negative rho (up, down):  9.078E-01 9.078E-01

     Forces acting on atoms (cartesian axes, Ry/au):

     atom    1 type  1   force =    -0.00277943   -0.02753841   -0.00173358
     atom    2 type  1   force =    -0.12753954   -0.00894560   -0.00558343
     atom    3 type  1   force =    -0.11788469    0.00893695    0.00262686
     atom    4 type  1   force =     0.13029024   -0.02046020   -0.00677564
     atom    5 type  1   force =    -0.19577969    0.64336477    0.01753175
     atom    6 type  2   force =     0.00260804   -0.01520940    0.02220906
     atom    7 type  2   force =    -0.01787329    0.00726237   -0.00614348
     atom    8 type  3   force =    -0.10684072    0.00285561   -0.00532486
     atom    9 type  3   force =     0.10650854    0.04803316   -0.00873513
     atom   10 type  3   force =    -0.02691485   -0.02905036   -0.05883871
     atom   11 type  3   force =    -0.02478992   -0.03553473    0.05780105
     atom   12 type  3   force =    -0.01178787    0.03550545   -0.05735807
     atom   13 type  3   force =    -0.01380626    0.03027725    0.06280976
     atom   14 type  3   force =     0.01906299   -0.03461032   -0.06446657
     atom   15 type  3   force =     0.01839676   -0.04036796    0.06247659
     atom   16 type  3   force =     0.01633794    0.04511088   -0.05640077
     atom   17 type  3   force =     0.01603731    0.03969607    0.06232580
     atom   18 type  4   force =    -0.01618715    0.01481181   -0.00857044
     atom   19 type  4   force =    -0.12245042   -0.00701829   -0.11576178
     atom   20 type  4   force =    -0.12804880    0.00489821    0.11742615
     atom   21 type  4   force =     0.11941832   -0.00306527   -0.11701550
     atom   22 type  4   force =     0.12653290    0.00717266    0.12031458
     atom   23 type  5   force =     0.35748957   -0.66612465   -0.01281363
     The non-local contrib.  to forces
     atom    1 type  1   force =    -0.00698662   -0.01159578    0.02789577
     atom    2 type  1   force =    -0.24519230   -0.16321721    0.01412376
     atom    3 type  1   force =    -0.22373198    0.16146925   -0.02687942
     atom    4 type  1   force =     0.24491036   -0.22141054    0.01346445
     atom    5 type  1   force =     0.27999798    0.01762450   -0.02535810
     atom    6 type  2   force =     0.00539314   -0.04250603   -0.07160943
     atom    7 type  2   force =     0.00009750    0.05423789    0.06622236
     atom    8 type  3   force =    -0.25749118    0.00693580   -0.00824907
     atom    9 type  3   force =     0.23155772    0.07412185   -0.01275468
     atom   10 type  3   force =    -0.21858774    0.01004510   -0.20712944
     atom   11 type  3   force =    -0.22695939    0.00966480    0.19985829
     atom   12 type  3   force =    -0.19920729   -0.02664750   -0.18030067
     atom   13 type  3   force =    -0.20607580   -0.01030559    0.20931847
     atom   14 type  3   force =     0.21613198    0.00590426   -0.21180317
     atom   15 type  3   force =     0.22477111    0.00758846    0.20061491
     atom   16 type  3   force =     0.20843379   -0.01936811   -0.17427522
     atom   17 type  3   force =     0.21226978   -0.00280003    0.20565768
     atom   18 type  4   force =     0.00132424    0.04511595   -0.07438731
     atom   19 type  4   force =     0.05852960    0.00571217    0.07320537
     atom   20 type  4   force =     0.05523705   -0.01468758   -0.06807207
     atom   21 type  4   force =    -0.06455539    0.01432830    0.06801525
     atom   22 type  4   force =    -0.05828094   -0.00986980   -0.05839293
     atom   23 type  5   force =    -0.06389692    0.09157003   -0.00046788
     The ionic contribution  to forces
     atom    1 type  1   force =    -0.15183538   -4.70290880   14.08754532
     atom    2 type  1   force =   -39.76873304   -6.05119775    0.77956478
     atom    3 type  1   force =   -39.97332288    6.23970586   -0.71218721
     atom    4 type  1   force =    39.58006401   -5.88953230    0.77845846
     atom    5 type  1   force =    37.71646470    9.87332434   -0.66043374
     atom    6 type  2   force =    -0.16123622   -3.66381830  -13.99031155
     atom    7 type  2   force =    -0.79213766    3.39791162   14.52746969
     atom    8 type  3   force =   -52.33158457   -0.10504210   -0.06499728
     atom    9 type  3   force =    51.61631347   -1.58062218   -0.06581536
     atom   10 type  3   force =   -36.10526154   -2.04838780  -23.11452537
     atom   11 type  3   force =   -35.17935331   -0.80135187   22.11874824
     atom   12 type  3   force =   -35.35709191    0.84236906  -22.24258516
     atom   13 type  3   force =   -36.14844192    2.22629776   23.17297774
     atom   14 type  3   force =    35.99835661   -2.00660565  -23.19163876
     atom   15 type  3   force =    35.07311647   -0.75937237   22.19592752
     atom   16 type  3   force =    35.10914673    0.97363771  -22.59992384
     atom   17 type  3   force =    35.89673870    2.35851028   23.53515001
     atom   18 type  4   force =    -0.73997833    4.17999773  -14.41117406
     atom   19 type  4   force =   -35.97186484    0.88799773  -25.59936487
     atom   20 type  4   force =   -35.95546355   -1.02230449   25.57811473
     atom   21 type  4   force =    35.81194034    0.75859488  -25.80799232
     atom   22 type  4   force =    35.79482895   -1.15189306   25.79034750
     atom   23 type  5   force =     6.03933518   -1.95531030   -0.10335450
     The local contribution  to forces
     atom    1 type  1   force =     0.15477972    4.68608858  -14.12392691
     atom    2 type  1   force =    39.90094890    6.20283775   -0.80553201
     atom    3 type  1   force =    40.09084559   -6.39575756    0.74106072
     atom    4 type  1   force =   -39.71223848    6.09307967   -0.80567002
     atom    5 type  1   force =   -38.21546031   -9.22518003    0.70014558
     atom    6 type  2   force =     0.15924009    3.70084110   14.06088341
     atom    7 type  2   force =     0.77214791   -3.43725902  -14.60000723
     atom    8 type  3   force =    52.50638610    0.10203133    0.05636687
     atom    9 type  3   force =   -51.75858967    1.55661332    0.05525497
     atom   10 type  3   force =    36.31680843    2.00824134   23.27973295
     atom   11 type  3   force =    35.40561355    0.74299481  -22.27919568
     atom   12 type  3   force =    35.56685962   -0.77386235   22.37833399
     atom   13 type  3   force =    36.36413658   -2.17871694  -23.33487890
     atom   14 type  3   force =   -36.21253501    1.96349183   23.35576902
     atom   15 type  3   force =   -35.30412487    0.69737068  -22.35117477
     atom   16 type  3   force =   -35.31826290   -0.90912958   22.72921619
     atom   17 type  3   force =   -36.11679314   -2.31233391  -23.69148871
     atom   18 type  4   force =     0.72647753   -4.21784343   14.45607029
     atom   19 type  4   force =    35.80489336   -0.90324814   25.42146525
     atom   20 type  4   force =    35.77593051    1.04554074  -25.40040038
     atom   21 type  4   force =   -35.63785889   -0.77373023   25.63372477
     atom   22 type  4   force =   -35.61372299    1.17404290  -25.61704146
     atom   23 type  5   force =    -5.61778608    1.19728652    0.08962532
     The core correction contribution to forces
     atom    1 type  1   force =    -0.00081491    0.00077724   -0.00095699
     atom    2 type  1   force =    -0.01044071   -0.00031291    0.00097187
     atom    3 type  1   force =    -0.00762831    0.00577552   -0.00155320
     atom    4 type  1   force =     0.01306895   -0.00689584    0.00045097
     atom    5 type  1   force =     0.01943081   -0.01947781   -0.00126950
     atom    6 type  2   force =    -0.00038728    0.00211866    0.00299366
     atom    7 type  2   force =     0.00005988   -0.00276870   -0.00270190
     atom    8 type  3   force =    -0.03062779   -0.00022326   -0.00036114
     atom    9 type  3   force =     0.02416739   -0.00132422   -0.00101179
     atom   10 type  3   force =    -0.02355661    0.00943932   -0.01728141
     atom   11 type  3   force =    -0.02527869    0.00954094    0.01834439
     atom   12 type  3   force =    -0.02168392   -0.01122334   -0.01554173
     atom   13 type  3   force =    -0.02167441   -0.01031752    0.01675585
     atom   14 type  3   force =     0.02204952    0.00906824   -0.01806750
     atom   15 type  3   force =     0.02383239    0.00978761    0.01826882
     atom   16 type  3   force =     0.02247235   -0.00956915   -0.01408669
     atom   17 type  3   force =     0.02217311   -0.00858733    0.01529736
     atom   18 type  4   force =     0.00005409   -0.00259296    0.00368228
     atom   19 type  4   force =    -0.00956564    0.00019047   -0.00958769
     atom   20 type  4   force =    -0.00954256    0.00043624    0.00941312
     atom   21 type  4   force =     0.00996710   -0.00016188   -0.00919579
     atom   22 type  4   force =     0.00975026    0.00020354    0.00873524
     atom   23 type  5   force =     0.00000000    0.00000000    0.00000000
     The Hubbard contrib.    to forces
     atom    1 type  1   force =     0.00000000    0.00000000    0.00000000
     atom    2 type  1   force =     0.00000000    0.00000000    0.00000000
     atom    3 type  1   force =     0.00000000    0.00000000    0.00000000
     atom    4 type  1   force =     0.00000000    0.00000000    0.00000000
     atom    5 type  1   force =     0.00000000    0.00000000    0.00000000
     atom    6 type  2   force =     0.00000000    0.00000000    0.00000000
     atom    7 type  2   force =     0.00000000    0.00000000    0.00000000
     atom    8 type  3   force =     0.00000000    0.00000000    0.00000000
     atom    9 type  3   force =     0.00000000    0.00000000    0.00000000
     atom   10 type  3   force =     0.00000000    0.00000000    0.00000000
     atom   11 type  3   force =     0.00000000    0.00000000    0.00000000
     atom   12 type  3   force =     0.00000000    0.00000000    0.00000000
     atom   13 type  3   force =     0.00000000    0.00000000    0.00000000
     atom   14 type  3   force =     0.00000000    0.00000000    0.00000000
     atom   15 type  3   force =     0.00000000    0.00000000    0.00000000
     atom   16 type  3   force =     0.00000000    0.00000000    0.00000000
     atom   17 type  3   force =     0.00000000    0.00000000    0.00000000
     atom   18 type  4   force =     0.00000000    0.00000000    0.00000000
     atom   19 type  4   force =     0.00000000    0.00000000    0.00000000
     atom   20 type  4   force =     0.00000000    0.00000000    0.00000000
     atom   21 type  4   force =     0.00000000    0.00000000    0.00000000
     atom   22 type  4   force =     0.00000000    0.00000000    0.00000000
     atom   23 type  5   force =     0.00000000    0.00000000    0.00000000
     The SCF correction term to forces
     atom    1 type  1   force =     0.00221120    0.00000284    0.00706147
     atom    2 type  1   force =    -0.00398895    0.00284701    0.00464041
     atom    3 type  1   force =    -0.00391367   -0.00235364    0.00153822
     atom    4 type  1   force =     0.00461885    0.00420128    0.00587274
     atom    5 type  1   force =     0.00392057   -0.00302374    0.00379975
     atom    6 type  2   force =    -0.00026826   -0.01194235    0.01960522
     atom    7 type  2   force =     0.00209253   -0.00495694    0.00222585
     atom    8 type  3   force =     0.00661017   -0.00094368    0.01126800
     atom    9 type  3   force =    -0.00680692   -0.00085313    0.01494396
     atom   10 type  3   force =     0.00381605   -0.00848583   -0.00028321
     atom   11 type  3   force =     0.00132136    0.00351908   -0.00060194
     atom   12 type  3   force =    -0.00053094    0.00477206    0.00208774
     atom   13 type  3   force =    -0.00161725    0.00322203   -0.00201115
     atom   14 type  3   force =    -0.00480666   -0.00656652    0.00062607
     atom   15 type  3   force =     0.00093509    0.00416014   -0.00180765
     atom   16 type  3   force =    -0.00531859    0.00944249    0.00202103
     atom   17 type  3   force =     0.00178231    0.00480954   -0.00293830
     atom   18 type  4   force =    -0.00393123    0.01003701    0.01659061
     atom   19 type  4   force =    -0.00430947    0.00223196   -0.00212762
     atom   20 type  4   force =     0.00592320   -0.00418421   -0.00227702
     atom   21 type  4   force =     0.00005860   -0.00219384   -0.00221517
     atom   22 type  4   force =    -0.00590894   -0.00540844   -0.00398154
     atom   23 type  5   force =    -0.00002917    0.00023157    0.00073566

     Total force =     1.122328     Total SCF correction =     0.046868


     Computing stress (Cartesian axis) and pressure


     negative rho (up, down):  9.078E-01 9.078E-01
          total   stress  (Ry/bohr**3)                   (kbar)     P=      100.32
   0.00072791  -0.00011992  -0.00000194          107.08      -17.64       -0.29
  -0.00011992   0.00091479  -0.00001084          -17.64      134.57       -1.59
  -0.00000194  -0.00001084   0.00040318           -0.29       -1.59       59.31


     Molecular Dynamics Calculation

     Starting temperature  =   300.00 K

     temperature is set once at start

     mass Hf               =   178.49
     mass Nb               =    92.91
     mass Ta               =   180.95
     mass Zr               =    91.22
     mass H                =     2.01
     Time step             =     2.10 a.u.,  0.1016 femto-seconds

     Entering Dynamics:    iteration =     1
                           time      =   0.0001 pico-seconds


ATOMIC_POSITIONS (angstrom)
Hf            2.6700726881        2.8273943371        6.6039642062
Hf            1.2530625165        1.2865556226        5.0584661861
Hf            1.2555588041        7.3900758643        5.0880677862
Hf            4.0870829194        1.2865555400        5.0584661775
Hf            4.0845843622        7.3900804147        5.0880678931
Nb            2.6700727440        2.7972019013        3.5155835227
Nb            2.6700724618        5.8766502818        6.6349978585
Ta            1.2094450512        4.3411993772        5.0711257946
Ta            4.1307003626        4.3411996968        5.0711257705
Ta            1.3073252447        1.3143938893        2.0587786938
Ta            1.3028608899        1.3086623900        8.0945796113
Ta            1.3040822898        7.3760978807        2.0462367740
Ta            1.3077834518        7.3653546680        8.0860026652
Ta            4.0328201158        1.3143938499        2.0587786540
Ta            4.0372844810        1.3086623558        8.0945796444
Ta            4.0360631585        7.3760979487        2.0462367808
Ta            4.0323619801        7.3653547346        8.0860026618
Zr            2.6700724809        5.8665575567        3.5273838101
Zr            1.2439056516        4.3223493714        1.9999983754
Zr            1.2404563668        4.3543948586        8.1497571972
Zr            4.0962397219        4.3223494269        1.9999983578
Zr            4.0996890281        4.3543948906        8.1497572378
H             4.5277029803        5.8206454339        5.0721716498


     kinetic energy (Ekin) =         161.96767673 Ry
     temperature           =      774929.50208822 K 
     Ekin + Etot (const)   =       -2780.77595319 Ry
     Ions kinetic stress =         2860.53 (kbar)
                                    574.88        2145.43           0.00
                                   2145.43        8006.70           0.00
                                      0.00           0.00           0.00



     Linear momentum :   -0.0000000000    0.0000000000    0.0000000000

     File outdir/pwscf.msd.dat deleted, as requested

     Writing config-only to output data dir outdir/pwscf.save/
     NEW-OLD atomic charge density approx. for the potential

     Check: negative core charge=   -0.000002

     negative rho (up, down):  9.081E-01 9.081E-01
     Generating pointlists ...
     new r_m :   0.1072 (alat units)  1.8928 (a.u.) for type    2
     new r_m :   0.0677 (alat units)  1.1940 (a.u.) for type    3
     new r_m :   0.1067 (alat units)  1.8837 (a.u.) for type    4

     total cpu time spent up to now is      369.5 secs

     Self-consistent Calculation

     iteration #  1     ecut=   120.00 Ry     beta= 0.70
     Davidson diagonalization with overlap
     c_bands:  1 eigenvalues not converged
     c_bands:  1 eigenvalues not converged
     ethr =  1.00E-06,  avg # of iterations = 20.0

     negative rho (up, down):  9.089E-01 9.089E-01

     total cpu time spent up to now is      422.8 secs

     total energy              =   -2942.91447660 Ry
     estimated scf accuracy    <       0.27917656 Ry

     total magnetization       =    -0.01 Bohr mag/cell
     absolute magnetization    =     0.02 Bohr mag/cell

     iteration #  2     ecut=   120.00 Ry     beta= 0.70
     Davidson diagonalization with overlap
     ethr =  1.01E-04,  avg # of iterations =  2.0

     negative rho (up, down):  9.087E-01 9.087E-01

     total cpu time spent up to now is      441.3 secs

     total energy              =   -2942.94322917 Ry
     estimated scf accuracy    <       0.06484314 Ry

     total magnetization       =    -0.01 Bohr mag/cell
     absolute magnetization    =     0.02 Bohr mag/cell

     iteration #  3     ecut=   120.00 Ry     beta= 0.70
     Davidson diagonalization with overlap
     ethr =  2.34E-05,  avg # of iterations =  2.0

     negative rho (up, down):  9.087E-01 9.087E-01

     total cpu time spent up to now is      458.7 secs

     total energy              =   -2942.94733573 Ry
     estimated scf accuracy    <       0.01150876 Ry

     total magnetization       =    -0.01 Bohr mag/cell
     absolute magnetization    =     0.01 Bohr mag/cell

     iteration #  4     ecut=   120.00 Ry     beta= 0.70
     Davidson diagonalization with overlap
     c_bands:  1 eigenvalues not converged
     ethr =  4.15E-06,  avg # of iterations = 20.0

     negative rho (up, down):  9.089E-01 9.089E-01

     total cpu time spent up to now is      494.9 secs

     total energy              =   -2942.94807981 Ry
     estimated scf accuracy    <       0.00191621 Ry

     total magnetization       =    -0.01 Bohr mag/cell
     absolute magnetization    =     0.01 Bohr mag/cell

     iteration #  5     ecut=   120.00 Ry     beta= 0.70
     Davidson diagonalization with overlap
     ethr =  6.92E-07,  avg # of iterations =  5.0

     negative rho (up, down):  9.090E-01 9.090E-01

     Magnetic moment per site  (integrated on atomic sphere of radius R)
     atom   1 (R=0.055)  charge=  2.8628  magn=  0.0000
     atom   2 (R=0.055)  charge=  2.8458  magn= -0.0000
     atom   3 (R=0.055)  charge=  2.8450  magn=  0.0000
     atom   4 (R=0.055)  charge=  2.8465  magn= -0.0000
     atom   5 (R=0.055)  charge=  2.8549  magn= -0.0000
     atom   6 (R=0.107)  charge= 10.1437  magn= -0.0001
     atom   7 (R=0.107)  charge= 10.1420  magn= -0.0000
     atom   8 (R=0.068)  charge=  5.4649  magn= -0.0000
     atom   9 (R=0.068)  charge=  5.4833  magn=  0.0000
     atom  10 (R=0.068)  charge=  5.4492  magn= -0.0001
     atom  11 (R=0.068)  charge=  5.4493  magn= -0.0002
     atom  12 (R=0.068)  charge=  5.4487  magn= -0.0001
     atom  13 (R=0.068)  charge=  5.4503  magn= -0.0000
     atom  14 (R=0.068)  charge=  5.4506  magn= -0.0001
     atom  15 (R=0.068)  charge=  5.4509  magn= -0.0001
     atom  16 (R=0.068)  charge=  5.4496  magn= -0.0002
     atom  17 (R=0.068)  charge=  5.4520  magn= -0.0001
     atom  18 (R=0.107)  charge=  9.1101  magn=  0.0000
     atom  19 (R=0.107)  charge=  8.7286  magn= -0.0001
     atom  20 (R=0.107)  charge=  8.7267  magn=  0.0000
     atom  21 (R=0.107)  charge=  8.7287  magn= -0.0002
     atom  22 (R=0.107)  charge=  8.7263  magn=  0.0001
     atom  23 (R=0.055)  charge=  0.7115  magn= -0.0000

     total cpu time spent up to now is      533.2 secs

     End of self-consistent calculation

 ------ SPIN UP ------------


          k = 0.0000 0.0000 0.0000 ( 61588 PWs)   bands (ev):

   -60.7605 -60.7428 -60.7151 -60.6980 -60.6708 -60.6666 -60.6267 -60.6223
   -60.5678 -60.3242 -54.3550 -54.2677 -54.2277 -54.1132 -52.6796 -46.2937
   -46.2448 -41.6279 -41.6203 -41.5358 -41.5273 -39.8415 -27.7601 -27.7509
   -27.6695 -27.6685 -27.5765 -27.5507 -27.4424 -27.4290 -27.3913 -27.3093
   -27.2858 -27.2450 -27.2346 -27.2268 -27.1956 -27.1802 -27.1640 -27.1334
   -27.1224 -27.1129 -26.9559 -26.9451 -26.9322 -26.9259 -26.9192 -26.9108
   -26.8642 -26.8547 -26.8252 -26.8245 -24.1618 -23.9588 -23.6370 -23.5407
   -23.2808 -23.1458 -23.1024 -23.0198 -22.9122 -22.8355 -22.7947 -22.5914
   -22.5227 -22.4499 -22.3807 -22.3373 -22.2625 -22.2249 -21.7398 -21.6786
   -21.6095 -20.1911 -19.9184 -19.8351 -19.8315 -19.6057 -19.5971 -19.5894
   -19.5759 -19.5666 -19.5246 -19.3590 -19.3440 -18.1876 -17.9909 -17.8363
     0.1119   1.8419   2.9513   3.1523   3.3678   3.4714   3.5456   3.6137
     3.6708   3.8958   3.9269   4.1448   4.2393   4.4835   4.5717   4.7074
     4.7615   4.9435   5.0325   5.1282   5.2093   5.2784   5.2994   5.3880
     5.4019   5.5251   5.5697   5.6910   5.7487   5.7639   5.7838   5.9096
     6.0616   6.1007   6.2035   6.2378   6.2809   6.3454   6.3651   6.3717
     6.5469   6.6107   6.6588   6.7270   6.8124   7.0074   7.0261   7.1046
     7.1440   7.1532   7.2895   7.3279   7.3547   7.4762   7.5515   7.5721
     7.6377   7.8557   7.8912   7.9044   8.0768   8.1099   8.1303   8.2231
     8.2499   8.2747   8.3770   8.3970   8.4631   8.5479   8.6733   8.6864
     8.8675   8.9244   8.9662   9.0492   9.0957   9.2008   9.2564

 ------ SPIN DOWN ----------


          k = 0.0000 0.0000 0.0000 ( 61588 PWs)   bands (ev):

   -60.7607 -60.7430 -60.7153 -60.6983 -60.6710 -60.6669 -60.6270 -60.6226
   -60.5678 -60.3242 -54.3550 -54.2677 -54.2277 -54.1133 -52.6796 -46.2937
   -46.2449 -41.6280 -41.6202 -41.5357 -41.5274 -39.8414 -27.7604 -27.7512
   -27.6699 -27.6688 -27.5768 -27.5510 -27.4428 -27.4294 -27.3914 -27.3095
   -27.2860 -27.2451 -27.2347 -27.2271 -27.1959 -27.1803 -27.1641 -27.1337
   -27.1225 -27.1131 -26.9560 -26.9452 -26.9324 -26.9264 -26.9195 -26.9111
   -26.8646 -26.8550 -26.8256 -26.8248 -24.1618 -23.9589 -23.6370 -23.5407
   -23.2808 -23.1459 -23.1024 -23.0199 -22.9123 -22.8355 -22.7948 -22.5914
   -22.5228 -22.4499 -22.3807 -22.3373 -22.2626 -22.2249 -21.7398 -21.6786
   -21.6095 -20.1912 -19.9181 -19.8352 -19.8316 -19.6057 -19.5972 -19.5894
   -19.5759 -19.5666 -19.5246 -19.3591 -19.3438 -18.1876 -17.9909 -17.8362
     0.1119   1.8417   2.9509   3.1522   3.3675   3.4710   3.5455   3.6136
     3.6707   3.8958   3.9264   4.1446   4.2392   4.4835   4.5715   4.7072
     4.7612   4.9432   5.0322   5.1280   5.2092   5.2782   5.2992   5.3876
     5.4016   5.5250   5.5695   5.6910   5.7486   5.7637   5.7836   5.9095
     6.0613   6.1004   6.2033   6.2376   6.2807   6.3452   6.3649   6.3714
     6.5466   6.6105   6.6585   6.7267   6.8122   7.0071   7.0255   7.1037
     7.1433   7.1528   7.2886   7.3274   7.3538   7.4758   7.5508   7.5721
     7.6372   7.8552   7.8908   7.9042   8.0763   8.1094   8.1300   8.2225
     8.2494   8.2743   8.3763   8.3967   8.4628   8.5476   8.6730   8.6860
     8.8674   8.9236   8.9658   9.0489   9.0954   9.2009   9.2557

     the Fermi energy is     7.2670 ev

!    total energy              =   -2942.94801490 Ry
     estimated scf accuracy    <       0.00042624 Ry
     smearing contrib. (-TS)   =      -0.10079745 Ry
     internal energy E=F+TS    =   -2942.84721745 Ry

     total magnetization       =    -0.01 Bohr mag/cell
     absolute magnetization    =     0.01 Bohr mag/cell

     convergence has been achieved in   5 iterations

     negative rho (up, down):  9.090E-01 9.090E-01

     Forces acting on atoms (cartesian axes, Ry/au):

     atom    1 type  1   force =    -0.00521131   -0.03042754    0.00721752
     atom    2 type  1   force =    -0.12141306   -0.01329086    0.00030977
     atom    3 type  1   force =    -0.11325489    0.01281470    0.00687734
     atom    4 type  1   force =     0.14247110   -0.01617443   -0.00244092
     atom    5 type  1   force =     0.07199687    0.11444185    0.01587433
     atom    6 type  2   force =     0.00087439   -0.01936294    0.01682387
     atom    7 type  2   force =    -0.01651466    0.00935185   -0.00440865
     atom    8 type  3   force =    -0.10519750    0.00329151   -0.00367232
     atom    9 type  3   force =     0.04591151   -0.15701565   -0.00433692
     atom   10 type  3   force =    -0.02675196   -0.02942147   -0.06159388
     atom   11 type  3   force =    -0.02410271   -0.03521766    0.05474020
     atom   12 type  3   force =    -0.01092536    0.03397078   -0.05949119
     atom   13 type  3   force =    -0.01180371    0.03050115    0.06046834
     atom   14 type  3   force =     0.01892084   -0.03515466   -0.06603271
     atom   15 type  3   force =     0.01811543   -0.04167309    0.05921657
     atom   16 type  3   force =     0.01517792    0.04757968   -0.05870841
     atom   17 type  3   force =     0.01502070    0.04274364    0.05964542
     atom   18 type  4   force =    -0.01459383    0.01850583   -0.00854504
     atom   19 type  4   force =    -0.12208702   -0.00481460   -0.11724613
     atom   20 type  4   force =    -0.12611178    0.00575002    0.11503580
     atom   21 type  4   force =     0.11808686   -0.00742357   -0.11956926
     atom   22 type  4   force =     0.12501419    0.00211681    0.11745111
     atom   23 type  5   force =     0.12637799    0.06890862   -0.00761482
     The non-local contrib.  to forces
     atom    1 type  1   force =    -0.00178058   -0.00866463    0.02706360
     atom    2 type  1   force =    -0.24659737   -0.15834042    0.01620938
     atom    3 type  1   force =    -0.23269721    0.15271519   -0.02362252
     atom    4 type  1   force =     0.25129056   -0.21272269    0.01697975
     atom    5 type  1   force =     0.18184762    0.18356535   -0.01762738
     atom    6 type  2   force =     0.00326090   -0.04227080   -0.06834351
     atom    7 type  2   force =     0.00241629    0.05881073    0.07195788
     atom    8 type  3   force =    -0.25351251    0.00798171   -0.00463184
     atom    9 type  3   force =     0.19005882    0.02696277   -0.00516718
     atom   10 type  3   force =    -0.21641108    0.00732487   -0.20682252
     atom   11 type  3   force =    -0.22383238    0.00719178    0.19919358
     atom   12 type  3   force =    -0.19595292   -0.02603898   -0.18142905
     atom   13 type  3   force =    -0.20092456   -0.00764532    0.20803023
     atom   14 type  3   force =     0.21592783    0.00083076   -0.20749459
     atom   15 type  3   force =     0.22320532    0.00303483    0.19538847
     atom   16 type  3   force =     0.20782644   -0.01865273   -0.17231461
     atom   17 type  3   force =     0.20906608   -0.00271875    0.20018063
     atom   18 type  4   force =     0.00161771    0.04834597   -0.07358822
     atom   19 type  4   force =     0.05762768    0.00794968    0.07475183
     atom   20 type  4   force =     0.05468736   -0.01329622   -0.07043889
     atom   21 type  4   force =    -0.06535342    0.01520166    0.06563947
     atom   22 type  4   force =    -0.05926009   -0.00920275   -0.05699524
     atom   23 type  5   force =    -0.03571032   -0.01710681   -0.00223862
     The ionic contribution  to forces
     atom    1 type  1   force =    -0.18985231   -4.78437026   14.12585827
     atom    2 type  1   force =   -39.76743625   -6.09284605    0.77958540
     atom    3 type  1   force =   -39.95160074    6.27968924   -0.71230871
     atom    4 type  1   force =    39.60433609   -6.04683561    0.77871143
     atom    5 type  1   force =    38.95456378    8.45317576   -0.69015342
     atom    6 type  2   force =    -0.20042889   -3.75079400  -14.03063406
     atom    7 type  2   force =    -0.87505268    3.58262048   14.63594136
     atom    8 type  3   force =   -52.42324802   -0.11330526   -0.06502805
     atom    9 type  3   force =    51.28199152   -2.84611855   -0.06696869
     atom   10 type  3   force =   -36.10633655   -2.07079885  -23.11343694
     atom   11 type  3   force =   -35.18041401   -0.82361621   22.11761714
     atom   12 type  3   force =   -35.35333392    0.85995859  -22.23606947
     atom   13 type  3   force =   -36.14465540    2.24420968   23.16649812
     atom   14 type  3   force =    36.00787761   -2.05967694  -23.18073056
     atom   15 type  3   force =    35.08263157   -0.81216176   22.18487519
     atom   16 type  3   force =    35.14398798    1.00695417  -22.52332723
     atom   17 type  3   force =    35.93214142    2.39281142   23.45782479
     atom   18 type  4   force =    -0.82039652    4.35195408  -14.51381670
     atom   19 type  4   force =   -35.99291424    0.89021472  -25.61965608
     atom   20 type  4   force =   -35.97645619   -1.01950560   25.59832978
     atom   21 type  4   force =    35.81429305    0.75834803  -25.88998842
     atom   22 type  4   force =    35.79744331   -1.15029541   25.87242063
     atom   23 type  5   force =     5.36285940    0.75038832   -0.07554377
     The local contribution  to forces
     atom    1 type  1   force =     0.18021792    4.75977232  -14.13629534
     atom    2 type  1   force =    39.89782788    6.23776310   -0.78114857
     atom    3 type  1   force =    40.08818983   -6.41882700    0.75899716
     atom    4 type  1   force =   -39.72674689    6.23255693   -0.78334816
     atom    5 type  1   force =   -39.07519246   -8.50790628    0.74063485
     atom    6 type  2   force =     0.19035570    3.77840287   14.12542875
     atom    7 type  2   force =     0.86033339   -3.61793181  -14.70392242
     atom    8 type  3   force =    52.59746720    0.10565412    0.07951424
     atom    9 type  3   force =   -51.44000279    2.68163438    0.08330767
     atom   10 type  3   force =    36.31069522    2.02888648   23.27180576
     atom   11 type  3   force =    35.40114272    0.76604643  -22.28202286
     atom   12 type  3   force =    35.55049772   -0.79299071   22.36970671
     atom   13 type  3   force =    36.35323327   -2.19053435  -23.33200911
     atom   14 type  3   force =   -36.22164829    2.01437136   23.33402147
     atom   15 type  3   force =   -35.30820172    0.74603239  -22.33877271
     atom   16 type  3   force =   -35.35061756   -0.93030662   22.65511094
     atom   17 type  3   force =   -36.14327659   -2.32871660  -23.62392605
     atom   18 type  4   force =     0.80581148   -4.37932820   14.59288876
     atom   19 type  4   force =    35.81694397   -0.90358441   25.43618375
     atom   20 type  4   force =    35.79883933    1.03810032  -25.42450157
     atom   21 type  4   force =   -35.64148683   -0.78112914   25.71135527
     atom   22 type  4   force =   -35.62010448    1.16282297  -25.70814035
     atom   23 type  5   force =    -5.20201246   -0.66482915    0.07249444
     The core correction contribution to forces
     atom    1 type  1   force =     0.00034172    0.00106964   -0.00089542
     atom    2 type  1   force =    -0.01038256   -0.00052836    0.00073710
     atom    3 type  1   force =    -0.00988851    0.00497257   -0.00129928
     atom    4 type  1   force =     0.01517567   -0.00702078    0.00062415
     atom    5 type  1   force =     0.00205072    0.00371760   -0.00063432
     atom    6 type  2   force =    -0.00021721    0.00213392    0.00296085
     atom    7 type  2   force =     0.00017041   -0.00295671   -0.00313521
     atom    8 type  3   force =    -0.03020228    0.00001464   -0.00030570
     atom    9 type  3   force =     0.01818311   -0.00521702   -0.00088023
     atom   10 type  3   force =    -0.02315607    0.00937541   -0.01607142
     atom   11 type  3   force =    -0.02475598    0.00954119    0.01703754
     atom   12 type  3   force =    -0.02128553   -0.01037579   -0.01591323
     atom   13 type  3   force =    -0.02118574   -0.00956038    0.01678188
     atom   14 type  3   force =     0.02250766    0.00891048   -0.01764575
     atom   15 type  3   force =     0.02394990    0.00961681    0.01778907
     atom   16 type  3   force =     0.02267799   -0.00939863   -0.01408497
     atom   17 type  3   force =     0.02191321   -0.00872895    0.01518631
     atom   18 type  4   force =     0.00014712   -0.00269713    0.00397296
     atom   19 type  4   force =    -0.00948650    0.00007989   -0.00968159
     atom   20 type  4   force =    -0.00948451    0.00033976    0.00951837
     atom   21 type  4   force =     0.00996897   -0.00023439   -0.00906199
     atom   22 type  4   force =     0.00978420    0.00011466    0.00860910
     atom   23 type  5   force =     0.00000000    0.00000000    0.00000000
     The Hubbard contrib.    to forces
     atom    1 type  1   force =     0.00000000    0.00000000    0.00000000
     atom    2 type  1   force =     0.00000000    0.00000000    0.00000000
     atom    3 type  1   force =     0.00000000    0.00000000    0.00000000
     atom    4 type  1   force =     0.00000000    0.00000000    0.00000000
     atom    5 type  1   force =     0.00000000    0.00000000    0.00000000
     atom    6 type  2   force =     0.00000000    0.00000000    0.00000000
     atom    7 type  2   force =     0.00000000    0.00000000    0.00000000
     atom    8 type  3   force =     0.00000000    0.00000000    0.00000000
     atom    9 type  3   force =     0.00000000    0.00000000    0.00000000
     atom   10 type  3   force =     0.00000000    0.00000000    0.00000000
     atom   11 type  3   force =     0.00000000    0.00000000    0.00000000
     atom   12 type  3   force =     0.00000000    0.00000000    0.00000000
     atom   13 type  3   force =     0.00000000    0.00000000    0.00000000
     atom   14 type  3   force =     0.00000000    0.00000000    0.00000000
     atom   15 type  3   force =     0.00000000    0.00000000    0.00000000
     atom   16 type  3   force =     0.00000000    0.00000000    0.00000000
     atom   17 type  3   force =     0.00000000    0.00000000    0.00000000
     atom   18 type  4   force =     0.00000000    0.00000000    0.00000000
     atom   19 type  4   force =     0.00000000    0.00000000    0.00000000
     atom   20 type  4   force =     0.00000000    0.00000000    0.00000000
     atom   21 type  4   force =     0.00000000    0.00000000    0.00000000
     atom   22 type  4   force =     0.00000000    0.00000000    0.00000000
     atom   23 type  5   force =     0.00000000    0.00000000    0.00000000
     The SCF correction term to forces
     atom    1 type  1   force =     0.00582910    0.00185378   -0.00744630
     atom    2 type  1   force =     0.00514240    0.00074927   -0.01400626
     atom    3 type  1   force =    -0.00729108   -0.00564690   -0.01382202
     atom    4 type  1   force =    -0.00161716    0.01793611   -0.01434080
     atom    5 type  1   force =     0.00869438   -0.01802219   -0.01527813
     atom    6 type  2   force =     0.00787106   -0.00674654   -0.01152088
     atom    7 type  2   force =    -0.00441490   -0.01110244   -0.00418299
     atom    8 type  3   force =     0.00426527    0.00303469   -0.01215370
     atom    9 type  3   force =    -0.00435198   -0.01418884   -0.01356122
     atom   10 type  3   force =     0.00842369   -0.00412100    0.00399852
     atom   11 type  3   force =     0.00372412    0.00570753    0.00398208
     atom   12 type  3   force =     0.00911646    0.00350606    0.00528113
     atom   13 type  3   force =     0.00169589   -0.00588008    0.00223449
     atom   14 type  3   force =    -0.00577680    0.00049807    0.00688399
     atom   15 type  3   force =    -0.00350247    0.01189302    0.00100383
     atom   16 type  3   force =    -0.00872976   -0.00092811   -0.00302526
     atom   17 type  3   force =    -0.00485624   -0.00981508    0.01144702
     atom   18 type  4   force =    -0.00180645    0.00031950   -0.01693456
     atom   19 type  4   force =     0.00570923    0.00061391    0.00222323
     atom   20 type  4   force =     0.00626940    0.00020015    0.00319538
     atom   21 type  4   force =     0.00063226    0.00047865    0.00355367
     atom   22 type  4   force =    -0.00288158   -0.00123427    0.00262425
     atom   23 type  5   force =     0.00120854    0.00054465   -0.00125959

     Total force =     0.535493     Total SCF correction =     0.063651
     SCF correction compared to forces is large: reduce conv_thr to get better values


     Computing stress (Cartesian axis) and pressure


     negative rho (up, down):  9.090E-01 9.090E-01
          total   stress  (Ry/bohr**3)                   (kbar)     P=       94.14
   0.00064313   0.00001084  -0.00000224           94.61        1.59       -0.33
   0.00001084   0.00087537  -0.00001200            1.59      128.77       -1.77
  -0.00000224  -0.00001200   0.00040131           -0.33       -1.77       59.04


     Entering Dynamics:    iteration =     2
                           time      =   0.0002 pico-seconds


ATOMIC_POSITIONS (angstrom)
Hf            2.6701453445        2.8276652085        6.6039642973
Hf            1.2531326111        1.2868268732        5.0584661505
Hf            1.2556290851        7.3903476176        5.0880679037
Hf            4.0871586486        1.2868266667        5.0584660939
Hf            4.0846567419        7.3903581762        5.0880682466
Nb            2.6701455551        2.7974726635        3.5155842924
Nb            2.6701445114        5.8769221450        6.6349976524
Ta            1.2095155578        4.3414709494        5.0711257050
Ta            4.1307745169        4.3414693203        5.0711256473
Ta            1.3073974268        1.3146647728        2.0587774060
Ta            1.3029331245        1.3089331456        8.0945807949
Ta            1.3041548028        7.3763701180        2.0462355264
Ta            1.3078559381        7.3656268192        8.0860039652
Ta            4.0328932695        1.3146646130        2.0587772635
Ta            4.0373576186        1.3089329859        8.0945809244
Ta            4.0361362400        7.3763704465        2.0462355510
Ta            4.0324350572        7.3656271257        8.0860039467
Zr            2.6701445952        5.8668297893        3.5273834500
Zr            1.2439732576        4.3226206432        1.9999934601
Zr            1.2405237812        4.3546665942        8.1497620739
Zr            4.0963174632        4.3226206809        1.9999933597
Zr            4.0997670637        4.3546665560        8.1497622227
H             4.4073016776        5.3695268690        5.0721538240


     kinetic energy (Ekin) =         162.16712842 Ry
     temperature           =      775883.77270469 K 
     Ekin + Etot (const)   =       -2780.78088648 Ry
     Ions kinetic stress =         2864.05 (kbar)
                                    571.95        2141.77           0.06
                                   2141.77        8020.19           0.23
                                      0.06           0.23           0.00



     Linear momentum :   -0.0000000000    0.0000000000    0.0000000000

     Writing config-only to output data dir outdir/pwscf.save/
     NEW-OLD atomic charge density approx. for the potential

     Check: negative core charge=   -0.000002

     negative rho (up, down):  9.083E-01 9.083E-01
     Generating pointlists ...
     new r_m :   0.1056 (alat units)  1.8639 (a.u.) for type    2
     new r_m :   0.0470 (alat units)  0.8299 (a.u.) for type    3
     new r_m :   0.1050 (alat units)  1.8531 (a.u.) for type    4
     new r_m :   0.0470 (alat units)  0.8299 (a.u.) for type    5

     total cpu time spent up to now is      565.5 secs

     Self-consistent Calculation

     iteration #  1     ecut=   120.00 Ry     beta= 0.70
     Davidson diagonalization with overlap
     c_bands:  1 eigenvalues not converged
     c_bands:  1 eigenvalues not converged
     ethr =  1.00E-06,  avg # of iterations = 20.0

     negative rho (up, down):  9.093E-01 9.093E-01

     total cpu time spent up to now is      612.5 secs

     total energy              =   -2942.25303741 Ry
     estimated scf accuracy    <       0.53706141 Ry

     total magnetization       =    -0.01 Bohr mag/cell
     absolute magnetization    =     0.01 Bohr mag/cell

     iteration #  2     ecut=   120.00 Ry     beta= 0.70
     Davidson diagonalization with overlap
     ethr =  1.94E-04,  avg # of iterations =  2.0

     negative rho (up, down):  9.086E-01 9.087E-01

     total cpu time spent up to now is      637.4 secs

     total energy              =   -2942.32955310 Ry
     estimated scf accuracy    <       0.21041638 Ry

     total magnetization       =    -0.01 Bohr mag/cell
     absolute magnetization    =     0.01 Bohr mag/cell

     iteration #  3     ecut=   120.00 Ry     beta= 0.70
     Davidson diagonalization with overlap
     ethr =  7.60E-05,  avg # of iterations =  1.0

     negative rho (up, down):  9.083E-01 9.083E-01

     total cpu time spent up to now is      671.7 secs

     total energy              =   -2942.34038683 Ry
     estimated scf accuracy    <       0.01777520 Ry

     total magnetization       =    -0.01 Bohr mag/cell
     absolute magnetization    =     0.01 Bohr mag/cell

     iteration #  4     ecut=   120.00 Ry     beta= 0.70
     Davidson diagonalization with overlap
     ethr =  6.42E-06,  avg # of iterations = 15.5

     negative rho (up, down):  9.081E-01 9.081E-01

     total cpu time spent up to now is      708.6 secs

     total energy              =   -2942.34159042 Ry
     estimated scf accuracy    <       0.00260812 Ry

     total magnetization       =    -0.01 Bohr mag/cell
     absolute magnetization    =     0.01 Bohr mag/cell

     iteration #  5     ecut=   120.00 Ry     beta= 0.70
     Davidson diagonalization with overlap
     c_bands:  1 eigenvalues not converged
     ethr =  9.42E-07,  avg # of iterations = 12.0

     negative rho (up, down):  9.081E-01 9.081E-01

     Magnetic moment per site  (integrated on atomic sphere of radius R)
     atom   1 (R=0.055)  charge=  2.8628  magn= -0.0000
     atom   2 (R=0.055)  charge=  2.8459  magn= -0.0000
     atom   3 (R=0.055)  charge=  2.8456  magn=  0.0000
     atom   4 (R=0.055)  charge=  2.8471  magn=  0.0000
     atom   5 (R=0.055)  charge=  2.8508  magn= -0.0000
     atom   6 (R=0.106)  charge= 10.0086  magn=  0.0001
     atom   7 (R=0.106)  charge= 10.0075  magn= -0.0001
     atom   8 (R=0.047)  charge=  1.7847  magn= -0.0000
     atom   9 (R=0.047)  charge=  1.8036  magn= -0.0000
     atom  10 (R=0.047)  charge=  1.7806  magn= -0.0000
     atom  11 (R=0.047)  charge=  1.7796  magn= -0.0000
     atom  12 (R=0.047)  charge=  1.7788  magn= -0.0000
     atom  13 (R=0.047)  charge=  1.7807  magn=  0.0000
     atom  14 (R=0.047)  charge=  1.7762  magn= -0.0000
     atom  15 (R=0.047)  charge=  1.7752  magn= -0.0000
     atom  16 (R=0.047)  charge=  1.7759  magn= -0.0000
     atom  17 (R=0.047)  charge=  1.7764  magn= -0.0000
     atom  18 (R=0.105)  charge=  8.9740  magn=  0.0001
     atom  19 (R=0.105)  charge=  8.6206  magn= -0.0001
     atom  20 (R=0.105)  charge=  8.6168  magn= -0.0000
     atom  21 (R=0.105)  charge=  8.6219  magn= -0.0001
     atom  22 (R=0.105)  charge=  8.6160  magn=  0.0001
     atom  23 (R=0.047)  charge=  0.7864  magn= -0.0000

     total cpu time spent up to now is      728.0 secs

     End of self-consistent calculation

 ------ SPIN UP ------------


          k = 0.0000 0.0000 0.0000 ( 61588 PWs)   bands (ev):

   -60.7596 -60.7594 -60.7149 -60.7141 -60.6868 -60.6668 -60.6427 -60.6229
   -60.5793 -60.3748 -54.4066 -54.3513 -54.2548 -54.2122 -52.7311 -46.2837
   -46.2603 -41.6237 -41.6147 -41.5309 -41.5223 -39.8195 -28.6129 -27.7674
   -27.7588 -27.6840 -27.6702 -27.5764 -27.5644 -27.4468 -27.4346 -27.3634
   -27.3124 -27.2905 -27.2462 -27.2402 -27.2316 -27.2039 -27.1823 -27.1462
   -27.1283 -27.1250 -26.9395 -26.9367 -26.9300 -26.9283 -26.8694 -26.8661
   -26.8429 -26.8285 -26.7477 -26.7182 -24.1883 -23.9812 -23.6680 -23.5896
   -23.3126 -23.2018 -23.1524 -23.0589 -22.9473 -22.8700 -22.8631 -22.6391
   -22.5179 -22.4652 -22.4077 -22.3641 -22.2772 -22.2406 -21.7820 -21.7224
   -21.6462 -20.1914 -19.9149 -19.8300 -19.8233 -19.5996 -19.5918 -19.5855
   -19.5746 -19.5612 -19.5263 -19.3565 -19.3429 -18.1655 -17.9676 -17.8274
     0.5198   1.8485   2.9437   3.1566   3.3678   3.4758   3.5481   3.6169
     3.6549   3.8951   3.9227   4.1480   4.2638   4.4746   4.5604   4.7040
     4.7711   4.9453   5.0341   5.1120   5.1842   5.2735   5.2808   5.3378
     5.3908   5.4979   5.5606   5.6589   5.7420   5.7643   5.7803   5.9107
     6.0576   6.1091   6.2031   6.2384   6.2663   6.3243   6.3606   6.3776
     6.5954   6.6174   6.6594   6.7442   6.8487   6.9957   7.0041   7.0595
     7.1384   7.1607   7.2793   7.3124   7.3436   7.4663   7.5373   7.5683
     7.6354   7.7942   7.9003   7.9260   8.0765   8.1030   8.1266   8.2039
     8.2402   8.2890   8.3687   8.3974   8.4834   8.5199   8.6322   8.6718
     8.7946   8.9190   8.9268   9.0339   9.0830   9.1498   9.2765

 ------ SPIN DOWN ----------


          k = 0.0000 0.0000 0.0000 ( 61588 PWs)   bands (ev):

   -60.7597 -60.7595 -60.7150 -60.7142 -60.6869 -60.6670 -60.6428 -60.6230
   -60.5794 -60.3748 -54.4066 -54.3513 -54.2548 -54.2122 -52.7311 -46.2837
   -46.2602 -41.6239 -41.6147 -41.5309 -41.5224 -39.8195 -28.6129 -27.7676
   -27.7590 -27.6842 -27.6704 -27.5765 -27.5646 -27.4471 -27.4348 -27.3635
   -27.3125 -27.2906 -27.2463 -27.2403 -27.2318 -27.2041 -27.1824 -27.1464
   -27.1285 -27.1251 -26.9397 -26.9369 -26.9302 -26.9285 -26.8697 -26.8664
   -26.8431 -26.8288 -26.7478 -26.7183 -24.1883 -23.9812 -23.6681 -23.5896
   -23.3127 -23.2019 -23.1524 -23.0589 -22.9473 -22.8701 -22.8631 -22.6391
   -22.5179 -22.4652 -22.4078 -22.3641 -22.2772 -22.2406 -21.7820 -21.7224
   -21.6462 -20.1915 -19.9148 -19.8301 -19.8234 -19.5997 -19.5920 -19.5856
   -19.5747 -19.5613 -19.5263 -19.3567 -19.3428 -18.1655 -17.9675 -17.8274
     0.5198   1.8483   2.9434   3.1565   3.3677   3.4755   3.5480   3.6168
     3.6548   3.8950   3.9224   4.1478   4.2637   4.4746   4.5603   4.7038
     4.7710   4.9452   5.0339   5.1119   5.1840   5.2734   5.2807   5.3376
     5.3905   5.4978   5.5605   5.6588   5.7419   5.7642   5.7802   5.9106
     6.0573   6.1088   6.2030   6.2382   6.2661   6.3240   6.3605   6.3775
     6.5952   6.6173   6.6592   6.7440   6.8485   6.9953   7.0038   7.0588
     7.1378   7.1604   7.2787   7.3121   7.3429   7.4659   7.5367   7.5682
     7.6350   7.7939   7.9000   7.9258   8.0761   8.1026   8.1263   8.2036
     8.2396   8.2887   8.3682   8.3972   8.4832   8.5196   8.6319   8.6716
     8.7944   8.9184   8.9266   9.0336   9.0827   9.1495   9.2721

     the Fermi energy is     7.2558 ev

!    total energy              =   -2942.34145042 Ry
     estimated scf accuracy    <       0.00063949 Ry
     smearing contrib. (-TS)   =      -0.10073244 Ry
     internal energy E=F+TS    =   -2942.24071799 Ry

     total magnetization       =    -0.01 Bohr mag/cell
     absolute magnetization    =     0.01 Bohr mag/cell

     convergence has been achieved in   5 iterations

     negative rho (up, down):  9.081E-01 9.081E-01

     Forces acting on atoms (cartesian axes, Ry/au):

     atom    1 type  1   force =    -0.00375031   -0.02168222    0.01006071
     atom    2 type  1   force =    -0.11544403   -0.01307051   -0.00905319
     atom    3 type  1   force =    -0.11499211    0.01241160   -0.00264322
     atom    4 type  1   force =     0.14947260   -0.01082365   -0.01464502
     atom    5 type  1   force =     0.10137888   -0.02199926    0.00347610
     atom    6 type  2   force =    -0.00011959   -0.01833465    0.01040075
     atom    7 type  2   force =    -0.01285564    0.01285986   -0.00090234
     atom    8 type  3   force =    -0.10968166    0.00438905   -0.00516129
     atom    9 type  3   force =    -0.34775014   -1.56131845    0.00223004
     atom   10 type  3   force =    -0.02396409   -0.03109743   -0.05930162
     atom   11 type  3   force =    -0.02240430   -0.03432957    0.05876250
     atom   12 type  3   force =    -0.01009903    0.03457668   -0.05377752
     atom   13 type  3   force =    -0.01308465    0.02804640    0.06321130
     atom   14 type  3   force =     0.01766037   -0.03413251   -0.06137848
     atom   15 type  3   force =     0.01715870   -0.03670549    0.06149737
     atom   16 type  3   force =     0.01345657    0.04200593   -0.05269632
     atom   17 type  3   force =     0.01541986    0.03461101    0.06262335
     atom   18 type  4   force =    -0.01501056    0.02251399   -0.01690067
     atom   19 type  4   force =    -0.12420112   -0.00647974   -0.11194645
     atom   20 type  4   force =    -0.12746525    0.00438364    0.11632490
     atom   21 type  4   force =     0.12174878   -0.00734788   -0.11265063
     atom   22 type  4   force =     0.12689103    0.00214136    0.11641647
     atom   23 type  5   force =     0.47763571    1.59938183   -0.00394674
     The non-local contrib.  to forces
     atom    1 type  1   force =     0.00757436   -0.00603765    0.01587698
     atom    2 type  1   force =    -0.24099228   -0.16258726    0.01009344
     atom    3 type  1   force =    -0.23626086    0.15549088   -0.02904182
     atom    4 type  1   force =     0.25250895   -0.14497875    0.01051849
     atom    5 type  1   force =     0.20180482    0.10743610   -0.02437849
     atom    6 type  2   force =    -0.00383909   -0.04496668   -0.06393380
     atom    7 type  2   force =     0.00429207    0.06586887    0.06444844
     atom    8 type  3   force =    -0.25317970    0.00708703   -0.00812378
     atom    9 type  3   force =     0.37507030    0.70530841    0.00151277
     atom   10 type  3   force =    -0.21343654    0.00305169   -0.20439904
     atom   11 type  3   force =    -0.22312193    0.00658577    0.19820685
     atom   12 type  3   force =    -0.19615896   -0.02341950   -0.18136037
     atom   13 type  3   force =    -0.20440100   -0.00723119    0.21021177
     atom   14 type  3   force =     0.21444728   -0.00317233   -0.20726139
     atom   15 type  3   force =     0.22489957    0.00176800    0.19863434
     atom   16 type  3   force =     0.20305466   -0.01701316   -0.17542603
     atom   17 type  3   force =     0.20969966   -0.00227005    0.20378919
     atom   18 type  4   force =     0.00200162    0.05282832   -0.06888721
     atom   19 type  4   force =     0.05903843    0.00969223    0.07547041
     atom   20 type  4   force =     0.05584595   -0.01367997   -0.06824190
     atom   21 type  4   force =    -0.06203619    0.01851885    0.06663119
     atom   22 type  4   force =    -0.05664930   -0.00496071   -0.05699387
     atom   23 type  5   force =    -0.03758582   -0.15983056   -0.00352038
     The ionic contribution  to forces
     atom    1 type  1   force =    -0.25021198   -4.87405169   14.18936809
     atom    2 type  1   force =   -39.77563950   -6.14107415    0.77955144
     atom    3 type  1   force =   -39.91455374    6.29816607   -0.71250609
     atom    4 type  1   force =    39.61756778   -6.20166957    0.77867760
     atom    5 type  1   force =    39.38321631    7.57823524   -0.70224522
     atom    6 type  2   force =    -0.26289478   -3.84638467  -14.09760886
     atom    7 type  2   force =    -0.86182235    3.80633589   14.67299950
     atom    8 type  3   force =   -52.53339154   -0.09803437   -0.06506676
     atom    9 type  3   force =    50.41442787   -6.07824521   -0.07105005
     atom   10 type  3   force =   -36.11072933   -2.09596780  -23.11668707
     atom   11 type  3   force =   -35.18475663   -0.84864312   22.12079279
     atom   12 type  3   force =   -35.34508700    0.86942900  -22.22577925
     atom   13 type  3   force =   -36.13628568    2.25396750   23.15616068
     atom   14 type  3   force =    36.01470518   -2.11470929  -23.18379192
     atom   15 type  3   force =    35.08948084   -0.86691949   22.18772664
     atom   16 type  3   force =    35.17317058    1.00923828  -22.44277068
     atom   17 type  3   force =    35.96184757    2.39559441   23.37622826
     atom   18 type  4   force =    -0.81042152    4.56221024  -14.55033125
     atom   19 type  4   force =   -36.01450699    0.90076297  -25.64138712
     atom   20 type  4   force =   -35.99784905   -1.00837991   25.61983222
     atom   21 type  4   force =    35.82302634    0.78625690  -25.97405681
     atom   22 type  4   force =    35.80654058   -1.12029136   25.95556292
     atom   23 type  5   force =     5.91416704    4.83417411   -0.05361909
     The local contribution  to forces
     atom    1 type  1   force =     0.22984815    4.86831838  -14.21014100
     atom    2 type  1   force =    39.90630089    6.29573692   -0.81921339
     atom    3 type  1   force =    40.04237173   -6.44487755    0.71918706
     atom    4 type  1   force =   -39.74467374    6.33602445   -0.82518783
     atom    5 type  1   force =   -39.50376148   -7.69313543    0.71025965
     atom    6 type  2   force =     0.25849251    3.87717207   14.15617325
     atom    7 type  2   force =     0.83806533   -3.86871482  -14.75417060
     atom    8 type  3   force =    52.70681026    0.09267826    0.04841798
     atom    9 type  3   force =   -51.17941369    3.77012650    0.05144186
     atom   10 type  3   force =    36.32372731    2.04478715   23.27749722
     atom   11 type  3   force =    35.40818090    0.80336660  -22.27042469
     atom   12 type  3   force =    35.55347814   -0.79664508   22.36747556
     atom   13 type  3   force =    36.34573085   -2.21487923  -23.31027760
     atom   14 type  3   force =   -36.24150277    2.06597404   23.34429409
     atom   15 type  3   force =   -35.32580499    0.82249836  -22.33305190
     atom   16 type  3   force =   -35.39192224   -0.93429414   22.57636177
     atom   17 type  3   force =   -36.18144917   -2.35325051  -23.52189942
     atom   18 type  4   force =     0.78647440   -4.59255463   14.58335345
     atom   19 type  4   force =    35.83748888   -0.91482190   25.46620121
     atom   20 type  4   force =    35.82160229    1.02667428  -25.44127823
     atom   21 type  4   force =   -35.65177366   -0.80963896   25.80660113
     atom   22 type  4   force =   -35.63654027    1.12821688  -25.78753423
     atom   23 type  5   force =    -5.40216026   -3.08004129    0.05016740
     The core correction contribution to forces
     atom    1 type  1   force =     0.00188418    0.00137648   -0.00063233
     atom    2 type  1   force =    -0.00998710   -0.00130519    0.00041840
     atom    3 type  1   force =    -0.01122593    0.00365581   -0.00129734
     atom    4 type  1   force =     0.01706200   -0.00266233    0.00065098
     atom    5 type  1   force =     0.00409781    0.00725487   -0.00063940
     atom    6 type  2   force =     0.00037346    0.00233202    0.00307638
     atom    7 type  2   force =    -0.00011003   -0.00327471   -0.00264815
     atom    8 type  3   force =    -0.03044627    0.00060273   -0.00027745
     atom    9 type  3   force =     0.02642485    0.03117956    0.00023405
     atom   10 type  3   force =    -0.02263125    0.00922701   -0.01566736
     atom   11 type  3   force =    -0.02414143    0.00953246    0.01658823
     atom   12 type  3   force =    -0.02118025   -0.00976728   -0.01584749
     atom   13 type  3   force =    -0.02134023   -0.00921977    0.01673201
     atom   14 type  3   force =     0.02315588    0.00894357   -0.01808446
     atom   15 type  3   force =     0.02456962    0.00937667    0.01857873
     atom   16 type  3   force =     0.02239624   -0.00861290   -0.01447652
     atom   17 type  3   force =     0.02235670   -0.00792937    0.01536620
     atom   18 type  4   force =    -0.00011437   -0.00296668    0.00336576
     atom   19 type  4   force =    -0.00956281    0.00003432   -0.00968888
     atom   20 type  4   force =    -0.00953126    0.00038205    0.00942472
     atom   21 type  4   force =     0.00975505   -0.00048070   -0.00908197
     atom   22 type  4   force =     0.00956341   -0.00021517    0.00857819
     atom   23 type  5   force =     0.00000000    0.00000000    0.00000000
     The Hubbard contrib.    to forces
     atom    1 type  1   force =     0.00000000    0.00000000    0.00000000
     atom    2 type  1   force =     0.00000000    0.00000000    0.00000000
     atom    3 type  1   force =     0.00000000    0.00000000    0.00000000
     atom    4 type  1   force =     0.00000000    0.00000000    0.00000000
     atom    5 type  1   force =     0.00000000    0.00000000    0.00000000
     atom    6 type  2   force =     0.00000000    0.00000000    0.00000000
     atom    7 type  2   force =     0.00000000    0.00000000    0.00000000
     atom    8 type  3   force =     0.00000000    0.00000000    0.00000000
     atom    9 type  3   force =     0.00000000    0.00000000    0.00000000
     atom   10 type  3   force =     0.00000000    0.00000000    0.00000000
     atom   11 type  3   force =     0.00000000    0.00000000    0.00000000
     atom   12 type  3   force =     0.00000000    0.00000000    0.00000000
     atom   13 type  3   force =     0.00000000    0.00000000    0.00000000
     atom   14 type  3   force =     0.00000000    0.00000000    0.00000000
     atom   15 type  3   force =     0.00000000    0.00000000    0.00000000
     atom   16 type  3   force =     0.00000000    0.00000000    0.00000000
     atom   17 type  3   force =     0.00000000    0.00000000    0.00000000
     atom   18 type  4   force =     0.00000000    0.00000000    0.00000000
     atom   19 type  4   force =     0.00000000    0.00000000    0.00000000
     atom   20 type  4   force =     0.00000000    0.00000000    0.00000000
     atom   21 type  4   force =     0.00000000    0.00000000    0.00000000
     atom   22 type  4   force =     0.00000000    0.00000000    0.00000000
     atom   23 type  5   force =     0.00000000    0.00000000    0.00000000
     The SCF correction term to forces
     atom    1 type  1   force =     0.00640357   -0.01103492    0.01415476
     atom    2 type  1   force =     0.00412255   -0.00358801    0.01866268
     atom    3 type  1   force =     0.00392528    0.00022922    0.01958075
     atom    4 type  1   force =     0.00625619    0.00271537    0.01926153
     atom    5 type  1   force =     0.01527000   -0.02153723    0.01904533
     atom    6 type  2   force =     0.00699689   -0.00623458    0.01125955
     atom    7 type  2   force =     0.00596792    0.01289743    0.01703425
     atom    8 type  3   force =    -0.00022582    0.00230822    0.01845449
     atom    9 type  3   force =     0.01498911    0.01056511    0.01865718
     atom   10 type  3   force =    -0.00164569    0.00805733   -0.00147960
     atom   11 type  3   force =     0.00068336   -0.00491846   -0.00783490
[...]
     3.5729   3.7824   3.8377   3.9918   4.1065   4.3979   4.5068   4.6721
     4.7350   4.7916   4.9785   5.1057   5.2189   5.2287   5.2672   5.3108
     5.4027   5.5627   5.6199   5.7135   5.7318   5.7666   5.7905   5.8587
     6.0208   6.0684   6.1499   6.1566   6.2579   6.2875   6.3559   6.4165
     6.5011   6.6731   6.6985   6.7784   6.8917   6.9683   6.9842   7.1030
     7.1263   7.1307   7.1643   7.2014   7.4190   7.4852   7.5001   7.6391
     7.6562   7.8049   7.8838   8.0083   8.0683   8.0771   8.0959   8.1951
     8.2697   8.3110   8.3613   8.3782   8.4706   8.5997   8.6432   8.7367
     8.8587   8.9154   9.0541   9.0643   9.1679   9.1921   9.2641

     the Fermi energy is     7.2360 ev

!    total energy              =   -2942.25444726 Ry
     estimated scf accuracy    <       0.00039027 Ry
     smearing contrib. (-TS)   =      -0.09774892 Ry
     internal energy E=F+TS    =   -2942.15669834 Ry

     total magnetization       =    -0.00 Bohr mag/cell
     absolute magnetization    =     0.00 Bohr mag/cell

     convergence has been achieved in   5 iterations

     negative rho (up, down):  9.082E-01 9.082E-01

     Forces acting on atoms (cartesian axes, Ry/au):

     atom    1 type  1   force =    -0.08602204   -0.08436345    0.05889924
     atom    2 type  1   force =    -0.10838889   -0.00970667    0.00532721
     atom    3 type  1   force =    -0.19648833    0.10567810   -0.07339539
     atom    4 type  1   force =     0.11315110   -0.06698767    0.00104491
     atom    5 type  1   force =     0.13022769    0.00619181    0.00120300
     atom    6 type  2   force =    -0.06564728   -0.06857473   -0.03904841
     atom    7 type  2   force =     0.99118497   -0.68341613    1.00853811
     atom    8 type  3   force =    -0.11985036   -0.01125373   -0.01121116
     atom    9 type  3   force =     0.20544716    0.19028805   -0.01931924
     atom   10 type  3   force =    -0.01738097   -0.02419132   -0.06054923
     atom   11 type  3   force =    -0.01694262   -0.03086568    0.05713930
     atom   12 type  3   force =    -0.01541010    0.04239381   -0.05970488
     atom   13 type  3   force =    -0.01899078    0.04650001    0.07506203
     atom   14 type  3   force =     0.02254066   -0.03104272   -0.05891830
     atom   15 type  3   force =     0.03310882   -0.02658566    0.06347690
     atom   16 type  3   force =     0.01501988    0.03212164   -0.05601636
     atom   17 type  3   force =     0.00658667    0.04311170    0.05892614
     atom   18 type  4   force =     0.02441000   -0.01127942   -0.00646450
     atom   19 type  4   force =    -0.12225587    0.00101690   -0.11717875
     atom   20 type  4   force =    -0.12623467    0.00353076    0.11407368
     atom   21 type  4   force =     0.12265448   -0.00561779   -0.12266907
     atom   22 type  4   force =     0.11672506    0.00299370    0.11361285
     atom   23 type  5   force =    -0.88744458    0.58005851   -0.93282808
     The non-local contrib.  to forces
     atom    1 type  1   force =     0.04061756    0.02788959   -0.04749482
     atom    2 type  1   force =    -0.23528708   -0.16566904    0.02784592
     atom    3 type  1   force =    -0.23896961    0.14042648   -0.01813947
     atom    4 type  1   force =     0.23460279   -0.17247159    0.01605062
     atom    5 type  1   force =     0.26724087    0.11739224   -0.02702235
     atom    6 type  2   force =     0.04089398   -0.00700973   -0.01965931
     atom    7 type  2   force =     0.01190467    0.04888042    0.05652136
     atom    8 type  3   force =    -0.25939170    0.02792057   -0.00604886
     atom    9 type  3   force =     0.12592079   -0.08237076    0.03078180
     atom   10 type  3   force =    -0.21677214    0.01220180   -0.21870469
     atom   11 type  3   force =    -0.22717836    0.00707652    0.19722977
     atom   12 type  3   force =    -0.19137559   -0.02358705   -0.16697033
     atom   13 type  3   force =    -0.20886851   -0.00320060    0.20859405
     atom   14 type  3   force =     0.21371681    0.01182713   -0.20455121
     atom   15 type  3   force =     0.21557909    0.00823282    0.19046932
     atom   16 type  3   force =     0.19985997   -0.01309764   -0.19137393
     atom   17 type  3   force =     0.18958117   -0.00074849    0.21285687
     atom   18 type  4   force =     0.00196565    0.06054618   -0.07041984
     atom   19 type  4   force =     0.05989686    0.01788089    0.06928044
     atom   20 type  4   force =     0.05114457   -0.03399985   -0.05062204
     atom   21 type  4   force =    -0.06976409    0.00296565    0.07904650
     atom   22 type  4   force =    -0.04206515   -0.00376559   -0.05903245
     atom   23 type  5   force =     0.13234928   -0.06683476    0.14243473
     The ionic contribution  to forces
     atom    1 type  1   force =    -1.63858593   -5.29120449   16.64695797
     atom    2 type  1   force =   -40.39928688   -6.55462021    0.67563099
     atom    3 type  1   force =   -40.65131522    7.48006526   -2.17784238
     atom    4 type  1   force =    40.22467873   -8.83821943    0.72157671
     atom    5 type  1   force =    40.73469931    4.27568977   -1.07198889
     atom    6 type  2   force =    -1.87269667   -4.29804450  -16.82114395
     atom    7 type  2   force =     5.72354837    0.62543866   17.01168039
     atom    8 type  3   force =   -53.26660310    0.29252466   -0.52331287
     atom    9 type  3   force =    52.74407676    6.00621877    0.17160894
     atom   10 type  3   force =   -36.26146528   -2.24929599  -23.35716586
     atom   11 type  3   force =   -35.35437166   -0.90756891   22.43503978
     atom   12 type  3   force =   -35.19943893    0.68109252  -22.23257069
     atom   13 type  3   force =   -36.22877716    2.42006763   23.84750777
     atom   14 type  3   force =    36.21820948   -2.48125219  -23.62368191
     atom   15 type  3   force =    35.35001666   -1.14913423   22.65495215
     atom   16 type  3   force =    35.45568418    0.35697748  -21.85834225
     atom   17 type  3   force =    36.53785368    1.87159983   23.05074558
     atom   18 type  4   force =     1.72235021    4.16385929  -13.56702559
     atom   19 type  4   force =   -35.99692517    1.17949848  -25.74135086
     atom   20 type  4   force =   -36.06330050   -1.01402546   25.98744198
     atom   21 type  4   force =    36.24504138    1.76380159  -25.45622947
     atom   22 type  4   force =    36.37168418   -0.31166028   25.43896426
     atom   23 type  5   force =    -4.39507645    1.97819175   -2.21145179
     The local contribution  to forces
     atom    1 type  1   force =     1.50083428    5.18307811  -16.52550085
     atom    2 type  1   force =    40.54089063    6.72729364   -0.68559106
     atom    3 type  1   force =    40.70422131   -7.51723834    2.13845297
     atom    4 type  1   force =   -40.36386810    8.94720196   -0.72989777
     atom    5 type  1   force =   -40.88284872   -4.39111067    1.10611387
     atom    6 type  2   force =     1.76071642    4.24415838   16.80867415
     atom    7 type  2   force =    -4.74878269   -1.37474966  -16.04061595
     atom    8 type  3   force =    53.43641828   -0.34676466    0.52897113
     atom    9 type  3   force =   -52.69675112   -5.72898911   -0.20980616
     atom   10 type  3   force =    36.48638074    2.21822006   23.53243232
     atom   11 type  3   force =    35.58794741    0.86398565  -22.59572813
     atom   12 type  3   force =    35.39937575   -0.61653850   22.35025938
     atom   13 type  3   force =    36.43348651   -2.36090622  -23.99366292
     atom   14 type  3   force =   -36.43455273    2.44106441   23.78288641
     atom   15 type  3   force =   -35.56638879    1.12571231  -22.80079738
     atom   16 type  3   force =   -35.66342459   -0.30959816   22.01202576
     atom   17 type  3   force =   -36.75201866   -1.82536675  -23.22514727
     atom   18 type  4   force =    -1.70152855   -4.24643674   13.63493584
     atom   19 type  4   force =    35.83003967   -1.20035607   25.56323321
     atom   20 type  4   force =    35.89891543    1.04994058  -25.83860721
     atom   21 type  4   force =   -36.07010851   -1.77666897   25.26010812
     atom   22 type  4   force =   -36.22428575    0.30946490  -25.27281953
     atom   23 type  5   force =     3.37502595   -1.33236405    1.13820676
     The core correction contribution to forces
     atom    1 type  1   force =     0.00184437    0.00099230   -0.00590077
     atom    2 type  1   force =    -0.01255386   -0.00478876   -0.00030052
     atom    3 type  1   force =    -0.00750814   -0.00151512   -0.00440763
     atom    4 type  1   force =     0.01209219   -0.00137447    0.00089856
     atom    5 type  1   force =     0.01466630    0.00179483   -0.00195031
     atom    6 type  2   force =    -0.00200741    0.00031436    0.00044306
     atom    7 type  2   force =     0.00055199   -0.00361614   -0.00176278
     atom    8 type  3   force =    -0.03064955    0.00350269    0.00022028
     atom    9 type  3   force =     0.02379557   -0.00102178    0.00014803
     atom   10 type  3   force =    -0.02251127    0.01052375   -0.01775782
     atom   11 type  3   force =    -0.02404808    0.00942257    0.01818276
     atom   12 type  3   force =    -0.02352998   -0.00835040   -0.01523355
     atom   13 type  3   force =    -0.02156581   -0.01033164    0.01630003
     atom   14 type  3   force =     0.02249962    0.00966176   -0.01612678
     atom   15 type  3   force =     0.02480759    0.00778178    0.01888580
     atom   16 type  3   force =     0.02325507   -0.00871819   -0.01690120
     atom   17 type  3   force =     0.02059869   -0.01133910    0.01702932
     atom   18 type  4   force =     0.00026806   -0.00382171    0.00388315
     atom   19 type  4   force =    -0.00956742   -0.00050595   -0.00941124
     atom   20 type  4   force =    -0.00920458    0.00151082    0.00824032
     atom   21 type  4   force =     0.01024198    0.00055671   -0.00990394
     atom   22 type  4   force =     0.00826570    0.00086454    0.00823203
     atom   23 type  5   force =     0.00000000    0.00000000    0.00000000
     The Hubbard contrib.    to forces
     atom    1 type  1   force =     0.00000000    0.00000000    0.00000000
     atom    2 type  1   force =     0.00000000    0.00000000    0.00000000
     atom    3 type  1   force =     0.00000000    0.00000000    0.00000000
     atom    4 type  1   force =     0.00000000    0.00000000    0.00000000
     atom    5 type  1   force =     0.00000000    0.00000000    0.00000000
     atom    6 type  2   force =     0.00000000    0.00000000    0.00000000
     atom    7 type  2   force =     0.00000000    0.00000000    0.00000000
     atom    8 type  3   force =     0.00000000    0.00000000    0.00000000
     atom    9 type  3   force =     0.00000000    0.00000000    0.00000000
     atom   10 type  3   force =     0.00000000    0.00000000    0.00000000
     atom   11 type  3   force =     0.00000000    0.00000000    0.00000000
     atom   12 type  3   force =     0.00000000    0.00000000    0.00000000
     atom   13 type  3   force =     0.00000000    0.00000000    0.00000000
     atom   14 type  3   force =     0.00000000    0.00000000    0.00000000
     atom   15 type  3   force =     0.00000000    0.00000000    0.00000000
     atom   16 type  3   force =     0.00000000    0.00000000    0.00000000
     atom   17 type  3   force =     0.00000000    0.00000000    0.00000000
     atom   18 type  4   force =     0.00000000    0.00000000    0.00000000
     atom   19 type  4   force =     0.00000000    0.00000000    0.00000000
     atom   20 type  4   force =     0.00000000    0.00000000    0.00000000
     atom   21 type  4   force =     0.00000000    0.00000000    0.00000000
     atom   22 type  4   force =     0.00000000    0.00000000    0.00000000
     atom   23 type  5   force =     0.00000000    0.00000000    0.00000000
     The SCF correction term to forces
     atom    1 type  1   force =     0.00902032   -0.00506035   -0.00843419
     atom    2 type  1   force =    -0.00239906   -0.01186369   -0.01153001
     atom    3 type  1   force =    -0.00316401    0.00399843   -0.01073077
     atom    4 type  1   force =     0.00539815   -0.00206553   -0.00685512
     atom    5 type  1   force =    -0.00377742    0.00248426   -0.00322122
     atom    6 type  2   force =     0.00719905   -0.00793464   -0.00663426
     atom    7 type  2   force =     0.00371528    0.02068921   -0.01655681
     atom    8 type  3   force =     0.00012836    0.01162163   -0.01031274
     atom    9 type  3   force =     0.00815780   -0.00349046   -0.01132374
     atom   10 type  3   force =    -0.00326037   -0.01578232    0.00137493
     atom   11 type  3   force =     0.00046072   -0.00372290    0.00314322
     atom   12 type  3   force =    -0.00068870    0.00983586    0.00553842
     atom   13 type  3   force =     0.00648684    0.00092947   -0.00294880
     atom   14 type  3   force =     0.00242013   -0.01228521    0.00328329
     atom   15 type  3   force =     0.00884692   -0.01911973    0.00069511
     atom   16 type  3   force =    -0.00060211    0.00661677   -0.00069664
     atom   17 type  3   force =     0.01032443    0.00902483    0.00416975
     atom   18 type  4   force =     0.00110727    0.01463217   -0.00710995
     atom   19 type  4   force =    -0.00594717    0.00455816    0.00179781
     atom   20 type  4   force =    -0.00403695    0.00016328    0.00834874
     atom   21 type  4   force =     0.00699638    0.00378585    0.00503783
     atom   22 type  4   force =     0.00287872    0.00814874   -0.00100336
     atom   23 type  5   force =     0.00000929    0.00112418   -0.00128968

     Total force =     2.200575     Total SCF correction =     0.062759


     Computing stress (Cartesian axis) and pressure


     negative rho (up, down):  9.082E-01 9.082E-01
          total   stress  (Ry/bohr**3)                   (kbar)     P=      122.70
   0.00091268  -0.00012110   0.00023507          134.26      -17.82       34.58
  -0.00012110   0.00085903  -0.00016998          -17.82      126.37      -25.01
   0.00023507  -0.00016998   0.00073054           34.58      -25.01      107.47


     Entering Dynamics:    iteration =    30
                           time      =   0.0030 pico-seconds


ATOMIC_POSITIONS (angstrom)
Hf            2.6720962927        2.8350421412        6.6040815732
Hf            1.2544891838        1.2943043113        5.0583750034
Hf            1.2568882757        7.3980350570        5.0880902961
Hf            4.0900610042        1.2942942223        5.0584410640
Hf            4.0868267053        7.3983542970        5.0880455040
Nb            2.6720349119        2.8047803301        3.5156149790
Nb            2.6722797342        5.8845663263        6.6349029575
Ta            1.2108172832        4.3491693355        5.0707406530
Ta            4.0156966775        3.9956125045        5.0613227318
Ta            1.3092965116        1.3220826947        2.0583985112
Ta            1.3048445468        1.3163195224        8.0949356061
Ta            1.3060891711        7.3842080631        2.0458912960
Ta            1.3097860035        7.3734291250        8.0863843683
Ta            4.0350585701        1.3220602259        2.0583926164
Ta            4.0395095154        1.3163020384        8.0949431713
Ta            4.0382727063        7.3842114924        2.0458862344
Ta            4.0345695023        7.3734308281        8.0863857403
Zr            2.6722367145        5.8745871135        3.5273094358
Zr            1.2444219293        4.3301711319        1.9985371615
Zr            1.2409266038        4.3623547281        8.1512312849
Zr            4.0999349181        4.3301657959        1.9985551021
Zr            4.1034481205        4.3623446823        8.1512251089
H            11.6645385164       24.4948629273        5.9900389280


     kinetic energy (Ekin) =         560.21513465 Ry
     temperature           =     2680332.54607900 K 
     Ekin + Etot (const)   =       -2382.03931261 Ry
     Ions kinetic stress =         9894.01 (kbar)
                                   3590.66        9663.11         524.85
                                   9663.11       26014.28        1410.94
                                    524.85        1410.94          77.11



     Linear momentum :   -0.0000000000    0.0000000000    0.0000000000

     The maximum number of steps has been reached.

     End of molecular dynamics calculation

     diffusion coefficients :
     atom     1   D =       0.00000037 cm^2/s
     atom     2   D =       0.00000036 cm^2/s
     atom     3   D =       0.00000038 cm^2/s
     atom     4   D =       0.00000040 cm^2/s
     atom     5   D =       0.00000043 cm^2/s
     atom     6   D =       0.00000036 cm^2/s
     atom     7   D =       0.00000040 cm^2/s
     atom     8   D =       0.00000038 cm^2/s
     atom     9   D =       0.00072483 cm^2/s
     atom    10   D =       0.00000037 cm^2/s
     atom    11   D =       0.00000037 cm^2/s
     atom    12   D =       0.00000041 cm^2/s
     atom    13   D =       0.00000041 cm^2/s
     atom    14   D =       0.00000037 cm^2/s
     atom    15   D =       0.00000037 cm^2/s
     atom    16   D =       0.00000041 cm^2/s
     atom    17   D =       0.00000041 cm^2/s
     atom    18   D =       0.00000040 cm^2/s
     atom    19   D =       0.00000037 cm^2/s
     atom    20   D =       0.00000038 cm^2/s
     atom    21   D =       0.00000045 cm^2/s
     atom    22   D =       0.00000046 cm^2/s
     atom    23   D =       2.08975558 cm^2/s

     < D > =       0.09089081 cm^2/s

     Writing all to output data dir outdir/pwscf.save/

     init_run     :      8.66s CPU     11.23s WALL (       1 calls)
     electrons    :   4076.73s CPU   4915.64s WALL (      30 calls)
     update_pot   :     30.24s CPU     31.39s WALL (      29 calls)
     forces       :    311.71s CPU    365.91s WALL (      30 calls)
     stress       :    555.72s CPU    601.44s WALL (      30 calls)

     Called by init_run:
     wfcinit      :      6.38s CPU      8.42s WALL (       1 calls)
     potinit      :      0.30s CPU      0.50s WALL (       1 calls)
     hinit0       :      0.89s CPU      1.04s WALL (       1 calls)

     Called by electrons:
     c_bands      :   3343.09s CPU   4048.42s WALL (     162 calls)
     sum_band     :    488.15s CPU    575.42s WALL (     162 calls)
     v_of_rho     :     16.79s CPU     19.79s WALL (     192 calls)
     newd         :    277.22s CPU    324.05s WALL (     192 calls)
     mix_rho      :      1.38s CPU      2.02s WALL (     162 calls)

     Called by c_bands:
     init_us_2    :      5.84s CPU      6.08s WALL (     770 calls)
     init_us_2:cp :      5.83s CPU      6.08s WALL (     770 calls)
     regterg      :   3321.09s CPU   4022.87s WALL (     324 calls)

     Called by *egterg:
     rdiaghg      :    107.45s CPU    133.24s WALL (    2668 calls)
     h_psi        :   1657.30s CPU   1867.28s WALL (    2728 calls)
     s_psi        :    560.90s CPU    562.20s WALL (    2728 calls)
     g_psi        :      1.27s CPU      1.38s WALL (    2402 calls)

     Called by h_psi:
     h_psi:calbec :    804.44s CPU    948.39s WALL (    2728 calls)
     vloc_psi     :    181.00s CPU    244.90s WALL (    2728 calls)
     add_vuspsi   :    669.82s CPU    671.82s WALL (    2728 calls)

     General routines
     calbec       :   1306.54s CPU   1551.65s WALL (    3352 calls)
     fft          :     14.87s CPU     39.15s WALL (    3929 calls)
     ffts         :      0.35s CPU      0.49s WALL (     162 calls)
     fftw         :    194.95s CPU    265.47s WALL (  180534 calls)

     Parallel routines

     PWSCF        :      1h23m CPU      1h39m WALL


   This run was terminated on:  16:49:27  12Jun2023            

=------------------------------------------------------------------------------=
   JOB DONE.
=------------------------------------------------------------------------------=
