
     Program PWSCF v.7.2 starts on 15Jun2023 at 22:12:15 

     This program is part of the open-source Quantum ESPRESSO suite
     for quantum simulation of materials; please cite
         "P. Giannozzi et al., J. Phys.:Condens. Matter 21 395502 (2009);
         "P. Giannozzi et al., J. Phys.:Condens. Matter 29 465901 (2017);
         "P. Giannozzi et al., J. Chem. Phys. 152 154105 (2020);
          URL http://www.quantum-espresso.org", 
     in publications or presentations arising from this work. More details at
     http://www.quantum-espresso.org/quote

     Parallel version (MPI), running on    42 processors

     MPI processes distributed on     1 nodes
     173262 MiB available memory on the printing compute node when the environment starts

     Reading input from md_data/md_Hf5Nb2Ta10Zr5H_20steps_50eV_incident60_polar30.in
Warning: card &CELL ignored
Warning: card / ignored

     Current dimensions of program PWSCF are:
     Max number of different atomic species (ntypx) = 10
     Max number of k-points (npk) =  40000
     Max angular momentum in pseudopotentials (lmaxx) =  4

     File outdir/pwscf.md deleted, as requested

     gamma-point specific algorithms are used

     R & G space division:  proc/nbgrp/npool/nimage =      42
     Subspace diagonalization in iterative solution of the eigenvalue problem:
     one sub-group per band group will be used
     custom distributed-memory algorithm (size of sub-group:  2*  2 procs)


     Parallelization info
     --------------------
     sticks:   dense  smooth     PW     G-vecs:    dense   smooth      PW
     Min         262     262     63                23470    23470    2920
     Max         265     265     66                23484    23484    2942
     Sum       11057   11057   2753               986005   986005  123175

     Using Slab Decomposition



     bravais-lattice index     =            0
     lattice parameter (alat)  =      17.6500  a.u.
     unit-cell volume          =    5552.8853 (a.u.)^3
     number of atoms/cell      =           23
     number of atomic types    =            5
     number of electrons       =       277.00
     number of Kohn-Sham states=          167
     kinetic-energy cutoff     =     120.0000  Ry
     charge density cutoff     =     480.0000  Ry
     scf convergence threshold =      1.0E-03
     mixing beta               =       0.7000
     number of iterations used =            8  TF        mixing
     energy convergence thresh.=      0.0E+00
     force convergence thresh. =      0.0E+00
     Exchange-correlation=  SLA  PW   PBX  PBC
                           (   1   4   3   4   0   0   0)
     nstep                     =           20


     celldm(1)=  17.650041  celldm(2)=   0.000000  celldm(3)=   0.000000
     celldm(4)=   0.000000  celldm(5)=   0.000000  celldm(6)=   0.000000

     crystal axes: (cart. coord. in units of alat)
               a(1) = (   1.000000   0.000000   0.000000 )  
               a(2) = (   0.000000   0.929336   0.000000 )  
               a(3) = (   0.000000   0.000000   1.086698 )  

     reciprocal axes: (cart. coord. in units 2 pi/alat)
               b(1) = (  1.000000  0.000000  0.000000 )  
               b(2) = (  0.000000  1.076037  0.000000 )  
               b(3) = (  0.000000  0.000000  0.920219 )  


     PseudoPot. # 1 for Hf read from file:
     q-e/pseudo/hf_pbe_v1.uspp.F.UPF
     MD5 check sum: 8ee9378dfe14276e333edf04c5e4aa26
     Pseudo is Ultrasoft + core correction, Zval = 12.0
     Generated by new atomic code, or converted to UPF format
     Using radial grid of  921 points,  8 beta functions with: 
                l(1) =   0
                l(2) =   0
                l(3) =   0
                l(4) =   1
                l(5) =   1
                l(6) =   2
                l(7) =   2
                l(8) =   3
     Q(r) pseudized with  6 coefficients,  rinner =    1.200   1.200   1.200
                                                       1.200   1.200   1.200
                                                       1.200

     PseudoPot. # 2 for Nb read from file:
     q-e/pseudo/nb_pbe_v1.uspp.F.UPF
     MD5 check sum: 573aab8a2fa660278ed4a62cd769473f
     Pseudo is Ultrasoft + core correction, Zval = 13.0
     Generated by new atomic code, or converted to UPF format
     Using radial grid of  887 points,  6 beta functions with: 
                l(1) =   0
                l(2) =   0
                l(3) =   1
                l(4) =   1
                l(5) =   2
                l(6) =   2
     Q(r) pseudized with  6 coefficients,  rinner =    1.000   1.000   1.000
                                                       1.000   1.000

     PseudoPot. # 3 for Ta read from file:
     q-e/pseudo/ta_pbe_v1.uspp.F.UPF
     MD5 check sum: f8bbe9446314a3b8ea5d9f3e3836c939
     Pseudo is Ultrasoft + core correction, Zval = 13.0
     Generated by new atomic code, or converted to UPF format
     Using radial grid of  921 points,  7 beta functions with: 
                l(1) =   0
                l(2) =   0
                l(3) =   1
                l(4) =   1
                l(5) =   2
                l(6) =   2
                l(7) =   3
     Q(r) pseudized with  6 coefficients,  rinner =    1.300   1.300   1.300
                                                       1.300   1.300   1.300
                                                       1.300

     PseudoPot. # 4 for Zr read from file:
     q-e/pseudo/zr_pbe_v1.uspp.F.UPF
     MD5 check sum: 5db81b1e868ab7776c4564c113de050b
     Pseudo is Ultrasoft + core correction, Zval = 12.0
     Generated by new atomic code, or converted to UPF format
     Using radial grid of  887 points,  6 beta functions with: 
                l(1) =   0
                l(2) =   0
                l(3) =   1
                l(4) =   1
                l(5) =   2
                l(6) =   2
     Q(r) pseudized with  6 coefficients,  rinner =    1.200   1.200   1.200
                                                       1.200   1.200

     PseudoPot. # 5 for H  read from file:
     q-e/pseudo/h_pbe_v1.4.uspp.F.UPF
     MD5 check sum: 761ae9a214b05c3daf00ab9f6b793d6f
     Pseudo is Ultrasoft, Zval =  1.0
     Generated by new atomic code, or converted to UPF format
     Using radial grid of  615 points,  2 beta functions with: 
                l(1) =   0
                l(2) =   0
     Q(r) pseudized with  8 coefficients,  rinner =    0.700

     atomic species   valence    mass     pseudopotential
        Hf            12.00   178.49000     Hf( 1.00)
        Nb            13.00    92.90637     Nb( 1.00)
        Ta            13.00   180.94788     Ta( 1.00)
        Zr            12.00    91.22400     Zr( 1.00)
        H              1.00     2.01400     H ( 1.00)

     Starting magnetic structure 
     atomic species   magnetization
        Hf           0.000
        Nb           0.000
        Ta           0.000
        Zr           0.000
        H            0.000

     No symmetry found



   Cartesian axes

     site n.     atom                  positions (alat units)
         1           Hf  tau(   1) = (   0.2858672   0.3026898   0.7070626  )
         2           Hf  tau(   2) = (   0.1341532   0.1377178   0.5415917  )
         3           Hf  tau(   3) = (   0.1344204   0.7911996   0.5447610  )
         4           Hf  tau(   4) = (   0.4375813   0.1377178   0.5415917  )
         5           Hf  tau(   5) = (   0.4373140   0.7911996   0.5447610  )
         6           Nb  tau(   6) = (   0.2858672   0.2994572   0.3764008  )
         7           Nb  tau(   7) = (   0.2858672   0.6291626   0.7103852  )
         8           Ta  tau(   8) = (   0.1294832   0.4647675   0.5429471  )
         9           Ta  tau(   9) = (   0.4422513   0.4647675   0.5429471  )
        10           Ta  tau(  10) = (   0.1399628   0.1406984   0.2204260  )
        11           Ta  tau(  11) = (   0.1394848   0.1400847   0.8666573  )
        12           Ta  tau(  12) = (   0.1396156   0.7897030   0.2190832  )
        13           Ta  tau(  13) = (   0.1400119   0.7885528   0.8657390  )
        14           Ta  tau(  14) = (   0.4317717   0.1406984   0.2204260  )
        15           Ta  tau(  15) = (   0.4322496   0.1400847   0.8666573  )
        16           Ta  tau(  16) = (   0.4321189   0.7897030   0.2190832  )
        17           Ta  tau(  17) = (   0.4317226   0.7885528   0.8657390  )
        18           Zr  tau(  18) = (   0.2858672   0.6280820   0.3776642  )
        19           Zr  tau(  19) = (   0.1331729   0.4627493   0.2141328  )
        20           Zr  tau(  20) = (   0.1328036   0.4661802   0.8725649  )
        21           Zr  tau(  21) = (   0.4385616   0.4627493   0.2141328  )
        22           Zr  tau(  22) = (   0.4389309   0.4661802   0.8725649  )
        23           H   tau(  23) = (   0.5493177   0.6252677   0.6357822  )

     number of k points=     1  Gaussian smearing, width (Ry)=  0.0220
                       cart. coord. in units 2pi/alat
        k(    1) = (   0.0000000   0.0000000   0.0000000), wk =   1.0000000

     Dense  grid:   493003 G-vectors     FFT dimensions: ( 125, 120, 135)

     Estimated max dynamical RAM per process >     133.03 MB

     Estimated total dynamical RAM >       5.46 GB

     Check: negative core charge=   -0.000002
     Generating pointlists ...
     new r_m :   0.0907 (alat units)  1.6011 (a.u.) for type    1
     new r_m :   0.1098 (alat units)  1.9374 (a.u.) for type    2
     new r_m :   0.0883 (alat units)  1.5588 (a.u.) for type    3
     new r_m :   0.1112 (alat units)  1.9625 (a.u.) for type    4
     new r_m :   0.0883 (alat units)  1.5588 (a.u.) for type    5

     Initial potential from superposition of free atoms

     starting charge     266.9726, renormalised to     277.0000

     negative rho (up, down):  9.216E-01 9.216E-01
     Starting wfcs are  287 randomized atomic wfcs

     total cpu time spent up to now is       25.8 secs

     Self-consistent Calculation

     iteration #  1     ecut=   120.00 Ry     beta= 0.70
     Davidson diagonalization with overlap
     ethr =  1.00E-02,  avg # of iterations =  2.0

     negative rho (up, down):  9.947E-01 9.943E-01

     total cpu time spent up to now is       67.3 secs

     total energy              =   -2930.58010997 Ry
     estimated scf accuracy    <     276.71264984 Ry

     total magnetization       =    -0.00 Bohr mag/cell
     absolute magnetization    =     0.09 Bohr mag/cell

     iteration #  2     ecut=   120.00 Ry     beta= 0.70
     Davidson diagonalization with overlap
     ethr =  1.00E-02,  avg # of iterations =  5.0

     negative rho (up, down):  9.696E-01 9.685E-01

     total cpu time spent up to now is       97.2 secs

     total energy              =   -2942.26123879 Ry
     estimated scf accuracy    <      29.75433736 Ry

     total magnetization       =    -0.04 Bohr mag/cell
     absolute magnetization    =     0.22 Bohr mag/cell

     iteration #  3     ecut=   120.00 Ry     beta= 0.70
     Davidson diagonalization with overlap
     ethr =  1.00E-02,  avg # of iterations =  2.0

     negative rho (up, down):  1.005E+00 1.004E+00

     total cpu time spent up to now is      115.4 secs

     total energy              =   -2942.69972883 Ry
     estimated scf accuracy    <      12.79648660 Ry

     total magnetization       =    -0.03 Bohr mag/cell
     absolute magnetization    =     0.28 Bohr mag/cell

     iteration #  4     ecut=   120.00 Ry     beta= 0.70
     Davidson diagonalization with overlap
     ethr =  4.62E-03,  avg # of iterations =  4.0

     negative rho (up, down):  1.012E+00 1.009E+00

     total cpu time spent up to now is      133.2 secs

     total energy              =   -2942.92403237 Ry
     estimated scf accuracy    <       3.14496458 Ry

     total magnetization       =    -0.03 Bohr mag/cell
     absolute magnetization    =     0.33 Bohr mag/cell

     iteration #  5     ecut=   120.00 Ry     beta= 0.70
     Davidson diagonalization with overlap
     ethr =  1.14E-03,  avg # of iterations =  8.0

     negative rho (up, down):  9.848E-01 9.827E-01

     total cpu time spent up to now is      155.9 secs

     total energy              =   -2943.08287060 Ry
     estimated scf accuracy    <       1.51721682 Ry

     total magnetization       =    -0.02 Bohr mag/cell
     absolute magnetization    =     0.18 Bohr mag/cell

     iteration #  6     ecut=   120.00 Ry     beta= 0.70
     Davidson diagonalization with overlap
     ethr =  5.48E-04,  avg # of iterations =  2.0

     negative rho (up, down):  9.723E-01 9.710E-01

     total cpu time spent up to now is      184.4 secs

     total energy              =   -2943.12649147 Ry
     estimated scf accuracy    <       1.15568595 Ry

     total magnetization       =    -0.01 Bohr mag/cell
     absolute magnetization    =     0.13 Bohr mag/cell

     iteration #  7     ecut=   120.00 Ry     beta= 0.70
     Davidson diagonalization with overlap
     ethr =  4.17E-04,  avg # of iterations =  2.0

     negative rho (up, down):  9.468E-01 9.464E-01

     total cpu time spent up to now is      220.1 secs

     total energy              =   -2943.07698811 Ry
     estimated scf accuracy    <       0.40949000 Ry

     total magnetization       =    -0.00 Bohr mag/cell
     absolute magnetization    =     0.12 Bohr mag/cell

     iteration #  8     ecut=   120.00 Ry     beta= 0.70
     Davidson diagonalization with overlap
     ethr =  1.48E-04,  avg # of iterations =  6.5

     negative rho (up, down):  9.211E-01 9.211E-01

     total cpu time spent up to now is      250.1 secs

     total energy              =   -2943.07951232 Ry
     estimated scf accuracy    <       0.20160190 Ry

     total magnetization       =     0.01 Bohr mag/cell
     absolute magnetization    =     0.09 Bohr mag/cell

     iteration #  9     ecut=   120.00 Ry     beta= 0.70
     Davidson diagonalization with overlap
     ethr =  7.28E-05,  avg # of iterations =  9.0

     negative rho (up, down):  9.086E-01 9.088E-01

     total cpu time spent up to now is      268.0 secs

     total energy              =   -2943.07344204 Ry
     estimated scf accuracy    <       0.06482170 Ry

     total magnetization       =     0.01 Bohr mag/cell
     absolute magnetization    =     0.07 Bohr mag/cell

     iteration # 10     ecut=   120.00 Ry     beta= 0.70
     Davidson diagonalization with overlap
     ethr =  2.34E-05,  avg # of iterations =  8.5

     negative rho (up, down):  9.083E-01 9.083E-01

     total cpu time spent up to now is      289.0 secs

     total energy              =   -2943.07680221 Ry
     estimated scf accuracy    <       0.04707672 Ry

     total magnetization       =     0.02 Bohr mag/cell
     absolute magnetization    =     0.06 Bohr mag/cell

     iteration # 11     ecut=   120.00 Ry     beta= 0.70
     Davidson diagonalization with overlap
     ethr =  1.70E-05,  avg # of iterations =  2.0

     negative rho (up, down):  9.091E-01 9.091E-01

     total cpu time spent up to now is      306.6 secs

     total energy              =   -2943.08105802 Ry
     estimated scf accuracy    <       0.00953772 Ry

     total magnetization       =     0.02 Bohr mag/cell
     absolute magnetization    =     0.05 Bohr mag/cell

     iteration # 12     ecut=   120.00 Ry     beta= 0.70
     Davidson diagonalization with overlap
     ethr =  3.44E-06,  avg # of iterations = 15.0

     negative rho (up, down):  9.092E-01 9.092E-01

     total cpu time spent up to now is      333.8 secs

     total energy              =   -2943.08384768 Ry
     estimated scf accuracy    <       0.00173496 Ry

     total magnetization       =     0.02 Bohr mag/cell
     absolute magnetization    =     0.04 Bohr mag/cell

     iteration # 13     ecut=   120.00 Ry     beta= 0.70
     Davidson diagonalization with overlap
     ethr =  6.26E-07,  avg # of iterations =  4.0

     negative rho (up, down):  9.089E-01 9.089E-01

     Magnetic moment per site  (integrated on atomic sphere of radius R)
     atom   1 (R=0.091)  charge=  7.7968    0.0002
     atom   2 (R=0.091)  charge=  7.6305    0.0002
     atom   3 (R=0.091)  charge=  7.6303    0.0000
     atom   4 (R=0.091)  charge=  7.6304    0.0001
     atom   5 (R=0.091)  charge=  7.6366    0.0003
     atom   6 (R=0.110)  charge= 10.3481    0.0005
     atom   7 (R=0.110)  charge= 10.3565    0.0003
     atom   8 (R=0.088)  charge=  8.1242    0.0003
     atom   9 (R=0.088)  charge=  8.1291    0.0005
     atom  10 (R=0.088)  charge=  8.1034    0.0005
     atom  11 (R=0.088)  charge=  8.1033    0.0006
     atom  12 (R=0.088)  charge=  8.1047    0.0004
     atom  13 (R=0.088)  charge=  8.1029   -0.0001
     atom  14 (R=0.088)  charge=  8.1045   -0.0003
     atom  15 (R=0.088)  charge=  8.0985    0.0001
     atom  16 (R=0.088)  charge=  8.1036    0.0001
     atom  17 (R=0.088)  charge=  8.1092   -0.0003
     atom  18 (R=0.111)  charge=  9.4530    0.0002
     atom  19 (R=0.111)  charge=  8.9985   -0.0005
     atom  20 (R=0.111)  charge=  8.9941    0.0000
     atom  21 (R=0.111)  charge=  8.9970   -0.0009
     atom  22 (R=0.111)  charge=  9.0004   -0.0005
     atom  23 (R=0.088)  charge=  1.0974    0.0000

     total cpu time spent up to now is      374.6 secs

     End of self-consistent calculation

 ------ SPIN UP ------------


          k = 0.0000 0.0000 0.0000 ( 61588 PWs)   bands (ev):

   -60.7915 -60.7673 -60.7453 -60.7247 -60.6898 -60.6863 -60.6458 -60.6402
   -60.5655 -60.4698 -54.3595 -54.2753 -54.2307 -54.1396 -52.6992 -46.3420
   -46.2506 -41.6710 -41.6291 -41.5674 -41.5276 -39.7915 -27.7864 -27.7647
   -27.6969 -27.6805 -27.6059 -27.5778 -27.4571 -27.4494 -27.4217 -27.3431
   -27.3136 -27.2741 -27.2592 -27.2394 -27.2175 -27.1803 -27.1581 -27.1520
   -27.1306 -27.0942 -27.0722 -27.0227 -26.9720 -26.9471 -26.9437 -26.9230
   -26.8867 -26.8697 -26.8433 -26.8402 -24.1460 -23.9237 -23.6426 -23.5312
   -23.2889 -23.1764 -23.1306 -23.0491 -22.9042 -22.8156 -22.8004 -22.5681
   -22.5474 -22.4600 -22.4130 -22.3787 -22.2693 -22.2299 -21.7576 -21.6941
   -21.6252 -20.1913 -19.9656 -19.8326 -19.8228 -19.6841 -19.6225 -19.6071
   -19.5954 -19.5742 -19.5434 -19.3803 -19.3635 -18.1383 -17.9342 -17.8076
     1.0386   2.1064   2.9393   3.1350   3.3467   3.3568   3.5073   3.6276
     3.6827   3.8119   3.9109   4.0511   4.1403   4.5066   4.6322   4.7009
     4.7367   4.8548   5.0452   5.1181   5.2225   5.2677   5.2901   5.3752
     5.4066   5.5372   5.5745   5.7076   5.7315   5.7558   5.7618   5.8295
     5.9728   6.0657   6.1714   6.2139   6.2755   6.3109   6.3561   6.4114
     6.4410   6.5841   6.6584   6.7064   6.9098   6.9786   7.0217   7.1123
     7.1171   7.1622   7.2713   7.3120   7.3457   7.4650   7.5526   7.5804
     7.6194   7.8377   7.8818   7.9010   8.0748   8.0895   8.1147   8.1928
     8.2395   8.2726   8.3493   8.3722   8.4391   8.5511   8.6367   8.6883
     8.8498   8.9155   8.9833   9.0705   9.1301   9.2433   9.2784

 ------ SPIN DOWN ----------


          k = 0.0000 0.0000 0.0000 ( 61588 PWs)   bands (ev):

   -60.7916 -60.7672 -60.7453 -60.7244 -60.6898 -60.6861 -60.6455 -60.6398
   -60.5650 -60.4692 -54.3594 -54.2751 -54.2305 -54.1393 -52.6990 -46.3417
   -46.2498 -41.6715 -41.6301 -41.5676 -41.5285 -39.7911 -27.7863 -27.7645
   -27.6967 -27.6803 -27.6059 -27.5775 -27.4568 -27.4491 -27.4213 -27.3432
   -27.3136 -27.2741 -27.2590 -27.2391 -27.2176 -27.1796 -27.1579 -27.1516
   -27.1300 -27.0934 -27.0713 -27.0221 -26.9720 -26.9470 -26.9435 -26.9229
   -26.8862 -26.8694 -26.8431 -26.8399 -24.1455 -23.9233 -23.6422 -23.5309
   -23.2885 -23.1761 -23.1302 -23.0487 -22.9038 -22.8153 -22.8001 -22.5679
   -22.5470 -22.4593 -22.4127 -22.3783 -22.2687 -22.2294 -21.7573 -21.6938
   -21.6248 -20.1922 -19.9661 -19.8338 -19.8237 -19.6845 -19.6231 -19.6072
   -19.5960 -19.5751 -19.5439 -19.3807 -19.3646 -18.1379 -17.9339 -17.8074
     1.0391   2.1069   2.9398   3.1354   3.3474   3.3572   3.5078   3.6281
     3.6831   3.8124   3.9112   4.0513   4.1407   4.5071   4.6326   4.7014
     4.7372   4.8555   5.0456   5.1182   5.2231   5.2679   5.2903   5.3757
     5.4073   5.5376   5.5748   5.7080   5.7316   5.7558   5.7622   5.8298
     5.9730   6.0660   6.1718   6.2141   6.2758   6.3114   6.3564   6.4115
     6.4416   6.5844   6.6586   6.7067   6.9102   6.9786   7.0228   7.1133
     7.1190   7.1621   7.2730   7.3125   7.3464   7.4657   7.5522   7.5813
     7.6201   7.8381   7.8824   7.9012   8.0753   8.0904   8.1150   8.1941
     8.2403   8.2730   8.3503   8.3725   8.4398   8.5511   8.6367   8.6885
     8.8503   8.9165   8.9828   9.0705   9.1301   9.2436   9.2742

     the Fermi energy is     7.2606 ev

!    total energy              =   -2943.08498693 Ry
     estimated scf accuracy    <       0.00044771 Ry
     smearing contrib. (-TS)   =      -0.10227178 Ry
     internal energy E=F+TS    =   -2942.98271515 Ry

     total magnetization       =     0.01 Bohr mag/cell
     absolute magnetization    =     0.03 Bohr mag/cell

     convergence has been achieved in  13 iterations

     negative rho (up, down):  9.089E-01 9.089E-01

     Forces acting on atoms (cartesian axes, Ry/au):

     atom    1 type  1   force =     0.00029086   -0.02252903    0.00291829
     atom    2 type  1   force =    -0.11810462   -0.01520525   -0.00241840
     atom    3 type  1   force =    -0.11239082    0.01248612    0.00447395
     atom    4 type  1   force =     0.12149580   -0.00499827   -0.00419673
     atom    5 type  1   force =     0.10993337    0.00219641   -0.00949935
     atom    6 type  2   force =    -0.00605969   -0.01967034    0.00957842
     atom    7 type  2   force =    -0.01861347    0.01024136   -0.02316470
     atom    8 type  3   force =    -0.10335298    0.00327794   -0.00280157
     atom    9 type  3   force =     0.11565590    0.01114880   -0.01223213
     atom   10 type  3   force =    -0.02169801   -0.03005293   -0.05887110
     atom   11 type  3   force =    -0.02255701   -0.03448681    0.05486005
     atom   12 type  3   force =    -0.01758110    0.03417010   -0.05322956
     atom   13 type  3   force =    -0.00557156    0.02961729    0.06315504
     atom   14 type  3   force =     0.02108321   -0.03072255   -0.05833301
     atom   15 type  3   force =     0.02030658   -0.03901263    0.06268147
     atom   16 type  3   force =     0.01831395    0.03960979   -0.05278863
     atom   17 type  3   force =     0.01140605    0.04962197    0.06420254
     atom   18 type  4   force =    -0.00095345    0.02237546   -0.00693508
     atom   19 type  4   force =    -0.12862249   -0.00578357   -0.11597067
     atom   20 type  4   force =    -0.12460300    0.00614697    0.11897373
     atom   21 type  4   force =     0.12638656   -0.00781209   -0.11404382
     atom   22 type  4   force =     0.12835004   -0.00307165    0.11850270
     atom   23 type  5   force =     0.00688587   -0.00754710    0.01513854
     The non-local contrib.  to forces
     atom    1 type  1   force =     0.00361780   -0.00814180    0.02779096
     atom    2 type  1   force =    -0.25024102   -0.15917319    0.01436293
     atom    3 type  1   force =    -0.23582876    0.15136266   -0.01484488
     atom    4 type  1   force =     0.24528479   -0.16933773    0.02059157
     atom    5 type  1   force =     0.19857167    0.16466949   -0.01392580
     atom    6 type  2   force =     0.00345914   -0.04903611   -0.06598129
     atom    7 type  2   force =    -0.00818950    0.06735487    0.07657491
     atom    8 type  3   force =    -0.25280352    0.00832168    0.00418145
     atom    9 type  3   force =     0.20867157   -0.00797492    0.01087976
     atom   10 type  3   force =    -0.21213006    0.00597338   -0.20559090
     atom   11 type  3   force =    -0.21666729    0.00349209    0.19583786
     atom   12 type  3   force =    -0.20607566   -0.02339054   -0.17663499
     atom   13 type  3   force =    -0.20542677   -0.00770354    0.19753651
     atom   14 type  3   force =     0.21443547    0.00371008   -0.21222579
     atom   15 type  3   force =     0.21966069    0.00646842    0.19350725
     atom   16 type  3   force =     0.20329752   -0.01903684   -0.18388236
     atom   17 type  3   force =     0.25181312   -0.04135798    0.14648570
     atom   18 type  4   force =    -0.00548348    0.05737136   -0.06099777
     atom   19 type  4   force =     0.06124729    0.00928591    0.07432928
     atom   20 type  4   force =     0.05686154   -0.02076693   -0.06623866
     atom   21 type  4   force =    -0.05893198    0.01366143    0.07200907
     atom   22 type  4   force =    -0.06252515   -0.01165263   -0.05651683
     atom   23 type  5   force =    -0.03209049   -0.00501367   -0.01926263
     The ionic contribution  to forces
     atom    1 type  1   force =    -0.21745488   -4.76404274   14.02362496
     atom    2 type  1   force =   -39.71986225   -6.09720015    0.73432875
     atom    3 type  1   force =   -39.78834680    6.21080409   -0.79349243
     atom    4 type  1   force =    39.55302078   -6.05565307    0.68435475
     atom    5 type  1   force =    38.84770985    7.23019226   -1.35963136
     atom    6 type  2   force =    -0.13700843   -3.63469703  -14.00312974
     atom    7 type  2   force =    -0.96207578    3.57087553   14.16782085
     atom    8 type  3   force =   -52.23869631   -0.04411018   -0.15129318
     atom    9 type  3   force =    51.19505663   -1.21845005   -0.83816448
     atom   10 type  3   force =   -36.07204626   -2.07361989  -23.07567123
     atom   11 type  3   force =   -35.16852407   -0.82145221   22.11177363
     atom   12 type  3   force =   -35.27672935    0.82648866  -22.15806602
     atom   13 type  3   force =   -36.13375555    2.25208408   23.15011253
     atom   14 type  3   force =    35.99239302   -2.06700911  -23.11755782
     atom   15 type  3   force =    35.02957490   -0.79936134   22.19276836
     atom   16 type  3   force =    35.13734468    0.88545544  -22.28496691
     atom   17 type  3   force =    35.69793791    2.58050752   23.62268583
     atom   18 type  4   force =    -0.32543984    4.33537747  -14.15775925
     atom   19 type  4   force =   -35.92358266    0.91796948  -25.54815979
     atom   20 type  4   force =   -35.96225330   -1.02779386   25.58637165
     atom   21 type  4   force =    35.80379995    0.86418834  -25.66422334
     atom   22 type  4   force =    35.58892816   -1.32514422   26.03796710
     atom   23 type  5   force =     5.08000960    0.25459095    0.84030715
     The local contribution  to forces
     atom    1 type  1   force =     0.21203943    4.75094596  -14.05427452
     atom    2 type  1   force =    39.87294941    6.23911180   -0.75154592
     atom    3 type  1   force =    39.93183845   -6.34796566    0.81240747
     atom    4 type  1   force =   -39.69904953    6.22159372   -0.71464861
     atom    5 type  1   force =   -38.94914285   -7.39807032    1.36538163
     atom    6 type  2   force =     0.13203457    3.66674294   14.07469748
     atom    7 type  2   force =     0.95263054   -3.62810740  -14.27003254
     atom    8 type  3   force =    52.42126976    0.03763779    0.14155357
     atom    9 type  3   force =   -51.30976252    1.24261780    0.81090635
     atom   10 type  3   force =    36.28731264    2.03360446   23.24398010
     atom   11 type  3   force =    35.38638525    0.77800737  -22.27674221
     atom   12 type  3   force =    35.48978599   -0.76075804   22.30129936
     atom   13 type  3   force =    36.35761873   -2.20592260  -23.30458630
     atom   14 type  3   force =   -36.20682759    2.02681861   23.29371025
     atom   15 type  3   force =   -35.25884133    0.74686525  -22.34592084
     atom   16 type  3   force =   -35.34330109   -0.81969953   22.43735068
     atom   17 type  3   force =   -35.96636601   -2.48713005  -23.72229431
     atom   18 type  4   force =     0.33491590   -4.37257856   14.20938614
     atom   19 type  4   force =    35.74468517   -0.93520596   25.37368316
     atom   20 type  4   force =    35.78994301    1.05214232  -25.41636343
     atom   21 type  4   force =   -35.62575339   -0.88684170   25.49620662
     atom   22 type  4   force =   -35.40780193    1.33497113  -25.87764613
     atom   23 type  5   force =    -5.04134106   -0.25787155   -0.80662572
     The core correction contribution to forces
     atom    1 type  1   force =     0.00047445    0.00189813   -0.00047260
     atom    2 type  1   force =    -0.01139696   -0.00102026    0.00033813
     atom    3 type  1   force =    -0.01103749    0.00261795   -0.00054312
     atom    4 type  1   force =     0.01238977   -0.00266048    0.00152631
     atom    5 type  1   force =     0.00468896    0.00633660   -0.00345120
     atom    6 type  2   force =    -0.00022445    0.00240807    0.00280251
     atom    7 type  2   force =     0.00131448   -0.00352662   -0.00344675
     atom    8 type  3   force =    -0.03047385    0.00074292    0.00082833
     atom    9 type  3   force =     0.02226908   -0.00577976   -0.00124428
     atom   10 type  3   force =    -0.02283474    0.00911926   -0.01662692
     atom   11 type  3   force =    -0.02392671    0.00881210    0.01773525
     atom   12 type  3   force =    -0.02161316   -0.01010815   -0.01548513
     atom   13 type  3   force =    -0.02144283   -0.01004346    0.01554957
     atom   14 type  3   force =     0.02150410    0.00985474   -0.01645275
     atom   15 type  3   force =     0.02359326    0.00963030    0.01693602
     atom   16 type  3   force =     0.02196576   -0.00992692   -0.01601440
     atom   17 type  3   force =     0.02480276   -0.00972471    0.01224292
     atom   18 type  4   force =     0.00033382   -0.00312415    0.00294923
     atom   19 type  4   force =    -0.00976073    0.00001438   -0.00963726
     atom   20 type  4   force =    -0.00961688    0.00077416    0.00921928
     atom   21 type  4   force =     0.00959206   -0.00019193   -0.00947192
     atom   22 type  4   force =     0.01033262    0.00076319    0.00797072
     atom   23 type  5   force =     0.00000000    0.00000000    0.00000000
     The Hubbard contrib.    to forces
     atom    1 type  1   force =     0.00000000    0.00000000    0.00000000
     atom    2 type  1   force =     0.00000000    0.00000000    0.00000000
     atom    3 type  1   force =     0.00000000    0.00000000    0.00000000
     atom    4 type  1   force =     0.00000000    0.00000000    0.00000000
     atom    5 type  1   force =     0.00000000    0.00000000    0.00000000
     atom    6 type  2   force =     0.00000000    0.00000000    0.00000000
     atom    7 type  2   force =     0.00000000    0.00000000    0.00000000
     atom    8 type  3   force =     0.00000000    0.00000000    0.00000000
     atom    9 type  3   force =     0.00000000    0.00000000    0.00000000
     atom   10 type  3   force =     0.00000000    0.00000000    0.00000000
     atom   11 type  3   force =     0.00000000    0.00000000    0.00000000
     atom   12 type  3   force =     0.00000000    0.00000000    0.00000000
     atom   13 type  3   force =     0.00000000    0.00000000    0.00000000
     atom   14 type  3   force =     0.00000000    0.00000000    0.00000000
     atom   15 type  3   force =     0.00000000    0.00000000    0.00000000
     atom   16 type  3   force =     0.00000000    0.00000000    0.00000000
     atom   17 type  3   force =     0.00000000    0.00000000    0.00000000
     atom   18 type  4   force =     0.00000000    0.00000000    0.00000000
     atom   19 type  4   force =     0.00000000    0.00000000    0.00000000
     atom   20 type  4   force =     0.00000000    0.00000000    0.00000000
     atom   21 type  4   force =     0.00000000    0.00000000    0.00000000
     atom   22 type  4   force =     0.00000000    0.00000000    0.00000000
     atom   23 type  5   force =     0.00000000    0.00000000    0.00000000
     The SCF correction term to forces
     atom    1 type  1   force =     0.00174072   -0.00318801    0.00600688
     atom    2 type  1   force =    -0.00942715    0.00307712   -0.00014489
     atom    3 type  1   force =    -0.00888956   -0.00433236    0.00070431
     atom    4 type  1   force =     0.00997665    0.00105986    0.00373665
     atom    5 type  1   force =     0.00823238   -0.00093105    0.00188478
     atom    6 type  2   force =    -0.00419386   -0.00508765    0.00094687
     atom    7 type  2   force =    -0.00216655    0.00364555    0.00567623
     atom    8 type  3   force =    -0.00252241    0.00068630    0.00168565
     atom    9 type  3   force =    -0.00045220    0.00073630    0.00514792
     atom   10 type  3   force =    -0.00187294   -0.00512957   -0.00520475
     atom   11 type  3   force =     0.00030247   -0.00334559    0.00601290
     atom   12 type  3   force =    -0.00282226    0.00193874   -0.00458538
     atom   13 type  3   force =    -0.00243849    0.00120337    0.00430013
     atom   14 type  3   force =    -0.00029513   -0.00409629   -0.00604950
     atom   15 type  3   force =     0.00644572   -0.00261469    0.00514809
     atom   16 type  3   force =    -0.00086626    0.00281820   -0.00551826
     atom   17 type  3   force =     0.00334492    0.00732776    0.00483979
     atom   18 type  4   force =    -0.00515319    0.00532991   -0.00075603
     atom   19 type  4   force =    -0.00108492    0.00215320   -0.00642865
     atom   20 type  4   force =     0.00058929    0.00179185    0.00574229
     atom   21 type  4   force =    -0.00219342    0.00137234   -0.00880685
     atom   22 type  4   force =    -0.00045700   -0.00200855    0.00648523
     atom   23 type  5   force =     0.00043448    0.00074774    0.00047714

     Total force =     0.491281     Total SCF correction =     0.035408


     Computing stress (Cartesian axis) and pressure


     negative rho (up, down):  9.089E-01 9.089E-01
          total   stress  (Ry/bohr**3)                   (kbar)     P=       83.82
   0.00064055   0.00000114   0.00000765           94.23        0.17        1.13
   0.00000114   0.00067123  -0.00000305            0.17       98.74       -0.45
   0.00000765  -0.00000305   0.00039768            1.13       -0.45       58.50


     Molecular Dynamics Calculation

     Starting temperature  =   300.00 K

     temperature is set once at start

     mass Hf               =   178.49
     mass Nb               =    92.91
     mass Ta               =   180.95
     mass Zr               =    91.22
     mass H                =     2.01
     Time step             =     4.20 a.u.,  0.2032 femto-seconds

     Entering Dynamics:    iteration =     1
                           time      =   0.0002 pico-seconds


ATOMIC_POSITIONS (angstrom)
Hf            2.6700444080        2.8271890468        6.6040027916
Hf            1.2530317344        1.2863504091        5.0585046460
Hf            1.2555281168        7.3898713170        5.0881063851
Hf            4.0870571621        1.2863507019        5.0585045950
Hf            4.0845606120        7.3898710218        5.0881059842
Nb            2.6700440656        2.7969961853        3.5156222339
Nb            2.6700433737        5.8764459047        6.6350351557
Ta            1.2094145737        4.3409946083        5.0711642423
Ta            4.1306745737        4.3409948311        5.0711639754
Ta            1.3072965127        1.3141884028        2.0588159333
Ta            1.3028321185        1.3084568240        8.0946192442
Ta            1.3040535672        7.3758937551        2.0462741627
Ta            1.3077550834        7.3651504505        8.0860424974
Ta            4.0327922692        1.3141883839        2.0588159486
Ta            4.0372566171        1.3084566959        8.0946194656
Ta            4.0360352528        7.3758939090        2.0462741752
Ta            4.0323338810        7.3651510166        8.0860425270
Zr            2.6700443461        5.8663537634        3.5274220304
Zr            1.2438718415        4.3221443038        2.0000319793
Zr            1.2404228608        4.3541902935        8.1498007171
Zr            4.0962168323        4.3221441899        2.0000320875
Zr            4.0996661488        4.3541897760        8.1498006907
H             5.0568558876        5.7292980430        5.8743395802


     kinetic energy (Ekin) =           4.04912263 Ry
     temperature           =       19372.90602187 K 
     Ekin + Etot (const)   =       -2939.03586430 Ry
     Ions kinetic stress =           71.51 (kbar)
                                     53.63          80.45          46.45
                                     80.45         120.68          69.67
                                     46.45          69.67          40.23



     Linear momentum :   -0.0000000000    0.0000000000    0.0000000000

     File outdir/pwscf.msd.dat deleted, as requested

     Writing config-only to output data dir outdir/pwscf.save/
     NEW-OLD atomic charge density approx. for the potential

     Check: negative core charge=   -0.000002

     negative rho (up, down):  9.089E-01 9.089E-01
     Generating pointlists ...
     new r_m :   0.0818 (alat units)  1.4437 (a.u.) for type    3
     new r_m :   0.0818 (alat units)  1.4437 (a.u.) for type    5

     total cpu time spent up to now is      418.8 secs

     Self-consistent Calculation

     iteration #  1     ecut=   120.00 Ry     beta= 0.70
     Davidson diagonalization with overlap
     ethr =  1.00E-06,  avg # of iterations = 13.5

     negative rho (up, down):  9.090E-01 9.090E-01

     total cpu time spent up to now is      449.9 secs

     total energy              =   -2943.07827985 Ry
     estimated scf accuracy    <       0.01892391 Ry

     total magnetization       =     0.01 Bohr mag/cell
     absolute magnetization    =     0.02 Bohr mag/cell

     iteration #  2     ecut=   120.00 Ry     beta= 0.70
     Davidson diagonalization with overlap
     ethr =  6.83E-06,  avg # of iterations =  2.0

     negative rho (up, down):  9.089E-01 9.089E-01

     total cpu time spent up to now is      468.2 secs

     total energy              =   -2943.07962696 Ry
     estimated scf accuracy    <       0.00909965 Ry

     total magnetization       =     0.01 Bohr mag/cell
     absolute magnetization    =     0.02 Bohr mag/cell

     iteration #  3     ecut=   120.00 Ry     beta= 0.70
     Davidson diagonalization with overlap
     ethr =  3.29E-06,  avg # of iterations =  1.0

     negative rho (up, down):  9.090E-01 9.090E-01

     Magnetic moment per site  (integrated on atomic sphere of radius R)
     atom   1 (R=0.091)  charge=  7.7975    0.0000
     atom   2 (R=0.091)  charge=  7.6293    0.0001
     atom   3 (R=0.091)  charge=  7.6299   -0.0000
     atom   4 (R=0.091)  charge=  7.6313    0.0000
     atom   5 (R=0.091)  charge=  7.6342    0.0001
     atom   6 (R=0.110)  charge= 10.3482    0.0001
     atom   7 (R=0.110)  charge= 10.3566    0.0001
     atom   8 (R=0.082)  charge=  7.4365    0.0000
     atom   9 (R=0.082)  charge=  7.4405    0.0001
     atom  10 (R=0.082)  charge=  7.4159    0.0004
     atom  11 (R=0.082)  charge=  7.4194    0.0005
     atom  12 (R=0.082)  charge=  7.4161    0.0004
     atom  13 (R=0.082)  charge=  7.4184    0.0000
     atom  14 (R=0.082)  charge=  7.4168   -0.0001
     atom  15 (R=0.082)  charge=  7.4169    0.0001
     atom  16 (R=0.082)  charge=  7.4157    0.0002
     atom  17 (R=0.082)  charge=  7.4252   -0.0001
     atom  18 (R=0.111)  charge=  9.4533    0.0000
     atom  19 (R=0.111)  charge=  8.9950    0.0000
     atom  20 (R=0.111)  charge=  8.9939    0.0003
     atom  21 (R=0.111)  charge=  8.9950   -0.0004
     atom  22 (R=0.111)  charge=  8.9996   -0.0003
     atom  23 (R=0.082)  charge=  1.0301   -0.0000

     total cpu time spent up to now is      483.7 secs

     End of self-consistent calculation

 ------ SPIN UP ------------


          k = 0.0000 0.0000 0.0000 ( 61588 PWs)   bands (ev):

   -60.7726 -60.7420 -60.7278 -60.6992 -60.6746 -60.6646 -60.6270 -60.6202
   -60.5487 -60.3591 -54.3460 -54.2682 -54.2201 -54.1437 -52.6924 -46.3298
   -46.2488 -41.6519 -41.6133 -41.5506 -41.5115 -39.7918 -27.7720 -27.7411
   -27.6829 -27.6569 -27.5885 -27.5529 -27.4411 -27.4268 -27.3880 -27.3214
   -27.2893 -27.2571 -27.2356 -27.2227 -27.1972 -27.1626 -27.1358 -27.1325
   -27.1090 -27.0157 -26.9920 -26.9578 -26.9503 -26.9328 -26.9190 -26.8982
   -26.8731 -26.8452 -26.8287 -26.8192 -24.1357 -23.9149 -23.6344 -23.5226
   -23.2775 -23.1654 -23.1262 -23.0373 -22.8949 -22.8102 -22.7943 -22.5625
   -22.5378 -22.4553 -22.4011 -22.3751 -22.2602 -22.2211 -21.7481 -21.6840
   -21.6177 -20.1767 -19.9480 -19.8167 -19.8081 -19.6633 -19.6057 -19.5909
   -19.5793 -19.5586 -19.5282 -19.3632 -19.3461 -18.1362 -17.9312 -17.8055
     0.9539   2.0582   2.9533   3.1509   3.3584   3.3920   3.5194   3.6464
     3.6979   3.8264   3.9255   4.0723   4.1692   4.5222   4.6507   4.7146
     4.7586   4.8714   5.0562   5.1303   5.2359   5.2815   5.3032   5.3831
     5.4131   5.5521   5.5893   5.7238   5.7462   5.7711   5.7802   5.8547
     5.9927   6.0811   6.1896   6.2313   6.2903   6.3333   6.3700   6.4232
     6.4482   6.6034   6.6719   6.7214   6.9230   6.9948   7.0333   7.1213
     7.1250   7.1744   7.2828   7.3176   7.3515   7.4764   7.5670   7.5825
     7.6334   7.8400   7.9032   7.9128   8.0767   8.1058   8.1288   8.2027
     8.2584   8.2920   8.3659   8.3877   8.4653   8.5645   8.6497   8.6980
     8.8631   8.9215   8.9875   9.0870   9.1301   9.2685   9.2879

 ------ SPIN DOWN ----------


          k = 0.0000 0.0000 0.0000 ( 61588 PWs)   bands (ev):

   -60.7727 -60.7418 -60.7278 -60.6988 -60.6744 -60.6645 -60.6266 -60.6199
   -60.5485 -60.3589 -54.3459 -54.2681 -54.2201 -54.1436 -52.6923 -46.3297
   -46.2486 -41.6521 -41.6136 -41.5505 -41.5117 -39.7917 -27.7718 -27.7407
   -27.6827 -27.6564 -27.5885 -27.5526 -27.4408 -27.4264 -27.3879 -27.3215
   -27.2891 -27.2571 -27.2352 -27.2225 -27.1971 -27.1623 -27.1355 -27.1322
   -27.1087 -27.0154 -26.9917 -26.9577 -26.9502 -26.9326 -26.9186 -26.8978
   -26.8727 -26.8447 -26.8285 -26.8189 -24.1356 -23.9148 -23.6342 -23.5225
   -23.2774 -23.1653 -23.1261 -23.0371 -22.8948 -22.8101 -22.7942 -22.5624
   -22.5377 -22.4552 -22.4010 -22.3749 -22.2600 -22.2209 -21.7480 -21.6839
   -21.6176 -20.1770 -19.9482 -19.8171 -19.8083 -19.6636 -19.6060 -19.5908
   -19.5795 -19.5587 -19.5281 -19.3632 -19.3465 -18.1361 -17.9311 -17.8054
     0.9541   2.0585   2.9538   3.1511   3.3588   3.3922   3.5197   3.6466
     3.6980   3.8267   3.9260   4.0724   4.1695   4.5224   4.6509   4.7149
     4.7589   4.8718   5.0565   5.1304   5.2362   5.2817   5.3033   5.3835
     5.4135   5.5523   5.5895   5.7241   5.7463   5.7712   5.7804   5.8548
     5.9928   6.0813   6.1899   6.2315   6.2905   6.3337   6.3701   6.4232
     6.4486   6.6036   6.6721   6.7217   6.9233   6.9949   7.0343   7.1226
     7.1260   7.1745   7.2842   7.3179   7.3520   7.4772   7.5668   7.5833
     7.6340   7.8402   7.9035   7.9130   8.0770   8.1065   8.1290   8.2036
     8.2591   8.2922   8.3671   8.3880   8.4659   8.5646   8.6498   8.6983
     8.8633   8.9226   8.9877   9.0871   9.1304   9.2689   9.2889

     the Fermi energy is     7.2703 ev

!    total energy              =   -2943.07968853 Ry
     estimated scf accuracy    <       0.00076628 Ry
     smearing contrib. (-TS)   =      -0.10270569 Ry
     internal energy E=F+TS    =   -2942.97698284 Ry

     total magnetization       =     0.01 Bohr mag/cell
     absolute magnetization    =     0.02 Bohr mag/cell

     convergence has been achieved in   3 iterations

     negative rho (up, down):  9.090E-01 9.090E-01

     Forces acting on atoms (cartesian axes, Ry/au):

     atom    1 type  1   force =    -0.00058666   -0.02651760    0.01132722
     atom    2 type  1   force =    -0.12341469   -0.01412351    0.00357882
     atom    3 type  1   force =    -0.11772252    0.01119343    0.00992511
     atom    4 type  1   force =     0.12942641   -0.00775861    0.00411683
     atom    5 type  1   force =     0.11499047   -0.00211885   -0.00102326
     atom    6 type  2   force =    -0.00719641   -0.02117243    0.00615764
     atom    7 type  2   force =    -0.01960849    0.00918125   -0.02323310
     atom    8 type  3   force =    -0.10605253    0.00420050   -0.00034756
     atom    9 type  3   force =     0.10630194   -0.00441137   -0.02268085
     atom   10 type  3   force =    -0.02379242   -0.02844235   -0.06325129
     atom   11 type  3   force =    -0.02330497   -0.03434613    0.05441641
     atom   12 type  3   force =    -0.01975102    0.03283775   -0.05755351
     atom   13 type  3   force =    -0.00418163    0.03105907    0.06325395
     atom   14 type  3   force =     0.02279793   -0.03004294   -0.06372046
     atom   15 type  3   force =     0.01995493   -0.04041796    0.06188442
     atom   16 type  3   force =     0.02099825    0.03861465   -0.05754051
     atom   17 type  3   force =     0.00937282    0.05133824    0.06496345
     atom   18 type  4   force =    -0.00219896    0.02376098   -0.00934861
     atom   19 type  4   force =    -0.12831541   -0.00552018   -0.11983012
     atom   20 type  4   force =    -0.12413196    0.00574844    0.11800864
     atom   21 type  4   force =     0.12489577   -0.00742841   -0.12003608
     atom   22 type  4   force =     0.12713842   -0.00259366    0.11881892
     atom   23 type  5   force =     0.02438070    0.01695969    0.02211391
     The non-local contrib.  to forces
     atom    1 type  1   force =     0.00294087   -0.01064384    0.03254871
     atom    2 type  1   force =    -0.25297726   -0.15769977    0.01822754
     atom    3 type  1   force =    -0.23992762    0.14935593   -0.01201788
     atom    4 type  1   force =     0.24906171   -0.17173558    0.02493437
     atom    5 type  1   force =     0.20765080    0.15787216   -0.00892533
     atom    6 type  2   force =     0.00370474   -0.04903087   -0.06745602
     atom    7 type  2   force =    -0.00299163    0.07063611    0.07990927
     atom    8 type  3   force =    -0.25359034    0.00788078    0.00656464
     atom    9 type  3   force =     0.19280136   -0.02012909    0.00352890
     atom   10 type  3   force =    -0.21312391    0.00482314   -0.21003590
     atom   11 type  3   force =    -0.21589983    0.00386750    0.19607259
     atom   12 type  3   force =    -0.20515635   -0.02407919   -0.17927657
     atom   13 type  3   force =    -0.20179203   -0.00759760    0.19934375
     atom   14 type  3   force =     0.21401228    0.00333521   -0.21509820
     atom   15 type  3   force =     0.21665396    0.00419172    0.19461457
     atom   16 type  3   force =     0.20254037   -0.01929159   -0.18593763
     atom   17 type  3   force =     0.24412446   -0.03526288    0.15496150
     atom   18 type  4   force =    -0.00737974    0.05955696   -0.05870086
     atom   19 type  4   force =     0.06155424    0.00960563    0.07241517
     atom   20 type  4   force =     0.05740449   -0.02099651   -0.06569234
     atom   21 type  4   force =    -0.05989852    0.01428569    0.06769452
     atom   22 type  4   force =    -0.06071406   -0.01137534   -0.05386418
     atom   23 type  5   force =    -0.03514844   -0.01420206   -0.02361110
     The ionic contribution  to forces
     atom    1 type  1   force =    -0.23383242   -4.78719896   14.03713750
     atom    2 type  1   force =   -39.72536691   -6.10497443    0.73690840
     atom    3 type  1   force =   -39.79899326    6.21919517   -0.78859570
     atom    4 type  1   force =    39.55894741   -6.08432634    0.69031168
     atom    5 type  1   force =    38.92843661    7.26391854   -1.29018365
     atom    6 type  2   force =    -0.14884745   -3.65087045  -14.01481128
     atom    7 type  2   force =    -0.99593381    3.61868330   14.21359054
     atom    8 type  3   force =   -52.26507414   -0.04554713   -0.15049680
     atom    9 type  3   force =    51.04225773   -1.44999279   -0.96979238
     atom   10 type  3   force =   -36.07509830   -2.07718686  -23.07872073
     atom   11 type  3   force =   -35.17155535   -0.82800703   22.11310904
     atom   12 type  3   force =   -35.28125481    0.82971276  -22.16211977
     atom   13 type  3   force =   -36.13636133    2.25520556   23.15064642
     atom   14 type  3   force =    35.99413213   -2.07436571  -23.12269372
     atom   15 type  3   force =    35.03613996   -0.81891139   22.19359847
     atom   16 type  3   force =    35.14105384    0.89409365  -22.29319988
     atom   17 type  3   force =    35.74374165    2.56871400   23.58525537
     atom   18 type  4   force =    -0.34971968    4.35234388  -14.18172061
     atom   19 type  4   force =   -35.92979642    0.91815261  -25.55468561
     atom   20 type  4   force =   -35.97186991   -1.02521952   25.59266670
     atom   21 type  4   force =    35.80314903    0.86228649  -25.68592369
     atom   22 type  4   force =    35.59903444   -1.31144765   26.07426454
     atom   23 type  5   force =     5.23681100    0.47574232    0.90545518
     The local contribution  to forces
     atom    1 type  1   force =     0.22524904    4.76001796  -14.03302452
     atom    2 type  1   force =    39.85676675    6.25098783   -0.73003981
     atom    3 type  1   force =    39.92647431   -6.36125566    0.83324141
     atom    4 type  1   force =   -39.68235037    6.24509629   -0.68627611
     atom    5 type  1   force =   -39.02993473   -7.42552172    1.32168729
     atom    6 type  2   force =     0.12996479    3.67344902   14.09045934
     atom    7 type  2   force =     0.97976332   -3.66671532  -14.28864915
     atom    8 type  3   force =    52.43351521    0.04167415    0.16709414
     atom    9 type  3   force =   -51.12726013    1.49883118    0.98640859
     atom   10 type  3   force =    36.27531841    2.04227192   23.23110249
     atom   11 type  3   force =    35.38681472    0.77719110  -22.26869729
     atom   12 type  3   force =    35.47436637   -0.76787877   22.28743521
     atom   13 type  3   force =    36.35477138   -2.19989535  -23.29961461
     atom   14 type  3   force =   -36.19697889    2.03768593   23.27490085
     atom   15 type  3   force =   -35.25140479    0.75593786  -22.34019472
     atom   16 type  3   force =   -35.33119420   -0.83253080   22.42364993
     atom   17 type  3   force =   -35.99942031   -2.46386980  -23.68520053
     atom   18 type  4   force =     0.35153616   -4.38443081   14.23828843
     atom   19 type  4   force =    35.74586033   -0.93417456   25.36067216
     atom   20 type  4   force =    35.80054928    1.04955565  -25.41592176
     atom   21 type  4   force =   -35.62670724   -0.88364588   25.48836927
     atom   22 type  4   force =   -35.42031288    1.32067683  -25.90522147
     atom   23 type  5   force =    -5.17870649   -0.44731509   -0.85736117
     The core correction contribution to forces
     atom    1 type  1   force =     0.00050474    0.00178116   -0.00073895
     atom    2 type  1   force =    -0.01135486   -0.00093782    0.00034293
     atom    3 type  1   force =    -0.01131079    0.00279199   -0.00070747
     atom    4 type  1   force =     0.01267739   -0.00290871    0.00142732
     atom    5 type  1   force =     0.00477214    0.00616749   -0.00333260
     atom    6 type  2   force =    -0.00019669    0.00243777    0.00296247
     atom    7 type  2   force =     0.00100975   -0.00367642   -0.00358267
     atom    8 type  3   force =    -0.03024396    0.00070216    0.00073902
     atom    9 type  3   force =     0.01989186   -0.00722339   -0.00262387
     atom   10 type  3   force =    -0.02273881    0.00899684   -0.01674055
     atom   11 type  3   force =    -0.02420757    0.00892725    0.01771700
     atom   12 type  3   force =    -0.02152107   -0.01009039   -0.01545026
     atom   13 type  3   force =    -0.02112892   -0.01019112    0.01566520
     atom   14 type  3   force =     0.02153559    0.00951428   -0.01664854
     atom   15 type  3   force =     0.02317835    0.00966517    0.01697840
     atom   16 type  3   force =     0.02192205   -0.00994448   -0.01596973
     atom   17 type  3   force =     0.02445432   -0.00974074    0.01255474
     atom   18 type  4   force =     0.00038611   -0.00315594    0.00284208
     atom   19 type  4   force =    -0.00976082    0.00002070   -0.00966670
     atom   20 type  4   force =    -0.00963199    0.00079367    0.00927458
     atom   21 type  4   force =     0.00958365   -0.00019596   -0.00943163
     atom   22 type  4   force =     0.01017871    0.00072691    0.00797092
     atom   23 type  5   force =     0.00000000    0.00000000    0.00000000
     The Hubbard contrib.    to forces
     atom    1 type  1   force =     0.00000000    0.00000000    0.00000000
     atom    2 type  1   force =     0.00000000    0.00000000    0.00000000
     atom    3 type  1   force =     0.00000000    0.00000000    0.00000000
     atom    4 type  1   force =     0.00000000    0.00000000    0.00000000
     atom    5 type  1   force =     0.00000000    0.00000000    0.00000000
     atom    6 type  2   force =     0.00000000    0.00000000    0.00000000
     atom    7 type  2   force =     0.00000000    0.00000000    0.00000000
     atom    8 type  3   force =     0.00000000    0.00000000    0.00000000
     atom    9 type  3   force =     0.00000000    0.00000000    0.00000000
     atom   10 type  3   force =     0.00000000    0.00000000    0.00000000
     atom   11 type  3   force =     0.00000000    0.00000000    0.00000000
     atom   12 type  3   force =     0.00000000    0.00000000    0.00000000
     atom   13 type  3   force =     0.00000000    0.00000000    0.00000000
     atom   14 type  3   force =     0.00000000    0.00000000    0.00000000
     atom   15 type  3   force =     0.00000000    0.00000000    0.00000000
     atom   16 type  3   force =     0.00000000    0.00000000    0.00000000
     atom   17 type  3   force =     0.00000000    0.00000000    0.00000000
     atom   18 type  4   force =     0.00000000    0.00000000    0.00000000
     atom   19 type  4   force =     0.00000000    0.00000000    0.00000000
     atom   20 type  4   force =     0.00000000    0.00000000    0.00000000
     atom   21 type  4   force =     0.00000000    0.00000000    0.00000000
     atom   22 type  4   force =     0.00000000    0.00000000    0.00000000
     atom   23 type  5   force =     0.00000000    0.00000000    0.00000000
     The SCF correction term to forces
     atom    1 type  1   force =     0.00447428    0.00951052   -0.02310711
     atom    2 type  1   force =     0.00944075   -0.00151487   -0.02037183
     atom    3 type  1   force =     0.00595801    0.00109045   -0.02050685
     atom    4 type  1   force =    -0.00898656    0.00610018   -0.02479201
     atom    5 type  1   force =     0.00398881   -0.00457086   -0.01878056
     atom    6 type  2   force =     0.00810136    0.00282654   -0.00350847
     atom    7 type  2   force =    -0.00153296   -0.00976197   -0.02301267
     atom    8 type  3   force =     0.00926387   -0.00052501   -0.02276015
     atom    9 type  3   force =    -0.02146571   -0.02591284   -0.03871368
     atom   10 type  3   force =     0.01177335   -0.00736296    0.01263181
     atom   11 type  3   force =     0.00146622    0.00365949   -0.00229653
     atom   12 type  3   force =     0.01373801    0.00515778    0.01334629
     atom   13 type  3   force =     0.00025243   -0.00647798   -0.00129839
     atom   14 type  3   force =    -0.00998002   -0.00622820    0.01730756
     atom   15 type  3   force =    -0.00468939    0.00868314   -0.00162388
     atom   16 type  3   force =    -0.01340066    0.00627232    0.01540520
     atom   17 type  3   force =    -0.00360413   -0.00851791   -0.00111922
     atom   18 type  4   force =     0.00290134   -0.00056866   -0.00856924
     atom   19 type  4   force =     0.00375041    0.00085988    0.01292327
     atom   20 type  4   force =    -0.00066066    0.00159959   -0.00083012
     atom   21 type  4   force =    -0.00130799   -0.00017431    0.02074387
     atom   22 type  4   force =    -0.00112463   -0.00118996   -0.00284248
     atom   23 type  5   force =     0.00134779    0.00271896   -0.00088059

     Total force =     0.501015     Total SCF correction =     0.096386
     SCF correction compared to forces is large: reduce conv_thr to get better values


     Computing stress (Cartesian axis) and pressure


     negative rho (up, down):  9.090E-01 9.090E-01
          total   stress  (Ry/bohr**3)                   (kbar)     P=       84.00
   0.00063318   0.00000664   0.00000738           93.14        0.98        1.09
   0.00000664   0.00068485   0.00000254            0.98      100.74        0.37
   0.00000738   0.00000254   0.00039510            1.09        0.37       58.12


     Entering Dynamics:    iteration =     2
                           time      =   0.0004 pico-seconds


ATOMIC_POSITIONS (angstrom)
Hf            2.6700888253        2.8272535428        6.6040420146
Hf            1.2530657072        1.2864158264        5.0585432713
Hf            1.2555625801        7.3899389814        5.0881455722
Hf            4.0871125168        1.2864167773        5.0585432001
Hf            4.0846148066        7.3899376271        5.0881441422
Nb            2.6700873810        2.7970594310        3.5156619300
Nb            2.6700846288        5.8765141453        6.6350698071
Ta            1.2094500889        4.3410616028        5.0712026327
Ta            4.1307283061        4.3410615608        5.0712008348
Ta            1.3073389946        1.3142526065        2.0588491766
Ta            1.3028746037        1.3085205679        8.0946623660
Ta            1.3040963944        7.3759632446        2.0463078881
Ta            1.3077991316        7.3652197106        8.0860863541
Ta            4.0328385988        1.3142524780        2.0588491805
Ta            4.0373027639        1.3085199681        8.0946632314
Ta            4.0360814022        7.3759638795        2.0463079138
Ta            4.0323791769        7.3652219906        8.0860865102
Zr            2.6700884883        5.8664243510        3.5274590808
Zr            1.2438946581        4.3222100233        2.0000505054
Zr            1.2404463727        4.3542579479        8.1498591337
Zr            4.0962823915        4.3222095813        2.0000506986
Zr            4.0997320700        4.3542559763        8.1498591718
H             4.9832088985        5.6186823797        5.8105864160


     kinetic energy (Ekin) =           4.04372827 Ry
     temperature           =       19347.09691265 K 
     Ekin + Etot (const)   =       -2939.03596026 Ry
     Ions kinetic stress =           71.42 (kbar)
                                     53.52          80.35          46.33
                                     80.35         120.62          69.56
                                     46.33          69.56          40.11



     Linear momentum :   -0.0000000000    0.0000000000    0.0000000000

     Writing config-only to output data dir outdir/pwscf.save/
     NEW-OLD atomic charge density approx. for the potential

     Check: negative core charge=   -0.000002

     negative rho (up, down):  9.089E-01 9.089E-01
     Generating pointlists ...
     new r_m :   0.0753 (alat units)  1.3288 (a.u.) for type    3
     new r_m :   0.0753 (alat units)  1.3288 (a.u.) for type    5

     total cpu time spent up to now is      540.7 secs

     Self-consistent Calculation

     iteration #  1     ecut=   120.00 Ry     beta= 0.70
     Davidson diagonalization with overlap
     c_bands:  1 eigenvalues not converged
     c_bands:  1 eigenvalues not converged
     ethr =  1.00E-06,  avg # of iterations = 20.0

     negative rho (up, down):  9.092E-01 9.092E-01

     total cpu time spent up to now is      593.1 secs

     total energy              =   -2943.04065461 Ry
     estimated scf accuracy    <       0.21539608 Ry

     total magnetization       =     0.01 Bohr mag/cell
     absolute magnetization    =     0.02 Bohr mag/cell

     iteration #  2     ecut=   120.00 Ry     beta= 0.70
     Davidson diagonalization with overlap
     ethr =  7.78E-05,  avg # of iterations =  2.0

     negative rho (up, down):  9.091E-01 9.091E-01

     total cpu time spent up to now is      610.6 secs

     total energy              =   -2943.05426547 Ry
     estimated scf accuracy    <       0.14945930 Ry

     total magnetization       =     0.01 Bohr mag/cell
     absolute magnetization    =     0.02 Bohr mag/cell

     iteration #  3     ecut=   120.00 Ry     beta= 0.70
     Davidson diagonalization with overlap
     ethr =  5.40E-05,  avg # of iterations =  1.0

     negative rho (up, down):  9.090E-01 9.090E-01

     total cpu time spent up to now is      626.5 secs

     total energy              =   -2943.06214315 Ry
     estimated scf accuracy    <       0.00345556 Ry

     total magnetization       =     0.01 Bohr mag/cell
     absolute magnetization    =     0.02 Bohr mag/cell

     iteration #  4     ecut=   120.00 Ry     beta= 0.70
     Davidson diagonalization with overlap
     ethr =  1.25E-06,  avg # of iterations = 14.5

     negative rho (up, down):  9.089E-01 9.089E-01

     total cpu time spent up to now is      646.9 secs

     total energy              =   -2943.06228751 Ry
     estimated scf accuracy    <       0.00153053 Ry

     total magnetization       =     0.01 Bohr mag/cell
     absolute magnetization    =     0.01 Bohr mag/cell

     iteration #  5     ecut=   120.00 Ry     beta= 0.70
     Davidson diagonalization with overlap
     ethr =  5.53E-07,  avg # of iterations =  1.0

     negative rho (up, down):  9.089E-01 9.089E-01

     Magnetic moment per site  (integrated on atomic sphere of radius R)
     atom   1 (R=0.091)  charge=  7.7972   -0.0000
     atom   2 (R=0.091)  charge=  7.6298    0.0000
     atom   3 (R=0.091)  charge=  7.6302    0.0000
     atom   4 (R=0.091)  charge=  7.6309    0.0000
     atom   5 (R=0.091)  charge=  7.6327    0.0000
     atom   6 (R=0.110)  charge= 10.3489    0.0000
     atom   7 (R=0.110)  charge= 10.3540    0.0000
     atom   8 (R=0.075)  charge=  6.6167   -0.0000
     atom   9 (R=0.075)  charge=  6.6314    0.0000
     atom  10 (R=0.075)  charge=  6.6019    0.0002
     atom  11 (R=0.075)  charge=  6.6002    0.0003
     atom  12 (R=0.075)  charge=  6.6017    0.0003
     atom  13 (R=0.075)  charge=  6.6006    0.0001
     atom  14 (R=0.075)  charge=  6.6013   -0.0000
     atom  15 (R=0.075)  charge=  6.5982    0.0001
     atom  16 (R=0.075)  charge=  6.6011    0.0001
     atom  17 (R=0.075)  charge=  6.6015   -0.0000
     atom  18 (R=0.111)  charge=  9.4531    0.0000
     atom  19 (R=0.111)  charge=  8.9974    0.0002
     atom  20 (R=0.111)  charge=  8.9919    0.0003
     atom  21 (R=0.111)  charge=  8.9954   -0.0002
     atom  22 (R=0.111)  charge=  8.9969   -0.0001
     atom  23 (R=0.075)  charge=  0.9675    0.0000

     total cpu time spent up to now is      662.5 secs

     End of self-consistent calculation

 ------ SPIN UP ------------


          k = 0.0000 0.0000 0.0000 ( 61588 PWs)   bands (ev):

   -60.7715 -60.7640 -60.7204 -60.7197 -60.6867 -60.6719 -60.6429 -60.6293
   -60.5578 -60.3104 -54.3531 -54.2782 -54.2272 -54.1531 -52.6969 -46.3287
   -46.2529 -41.6524 -41.6198 -41.5537 -41.5193 -39.7938 -27.7707 -27.7614
   -27.6817 -27.6781 -27.5847 -27.5711 -27.4517 -27.4391 -27.3872 -27.3218
   -27.3030 -27.2563 -27.2503 -27.2291 -27.2082 -27.1741 -27.1531 -27.1361
   -27.1167 -26.9989 -26.9695 -26.9483 -26.9407 -26.9337 -26.9293 -26.9154
   -26.8748 -26.8664 -26.8407 -26.8290 -24.1415 -23.9214 -23.6402 -23.5334
   -23.2832 -23.1695 -23.1363 -23.0397 -22.9010 -22.8224 -22.8040 -22.5748
   -22.5397 -22.4620 -22.4044 -22.3796 -22.2647 -22.2239 -21.7524 -21.6886
   -21.6224 -20.1848 -19.9486 -19.8216 -19.8188 -19.6616 -19.6078 -19.5954
   -19.5841 -19.5679 -19.5329 -19.3656 -19.3546 -18.1397 -17.9351 -17.8094
     0.8647   2.0094   2.9433   3.1423   3.3472   3.4043   3.5106   3.6416
     3.6908   3.8207   3.9172   4.0681   4.1726   4.5077   4.6470   4.7080
     4.7554   4.8654   5.0483   5.1216   5.2259   5.2756   5.2978   5.3691
     5.4008   5.5464   5.5814   5.7157   5.7420   5.7628   5.7741   5.8555
     5.9938   6.0747   6.1837   6.2255   6.2840   6.3360   6.3649   6.4101
     6.4388   6.6006   6.6642   6.7142   6.9129   6.9919   7.0249   7.1152
     7.1230   7.1674   7.2750   7.3006   7.3422   7.4711   7.5620   7.5643
     7.6264   7.8221   7.9032   7.9087   8.0693   8.0990   8.1223   8.1914
     8.2522   8.2888   8.3605   8.3816   8.4693   8.5579   8.6407   8.6878
     8.8568   8.9190   8.9714   9.0822   9.1118   9.2713   9.2822

 ------ SPIN DOWN ----------


          k = 0.0000 0.0000 0.0000 ( 61588 PWs)   bands (ev):

   -60.7714 -60.7638 -60.7201 -60.7197 -60.6866 -60.6717 -60.6426 -60.6290
   -60.5578 -60.3103 -54.3531 -54.2782 -54.2272 -54.1531 -52.6969 -46.3287
   -46.2529 -41.6524 -41.6198 -41.5535 -41.5193 -39.7938 -27.7705 -27.7610
   -27.6815 -27.6777 -27.5846 -27.5708 -27.4514 -27.4388 -27.3872 -27.3217
   -27.3029 -27.2560 -27.2503 -27.2290 -27.2080 -27.1739 -27.1528 -27.1359
   -27.1166 -26.9987 -26.9694 -26.9482 -26.9404 -26.9335 -26.9292 -26.9152
   -26.8745 -26.8660 -26.8404 -26.8287 -24.1415 -23.9214 -23.6402 -23.5334
   -23.2831 -23.1695 -23.1363 -23.0397 -22.9010 -22.8224 -22.8040 -22.5748
   -22.5397 -22.4620 -22.4044 -22.3796 -22.2646 -22.2239 -21.7524 -21.6886
   -21.6224 -20.1847 -19.9485 -19.8216 -19.8188 -19.6617 -19.6078 -19.5951
   -19.5840 -19.5678 -19.5327 -19.3655 -19.3546 -18.1396 -17.9351 -17.8094
     0.8648   2.0096   2.9437   3.1424   3.3474   3.4045   3.5108   3.6416
     3.6909   3.8208   3.9176   4.0683   4.1728   4.5078   4.6471   4.7082
     4.7557   4.8657   5.0484   5.1218   5.2261   5.2757   5.2979   5.3695
     5.4011   5.5465   5.5816   5.7159   5.7421   5.7629   5.7742   5.8556
     5.9939   6.0749   6.1840   6.2256   6.2841   6.3363   6.3650   6.4102
     6.4392   6.6007   6.6644   6.7145   6.9132   6.9922   7.0257   7.1162
     7.1238   7.1675   7.2759   7.3008   7.3426   7.4720   7.5620   7.5651
     7.6269   7.8222   7.9034   7.9089   8.0697   8.0996   8.1225   8.1921
     8.2528   8.2890   8.3614   8.3819   8.4697   8.5581   8.6409   8.6880
     8.8570   8.9199   8.9720   9.0823   9.1124   9.2715   9.2823

     the Fermi energy is     7.2620 ev

!    total energy              =   -2943.06216042 Ry
     estimated scf accuracy    <       0.00024601 Ry
     smearing contrib. (-TS)   =      -0.10333493 Ry
     internal energy E=F+TS    =   -2942.95882548 Ry

     total magnetization       =     0.01 Bohr mag/cell
     absolute magnetization    =     0.01 Bohr mag/cell

     convergence has been achieved in   5 iterations

     negative rho (up, down):  9.089E-01 9.089E-01

     Forces acting on atoms (cartesian axes, Ry/au):

     atom    1 type  1   force =     0.00112756   -0.02332143    0.00202440
     atom    2 type  1   force =    -0.11856689   -0.01416628   -0.00592457
     atom    3 type  1   force =    -0.11449375    0.01178658   -0.00022534
     atom    4 type  1   force =     0.12694994   -0.00585312   -0.00693112
     atom    5 type  1   force =     0.11360629   -0.00721009   -0.00978537
     atom    6 type  2   force =    -0.00652598   -0.02150249    0.00909169
     atom    7 type  2   force =    -0.02044294    0.00802045   -0.01960033
     atom    8 type  3   force =    -0.10482628    0.00451045   -0.00207161
     atom    9 type  3   force =     0.07106930   -0.05342127   -0.05718676
     atom   10 type  3   force =    -0.02128005   -0.02981816   -0.05715626
     atom   11 type  3   force =    -0.02245345   -0.03335809    0.05634023
     atom   12 type  3   force =    -0.01705899    0.03423437   -0.05171889
     atom   13 type  3   force =    -0.00371743    0.03060441    0.06583314
     atom   14 type  3   force =     0.02016812   -0.03198852   -0.05696655
     atom   15 type  3   force =     0.01754493   -0.03850277    0.06483543
     atom   16 type  3   force =     0.01782689    0.04087928   -0.05066479
     atom   17 type  3   force =     0.00728815    0.04924374    0.06873247
     atom   18 type  4   force =    -0.00082314    0.02384917   -0.00781705
     atom   19 type  4   force =    -0.12883538   -0.00581354   -0.11410798
     atom   20 type  4   force =    -0.12416281    0.00562712    0.11890877
     atom   21 type  4   force =     0.12579795   -0.00749173   -0.11230071
     atom   22 type  4   force =     0.12503904   -0.00251530    0.11940270
     atom   23 type  5   force =     0.05676893    0.06620724    0.04728852
     The non-local contrib.  to forces
     atom    1 type  1   force =     0.00428062   -0.00781955    0.02548024
     atom    2 type  1   force =    -0.24924748   -0.15897679    0.01305505
     atom    3 type  1   force =    -0.23884129    0.15025951   -0.01841605
     atom    4 type  1   force =     0.24674305   -0.17110826    0.01790761
     atom    5 type  1   force =     0.21785300    0.14741956   -0.01186192
     atom    6 type  2   force =     0.00412796   -0.04792047   -0.06747157
     atom    7 type  2   force =     0.00040482    0.07131407    0.08067270
     atom    8 type  3   force =    -0.25088123    0.00647605    0.00135949
     atom    9 type  3   force =     0.16369209   -0.05044497   -0.02222970
     atom   10 type  3   force =    -0.21223038    0.00202369   -0.20951993
     atom   11 type  3   force =    -0.21817308    0.00616723    0.19572012
     atom   12 type  3   force =    -0.20190552   -0.02251002   -0.17655330
     atom   13 type  3   force =    -0.20253906   -0.00847757    0.20120081
     atom   14 type  3   force =     0.21210798    0.00233337   -0.21129373
     atom   15 type  3   force =     0.21650841    0.00453175    0.19682398
     atom   16 type  3   force =     0.19854171   -0.01731286   -0.18066627
     atom   17 type  3   force =     0.23822917   -0.02977640    0.16765736
     atom   18 type  4   force =    -0.00788500    0.05946207   -0.05903383
     atom   19 type  4   force =     0.06212246    0.00966186    0.07538115
     atom   20 type  4   force =     0.05743182   -0.02086087   -0.06625636
     atom   21 type  4   force =    -0.05997267    0.01474522    0.07104580
     atom   22 type  4   force =    -0.06003738   -0.01156481   -0.05309585
     atom   23 type  5   force =    -0.03922011   -0.02554730   -0.02879592
     The ionic contribution  to forces
     atom    1 type  1   force =    -0.25156821   -4.81105754   14.05267527
     atom    2 type  1   force =   -39.73094249   -6.11324823    0.73946284
     atom    3 type  1   force =   -39.80821037    6.22720059   -0.78345611
     atom    4 type  1   force =    39.56425373   -6.11486082    0.69584865
     atom    5 type  1   force =    39.01306682    7.27522091   -1.21775865
     atom    6 type  2   force =    -0.16213125   -3.66822424  -14.02797735
     atom    7 type  2   force =    -1.01990346    3.67098572   14.26031500
     atom    8 type  3   force =   -52.29338297   -0.04638345   -0.14942367
     atom    9 type  3   force =    50.84830385   -1.74239859   -1.13692479
     atom   10 type  3   force =   -36.07811077   -2.08091547  -23.08170870
     atom   11 type  3   force =   -35.17440115   -0.83450182   22.11440124
     atom   12 type  3   force =   -35.28550501    0.83278398  -22.16584388
     atom   13 type  3   force =   -36.13772158    2.25760161   23.15059562
     atom   14 type  3   force =    35.99573870   -2.08229767  -23.12793411
     atom   15 type  3   force =    35.04203569   -0.83774457   22.19486855
     atom   16 type  3   force =    35.14507838    0.90233242  -22.30009547
     atom   17 type  3   force =    35.78444473    2.55349459   23.54760332
     atom   18 type  4   force =    -0.37430338    4.37221200  -14.20619618
     atom   19 type  4   force =   -35.93612494    0.91855469  -25.56113544
     atom   20 type  4   force =   -35.98080072   -1.02213748   25.59862385
     atom   21 type  4   force =    35.80251691    0.86098962  -25.70876648
     atom   22 type  4   force =    35.61192613   -1.29293357   26.10652523
     atom   23 type  5   force =     5.42574136    0.77532734    1.00630125
     The local contribution  to forces
     atom    1 type  1   force =     0.24579772    4.79560513  -14.08888387
     atom    2 type  1   force =    39.87498854    6.26080254   -0.77296990
     atom    3 type  1   force =    39.94541565   -6.36848798    0.78792985
     atom    4 type  1   force =   -39.70099117    6.28581047   -0.73722444
     atom    5 type  1   force =   -39.12854378   -7.43355625    1.20412339
     atom    6 type  2   force =     0.15039797    3.69137824   14.09542425
     atom    7 type  2   force =     0.99283827   -3.73618352  -14.37528491
     atom    8 type  3   force =    52.47283555    0.04217028    0.13009891
     atom    9 type  3   force =   -50.96338508    1.74598942    1.08970287
     atom   10 type  3   force =    36.29478407    2.03758108   23.25830686
     atom   11 type  3   force =    35.39797027    0.78890638  -22.27295548
     atom   12 type  3   force =    35.49474450   -0.76204729   22.31229019
     atom   13 type  3   force =    36.35714680   -2.20865634  -23.30211819
     atom   14 type  3   force =   -36.21365998    2.03452733   23.30648670
     atom   15 type  3   force =   -35.27192929    0.79128605  -22.34575034
     atom   16 type  3   force =   -35.35111453   -0.83000833   22.45294516
     atom   17 type  3   force =   -36.04587396   -2.46574155  -23.66010470
     atom   18 type  4   force =     0.38043789   -4.40468560   14.24779715
     atom   19 type  4   force =    35.75403678   -0.93503764   25.38890145
     atom   20 type  4   force =    35.81025731    1.04617562  -25.42533045
     atom   21 type  4   force =   -35.62688358   -0.88331783   25.54397809
     atom   22 type  4   force =   -35.44231171    1.29784384  -25.94507405
     atom   23 type  5   force =    -5.33079668   -0.68454469   -0.93307826
     The core correction contribution to forces
     atom    1 type  1   force =     0.00076566    0.00170108   -0.00094865
     atom    2 type  1   force =    -0.01114900   -0.00111343    0.00035426
     atom    3 type  1   force =    -0.01142282    0.00303654   -0.00078214
     atom    4 type  1   force =     0.01274835   -0.00295131    0.00137073
     atom    5 type  1   force =     0.00518029    0.00572566   -0.00282823
     atom    6 type  2   force =    -0.00011786    0.00254555    0.00311412
     atom    7 type  2   force =     0.00081264   -0.00372037   -0.00361194
     atom    8 type  3   force =    -0.02998609    0.00059559    0.00068881
     atom    9 type  3   force =     0.01732796   -0.00918311   -0.00424850
     atom   10 type  3   force =    -0.02259690    0.00894864   -0.01674964
     atom   11 type  3   force =    -0.02461079    0.00908886    0.01779535
     atom   12 type  3   force =    -0.02149107   -0.01010616   -0.01539637
     atom   13 type  3   force =    -0.02114715   -0.01027631    0.01579815
     atom   14 type  3   force =     0.02153864    0.00941316   -0.01676685
     atom   15 type  3   force =     0.02331578    0.00949640    0.01726396
     atom   16 type  3   force =     0.02173914   -0.00998010   -0.01573246
     atom   17 type  3   force =     0.02443049   -0.00938162    0.01344999
     atom   18 type  4   force =     0.00045563   -0.00318385    0.00281038
     atom   19 type  4   force =    -0.00979193    0.00001840   -0.00969630
     atom   20 type  4   force =    -0.00962813    0.00077915    0.00926166
     atom   21 type  4   force =     0.00960017   -0.00023278   -0.00940428
     atom   22 type  4   force =     0.01007667    0.00066544    0.00790260
     atom   23 type  5   force =     0.00000000    0.00000000    0.00000000
     The Hubbard contrib.    to forces
     atom    1 type  1   force =     0.00000000    0.00000000    0.00000000
     atom    2 type  1   force =     0.00000000    0.00000000    0.00000000
     atom    3 type  1   force =     0.00000000    0.00000000    0.00000000
     atom    4 type  1   force =     0.00000000    0.00000000    0.00000000
     atom    5 type  1   force =     0.00000000    0.00000000    0.00000000
     atom    6 type  2   force =     0.00000000    0.00000000    0.00000000
     atom    7 type  2   force =     0.00000000    0.00000000    0.00000000
     atom    8 type  3   force =     0.00000000    0.00000000    0.00000000
     atom    9 type  3   force =     0.00000000    0.00000000    0.00000000
     atom   10 type  3   force =     0.00000000    0.00000000    0.00000000
     atom   11 type  3   force =     0.00000000    0.00000000    0.00000000
     atom   12 type  3   force =     0.00000000    0.00000000    0.00000000
     atom   13 type  3   force =     0.00000000    0.00000000    0.00000000
     atom   14 type  3   force =     0.00000000    0.00000000    0.00000000
     atom   15 type  3   force =     0.00000000    0.00000000    0.00000000
     atom   16 type  3   force =     0.00000000    0.00000000    0.00000000
     atom   17 type  3   force =     0.00000000    0.00000000    0.00000000
     atom   18 type  4   force =     0.00000000    0.00000000    0.00000000
     atom   19 type  4   force =     0.00000000    0.00000000    0.00000000
     atom   20 type  4   force =     0.00000000    0.00000000    0.00000000
     atom   21 type  4   force =     0.00000000    0.00000000    0.00000000
     atom   22 type  4   force =     0.00000000    0.00000000    0.00000000
     atom   23 type  5   force =     0.00000000    0.00000000    0.00000000
     The SCF correction term to forces
     atom    1 type  1   force =     0.00172843   -0.00167586    0.01265597
     atom    2 type  1   force =    -0.00233980   -0.00155567    0.01312773
     atom    3 type  1   force =    -0.00155826   -0.00014739    0.01345367
     atom    4 type  1   force =     0.00407264   -0.00266851    0.01412088
     atom    5 type  1   force =     0.00592662   -0.00194527    0.01749459
     atom    6 type  2   force =     0.00107386    0.00079313    0.00495680
     atom    7 type  2   force =     0.00528146    0.00569926    0.01726337
     atom    8 type  3   force =    -0.00353488    0.00172667    0.01415941
     atom    9 type  3   force =     0.00500715    0.00269068    0.01546792
     atom   10 type  3   force =    -0.00324940    0.00261861   -0.00853029
     atom   11 type  3   force =    -0.00336205   -0.00294405    0.00033355
     atom   12 type  3   force =    -0.00302522   -0.00381144   -0.00726098
     atom   13 type  3   force =     0.00042022    0.00048772   -0.00068869
     atom   14 type  3   force =     0.00431945    0.00410998   -0.00850399
     atom   15 type  3   force =     0.00749100   -0.00599769    0.00058382
     atom   16 type  3   force =     0.00345885   -0.00407716   -0.00816119
     atom   17 type  3   force =     0.00593439    0.00072341   -0.00091894
     atom   18 type  4   force =     0.00034838    0.00011924    0.00575999
     atom   19 type  4   force =     0.00079892    0.00106383   -0.00860427
     atom   20 type  4   force =    -0.00154643    0.00174540    0.00156464
     atom   21 type  4   force =     0.00041378    0.00039874   -0.01019928
     atom   22 type  4   force =     0.00526200    0.00354851    0.00209933
     atom   23 type  5   force =     0.00092103    0.00104658    0.00181600

     Total force =     0.500339     Total SCF correction =     0.052545
     SCF correction compared to forces is large: reduce conv_thr to get better values


     Computing stress (Cartesian axis) and pressure


     negative rho (up, down):  9.089E-01 9.089E-01
          total   stress  (Ry/bohr**3)                   (kbar)     P=       86.22
   0.00065336   0.00002117   0.00001255           96.11        3.11        1.85
   0.00002117   0.00069972   0.00001596            3.11      102.93        2.35
   0.00001255   0.00001596   0.00040531            1.85        2.35       59.62


     Entering Dynamics:    iteration =     3
                           time      =   0.0006 pico-seconds


ATOMIC_POSITIONS (angstrom)
Hf            2.6701333073        2.8273167007        6.6040813537
[...]
     4.7691   4.8682   5.0531   5.1290   5.2233   5.2829   5.3012   5.3679
     5.4005   5.5533   5.5940   5.7225   5.7470   5.7711   5.7813   5.8688
     6.0021   6.0764   6.1885   6.2363   6.2933   6.3496   6.3723   6.4086
     6.4420   6.6056   6.6708   6.7224   6.9197   6.9955   7.0261   7.1173
     7.1259   7.1713   7.2657   7.2939   7.3512   7.4745   7.5578   7.5665
     7.6333   7.8147   7.9116   7.9256   8.0714   8.1087   8.1290   8.1896
     8.2614   8.2987   8.3683   8.3886   8.4828   8.5630   8.6408   8.6901
     8.8591   8.9204   8.9669   9.0883   9.1137   9.2828   9.2871

     the Fermi energy is     7.2626 ev

!    total energy              =   -2943.03999120 Ry
     estimated scf accuracy    <       0.00051349 Ry
     smearing contrib. (-TS)   =      -0.10363730 Ry
     internal energy E=F+TS    =   -2942.93635391 Ry

     total magnetization       =     0.00 Bohr mag/cell
     absolute magnetization    =     0.00 Bohr mag/cell

     convergence has been achieved in   4 iterations

     negative rho (up, down):  9.091E-01 9.091E-01

     Forces acting on atoms (cartesian axes, Ry/au):

     atom    1 type  1   force =    -0.00036308   -0.02569521    0.01062766
     atom    2 type  1   force =    -0.11808543   -0.01346599    0.00619521
     atom    3 type  1   force =    -0.11491334    0.01032270    0.01143380
     atom    4 type  1   force =     0.12824187   -0.00620441    0.00490821
     atom    5 type  1   force =     0.11634751   -0.01305679    0.00537763
     atom    6 type  2   force =    -0.01058463   -0.02376894    0.00172728
     atom    7 type  2   force =    -0.02029073    0.00590128   -0.01908273
     atom    8 type  3   force =    -0.10660232    0.00604145    0.00123135
     atom    9 type  3   force =     0.04019013   -0.09790261   -0.08563757
     atom   10 type  3   force =    -0.02189977   -0.02672289   -0.06367280
     atom   11 type  3   force =    -0.02292230   -0.03370804    0.05394269
     atom   12 type  3   force =    -0.01826800    0.03275637   -0.05818879
     atom   13 type  3   force =    -0.00356189    0.03304549    0.06270783
     atom   14 type  3   force =     0.02110060   -0.02946067   -0.06335383
     atom   15 type  3   force =     0.01649755   -0.03869354    0.06227840
     atom   16 type  3   force =     0.01860517    0.03954882   -0.05719639
     atom   17 type  3   force =     0.00625538    0.04902102    0.06575380
     atom   18 type  4   force =    -0.00056665    0.02088058   -0.00913659
     atom   19 type  4   force =    -0.12634610   -0.00565659   -0.11780112
     atom   20 type  4   force =    -0.12393027    0.00589935    0.11508748
     atom   21 type  4   force =     0.12318284   -0.00761644   -0.11699596
     atom   22 type  4   force =     0.12438542   -0.00205627    0.11553901
     atom   23 type  5   force =     0.09352804    0.12059132    0.07425545
     The non-local contrib.  to forces
     atom    1 type  1   force =     0.00588666   -0.00809723    0.02643366
     atom    2 type  1   force =    -0.24819585   -0.16007229    0.02083769
     atom    3 type  1   force =    -0.24024641    0.15008659   -0.01185151
     atom    4 type  1   force =     0.24690868   -0.17110523    0.02486230
     atom    5 type  1   force =     0.23097931    0.13282331   -0.00284381
     atom    6 type  2   force =     0.00550722   -0.04583500   -0.06290158
     atom    7 type  2   force =     0.00304407    0.07568034    0.08226554
     atom    8 type  3   force =    -0.25114295    0.00634142    0.00531077
     atom    9 type  3   force =     0.14494955   -0.06338309   -0.03038932
     atom   10 type  3   force =    -0.21539881    0.00156613   -0.21591427
     atom   11 type  3   force =    -0.21812696    0.00577129    0.19466157
     atom   12 type  3   force =    -0.20284408   -0.02328205   -0.17953243
     atom   13 type  3   force =    -0.19986524   -0.00655749    0.20074960
     atom   14 type  3   force =     0.21353613    0.00409231   -0.21403102
     atom   15 type  3   force =     0.21347305    0.00286353    0.19701174
     atom   16 type  3   force =     0.19833886   -0.01753697   -0.18250627
     atom   17 type  3   force =     0.22840135   -0.02085421    0.17828381
     atom   18 type  4   force =    -0.00886361    0.05986696   -0.05409627
     atom   19 type  4   force =     0.06236098    0.00989803    0.07256714
     atom   20 type  4   force =     0.05636254   -0.02079957   -0.06634372
     atom   21 type  4   force =    -0.06068145    0.01498654    0.06861525
     atom   22 type  4   force =    -0.05862427   -0.01274069   -0.05283703
     atom   23 type  5   force =    -0.04340660   -0.03693612   -0.03370782
     The ionic contribution  to forces
     atom    1 type  1   force =    -0.30668919   -4.80436711   14.21775638
     atom    2 type  1   force =   -39.74709018   -6.14351684    0.75413464
     atom    3 type  1   force =   -39.77436642    6.20139679   -0.76539323
     atom    4 type  1   force =    39.57982325   -6.27497184    0.73683063
     atom    5 type  1   force =    39.11415840    7.07114200   -1.10567270
     atom    6 type  2   force =    -0.33342630   -3.78279202  -14.21611604
     atom    7 type  2   force =    -0.86629258    3.66313440   14.24018549
     atom    8 type  3   force =   -52.37870395    0.01952372   -0.10928010
     atom    9 type  3   force =    50.58620287   -1.59819722   -1.13624442
     atom   10 type  3   force =   -36.06992721   -2.08090580  -23.06523041
     atom   11 type  3   force =   -35.15817175   -0.82967467   22.08825746
     atom   12 type  3   force =   -35.26615098    0.81202668  -22.13592972
     atom   13 type  3   force =   -36.09846997    2.22653002   23.10693683
     atom   14 type  3   force =    35.97966754   -2.11223167  -23.13656129
     atom   15 type  3   force =    35.03350782   -0.84547085   22.17244872
     atom   16 type  3   force =    35.13855733    0.87626539  -22.25575106
     atom   17 type  3   force =    35.80201861    2.46826297   23.42976717
     atom   18 type  4   force =    -0.35396464    4.44877943  -14.18816649
     atom   19 type  4   force =   -35.91320761    0.93490109  -25.51016981
     atom   20 type  4   force =   -35.92733126   -0.99913555   25.52291248
     atom   21 type  4   force =    35.77917914    0.91281008  -25.72423998
     atom   22 type  4   force =    35.59815474   -1.21535299   25.97054779
     atom   23 type  5   force =     5.58252235    1.05184399    1.10897767
     The local contribution  to forces
     atom    1 type  1   force =     0.29942443    4.78297793  -14.21956105
     atom    2 type  1   force =    39.88909055    6.29457806   -0.74170836
     atom    3 type  1   force =    39.91018860   -6.34790328    0.81755529
     atom    4 type  1   force =   -39.71266911    6.45061408   -0.73161802
     atom    5 type  1   force =   -39.23259529   -7.22847169    1.14091033
     atom    6 type  2   force =     0.31924389    3.81356175   14.29798552
     atom    7 type  2   force =     0.83167868   -3.73131256  -14.32556900
     atom    8 type  3   force =    52.55776017   -0.02068044    0.12934478
     atom    9 type  3   force =   -50.71769479    1.55912659    1.10168417
     atom   10 type  3   force =    36.28764215    2.05123419   23.21844976
     atom   11 type  3   force =    35.37993951    0.77491200  -22.24593644
     atom   12 type  3   force =    35.47291119   -0.75040022   22.25862422
     atom   13 type  3   force =    36.31198554   -2.16863351  -23.26200520
     atom   14 type  3   force =   -36.19629207    2.07731076   23.29043545
     atom   15 type  3   force =   -35.25822727    0.79500254  -22.32456616
     atom   16 type  3   force =   -35.34297541   -0.81271244   22.38477845
     atom   17 type  3   force =   -36.05577310   -2.37646469  -23.55446717
     atom   18 type  4   force =     0.35944486   -4.49646709   14.24830494
     atom   19 type  4   force =    35.73744710   -0.95270292   25.32152358
     atom   20 type  4   force =    35.75305136    1.02367367  -25.35319161
     atom   21 type  4   force =   -35.61030690   -0.93865982   25.54132929
     atom   22 type  4   force =   -35.42649967    1.21617406  -25.81031992
     atom   23 type  5   force =    -5.44456799   -0.89324267   -0.99803536
     The core correction contribution to forces
     atom    1 type  1   force =     0.00097122    0.00166547   -0.00150928
     atom    2 type  1   force =    -0.01109529   -0.00131614    0.00041171
     atom    3 type  1   force =    -0.01163227    0.00310256   -0.00091205
     atom    4 type  1   force =     0.01282443   -0.00274981    0.00140280
     atom    5 type  1   force =     0.00613536    0.00524209   -0.00219708
     atom    6 type  2   force =    -0.00012841    0.00251607    0.00302620
     atom    7 type  2   force =     0.00066776   -0.00396524   -0.00366553
     atom    8 type  3   force =    -0.02995619    0.00057259    0.00053096
     atom    9 type  3   force =     0.01537691   -0.01012701   -0.00553717
     atom   10 type  3   force =    -0.02270183    0.00884288   -0.01692907
     atom   11 type  3   force =    -0.02475085    0.00919422    0.01777325
     atom   12 type  3   force =    -0.02169640   -0.01004606   -0.01542418
     atom   13 type  3   force =    -0.02083098   -0.01031805    0.01566582
     atom   14 type  3   force =     0.02162908    0.00930714   -0.01689847
     atom   15 type  3   force =     0.02298353    0.00943720    0.01717750
     atom   16 type  3   force =     0.02180770   -0.00993752   -0.01571170
     atom   17 type  3   force =     0.02381169   -0.00924865    0.01416962
     atom   18 type  4   force =     0.00051447   -0.00325317    0.00270068
     atom   19 type  4   force =    -0.00976356   -0.00000122   -0.00964984
     atom   20 type  4   force =    -0.00961251    0.00077564    0.00924824
     atom   21 type  4   force =     0.00960114   -0.00025345   -0.00940172
     atom   22 type  4   force =     0.01004877    0.00068764    0.00787876
     atom   23 type  5   force =     0.00000000    0.00000000    0.00000000
     The Hubbard contrib.    to forces
     atom    1 type  1   force =     0.00000000    0.00000000    0.00000000
     atom    2 type  1   force =     0.00000000    0.00000000    0.00000000
     atom    3 type  1   force =     0.00000000    0.00000000    0.00000000
     atom    4 type  1   force =     0.00000000    0.00000000    0.00000000
     atom    5 type  1   force =     0.00000000    0.00000000    0.00000000
     atom    6 type  2   force =     0.00000000    0.00000000    0.00000000
     atom    7 type  2   force =     0.00000000    0.00000000    0.00000000
     atom    8 type  3   force =     0.00000000    0.00000000    0.00000000
     atom    9 type  3   force =     0.00000000    0.00000000    0.00000000
     atom   10 type  3   force =     0.00000000    0.00000000    0.00000000
     atom   11 type  3   force =     0.00000000    0.00000000    0.00000000
     atom   12 type  3   force =     0.00000000    0.00000000    0.00000000
     atom   13 type  3   force =     0.00000000    0.00000000    0.00000000
     atom   14 type  3   force =     0.00000000    0.00000000    0.00000000
     atom   15 type  3   force =     0.00000000    0.00000000    0.00000000
     atom   16 type  3   force =     0.00000000    0.00000000    0.00000000
     atom   17 type  3   force =     0.00000000    0.00000000    0.00000000
     atom   18 type  4   force =     0.00000000    0.00000000    0.00000000
     atom   19 type  4   force =     0.00000000    0.00000000    0.00000000
     atom   20 type  4   force =     0.00000000    0.00000000    0.00000000
     atom   21 type  4   force =     0.00000000    0.00000000    0.00000000
     atom   22 type  4   force =     0.00000000    0.00000000    0.00000000
     atom   23 type  5   force =     0.00000000    0.00000000    0.00000000
     The SCF correction term to forces
     atom    1 type  1   force =    -0.00005306    0.00204798   -0.01111394
     atom    2 type  1   force =    -0.00089154   -0.00321653   -0.02610237
     atom    3 type  1   force =     0.00104629    0.00356229   -0.02658660
     atom    4 type  1   force =     0.00125775   -0.00806935   -0.02519139
     atom    5 type  1   force =    -0.00242714    0.00612974   -0.02344100
     atom    6 type  2   force =    -0.00187790   -0.01129748   -0.01888871
     atom    7 type  2   force =     0.01051448    0.00228660   -0.01092112
     atom    8 type  3   force =    -0.00465626    0.00020640   -0.02329695
     atom    9 type  3   force =     0.01125872    0.01460036   -0.01377274
     atom   10 type  3   force =    -0.00161094   -0.00753804    0.01732929
     atom   11 type  3   force =    -0.00190913    0.00601136    0.00056495
     atom   12 type  3   force =    -0.00058460    0.00438026    0.01545143
     atom   13 type  3   force =     0.00352189   -0.00805323    0.00273888
     atom   14 type  3   force =     0.00246306   -0.00801695    0.01507960
     atom   15 type  3   force =     0.00466354   -0.00060370    0.00158470
     atom   16 type  3   force =     0.00277983    0.00339260    0.01337230
     atom   17 type  3   force =     0.00769997   -0.01275216   -0.00062152
     atom   18 type  4   force =     0.00220540    0.01187670   -0.01650135
     atom   19 type  4   force =    -0.00327987    0.00217068    0.00930593
     atom   20 type  4   force =     0.00350273    0.00130741    0.00384021
     atom   21 type  4   force =     0.00529404    0.00342245    0.00807932
     atom   22 type  4   force =     0.00120899    0.00909796    0.00164751
     atom   23 type  5   force =    -0.00111658   -0.00115164   -0.00160094

     Total force =     0.527449     Total SCF correction =     0.082969
     SCF correction compared to forces is large: reduce conv_thr to get better values


     Computing stress (Cartesian axis) and pressure


     negative rho (up, down):  9.091E-01 9.091E-01
          total   stress  (Ry/bohr**3)                   (kbar)     P=       87.46
   0.00065911   0.00003747   0.00001946           96.96        5.51        2.86
   0.00003747   0.00071749   0.00002792            5.51      105.55        4.11
   0.00001946   0.00002792   0.00040706            2.86        4.11       59.88


     Entering Dynamics:    iteration =    20
                           time      =   0.0041 pico-seconds


ATOMIC_POSITIONS (angstrom)
Hf            2.6709506436        2.8282014695        6.6048411515
Hf            1.2525158811        1.2874437811        5.0592259442
Hf            1.2550443988        7.3912699574        5.0888751403
Hf            4.0894155907        1.2874764985        5.0592368057
Hf            4.0867080148        7.3910792239        5.0888321373
Nb            2.6711384998        2.7980660168        3.5166947796
Nb            2.6704832597        5.8779451600        6.6354521081
Ta            1.2089843615        4.3423610480        5.0719326122
Ta            4.1177052622        4.3202577901        5.0585725169
Ta            1.3078270754        1.3150975442        2.0588591770
Ta            1.3034235742        1.3093347253        8.0959779948
Ta            1.3046764350        7.3775565420        2.0463792758
Ta            1.3085391760        7.3667697260        8.0874846030
Ta            4.0338669308        1.3151319479        2.0588877147
Ta            4.0382802542        1.3093054699        8.0960589339
Ta            4.0370797459        7.3775862836        2.0464102093
Ta            4.0332775642        7.3668640612        8.0874695213
Zr            2.6710189574        5.8681338957        3.5280548872
Zr            1.2417871912        4.3232650155        1.9981368339
Zr            1.2384065512        4.3555546074        8.1531255928
Zr            4.0999175847        4.3232688388        1.9981661503
Zr            4.1033138868        4.3554692074        8.1531754356
H             5.0132947394        5.6091992688        5.8293271673


     kinetic energy (Ekin) =           4.00453937 Ry
     temperature           =       19159.59878096 K 
     Ekin + Etot (const)   =       -2939.03545183 Ry
     Ions kinetic stress =           70.72 (kbar)
                                     56.53          80.10          48.35
                                     80.10         113.98          68.79
                                     48.35          68.79          41.66



     Linear momentum :    0.0000000000   -0.0000000000   -0.0000000000

     The maximum number of steps has been reached.

     End of molecular dynamics calculation

     diffusion coefficients :
     atom     1   D =       0.00000001 cm^2/s
     atom     2   D =       0.00000001 cm^2/s
     atom     3   D =       0.00000001 cm^2/s
     atom     4   D =       0.00000003 cm^2/s
     atom     5   D =       0.00000003 cm^2/s
     atom     6   D =       0.00000002 cm^2/s
     atom     7   D =       0.00000001 cm^2/s
     atom     8   D =       0.00000001 cm^2/s
     atom     9   D =       0.00000308 cm^2/s
     atom    10   D =       0.00000001 cm^2/s
     atom    11   D =       0.00000001 cm^2/s
     atom    12   D =       0.00000001 cm^2/s
     atom    13   D =       0.00000002 cm^2/s
     atom    14   D =       0.00000001 cm^2/s
     atom    15   D =       0.00000002 cm^2/s
     atom    16   D =       0.00000002 cm^2/s
     atom    17   D =       0.00000003 cm^2/s
     atom    18   D =       0.00000002 cm^2/s
     atom    19   D =       0.00000004 cm^2/s
     atom    20   D =       0.00000007 cm^2/s
     atom    21   D =       0.00000008 cm^2/s
     atom    22   D =       0.00000011 cm^2/s
     atom    23   D =       0.00032355 cm^2/s

     < D > =       0.00001423 cm^2/s

     Writing all to output data dir outdir/pwscf.save/

     init_run     :     23.63s CPU     24.97s WALL (       1 calls)
     electrons    :   2539.89s CPU   2935.39s WALL (      20 calls)
     update_pot   :     19.51s CPU     20.36s WALL (      19 calls)
     forces       :    194.51s CPU    225.65s WALL (      20 calls)
     stress       :    276.73s CPU    301.77s WALL (      20 calls)

     Called by init_run:
     wfcinit      :     19.19s CPU     20.30s WALL (       1 calls)
     potinit      :      0.45s CPU      0.48s WALL (       1 calls)
     hinit0       :      0.97s CPU      1.05s WALL (       1 calls)

     Called by electrons:
     c_bands      :   2011.38s CPU   2341.46s WALL (     100 calls)
     sum_band     :    353.42s CPU    396.65s WALL (     100 calls)
     v_of_rho     :     10.77s CPU     12.54s WALL (     120 calls)
     newd         :    187.77s CPU    211.39s WALL (     120 calls)
     mix_rho      :      1.03s CPU      1.29s WALL (     100 calls)

     Called by c_bands:
     init_us_2    :      4.07s CPU      4.18s WALL (     482 calls)
     init_us_2:cp :      4.06s CPU      4.18s WALL (     482 calls)
     regterg      :   1997.26s CPU   2324.93s WALL (     200 calls)

     Called by *egterg:
     rdiaghg      :     64.34s CPU     80.80s WALL (    1544 calls)
     h_psi        :   1059.83s CPU   1156.53s WALL (    1584 calls)
     s_psi        :    363.15s CPU    363.55s WALL (    1584 calls)
     g_psi        :      0.80s CPU      0.84s WALL (    1382 calls)

     Called by h_psi:
     h_psi:calbec :    517.66s CPU    582.75s WALL (    1584 calls)
     vloc_psi     :    102.09s CPU    132.85s WALL (    1584 calls)
     add_vuspsi   :    438.66s CPU    439.45s WALL (    1584 calls)

     General routines
     calbec       :    856.97s CPU    975.98s WALL (    1984 calls)
     fft          :      8.31s CPU     21.88s WALL (    2499 calls)
     ffts         :      0.22s CPU      0.29s WALL (     100 calls)
     fftw         :    110.87s CPU    144.41s WALL (  104382 calls)

     Parallel routines

     PWSCF        :  51m17.18s CPU  58m55.58s WALL


   This run was terminated on:  23:11:10  15Jun2023            

=------------------------------------------------------------------------------=
   JOB DONE.
=------------------------------------------------------------------------------=
