
     Program PWSCF v.7.2 starts on 13Jun2023 at 18:15:13 

     This program is part of the open-source Quantum ESPRESSO suite
     for quantum simulation of materials; please cite
         "P. Giannozzi et al., J. Phys.:Condens. Matter 21 395502 (2009);
         "P. Giannozzi et al., J. Phys.:Condens. Matter 29 465901 (2017);
         "P. Giannozzi et al., J. Chem. Phys. 152 154105 (2020);
          URL http://www.quantum-espresso.org", 
     in publications or presentations arising from this work. More details at
     http://www.quantum-espresso.org/quote

     Parallel version (MPI), running on    42 processors

     MPI processes distributed on     1 nodes
     178578 MiB available memory on the printing compute node when the environment starts

     Reading input from md_data/md_Hf5Nb2Ta10Zr5H_20steps_100eV_incident30_polar0.in
Warning: card &CELL ignored
Warning: card / ignored

     Current dimensions of program PWSCF are:
     Max number of different atomic species (ntypx) = 10
     Max number of k-points (npk) =  40000
     Max angular momentum in pseudopotentials (lmaxx) =  4

     File outdir/pwscf.md deleted, as requested

     gamma-point specific algorithms are used

     R & G space division:  proc/nbgrp/npool/nimage =      42
     Subspace diagonalization in iterative solution of the eigenvalue problem:
     one sub-group per band group will be used
     custom distributed-memory algorithm (size of sub-group:  2*  2 procs)


     Parallelization info
     --------------------
     sticks:   dense  smooth     PW     G-vecs:    dense   smooth      PW
     Min         262     262     63                23470    23470    2920
     Max         265     265     66                23484    23484    2942
     Sum       11057   11057   2753               986005   986005  123175

     Using Slab Decomposition



     bravais-lattice index     =            0
     lattice parameter (alat)  =      17.6500  a.u.
     unit-cell volume          =    5552.8853 (a.u.)^3
     number of atoms/cell      =           23
     number of atomic types    =            5
     number of electrons       =       277.00
     number of Kohn-Sham states=          167
     kinetic-energy cutoff     =     120.0000  Ry
     charge density cutoff     =     480.0000  Ry
     scf convergence threshold =      1.0E-03
     mixing beta               =       0.7000
     number of iterations used =            8  TF        mixing
     energy convergence thresh.=      0.0E+00
     force convergence thresh. =      0.0E+00
     Exchange-correlation=  SLA  PW   PBX  PBC
                           (   1   4   3   4   0   0   0)
     nstep                     =           20


     celldm(1)=  17.650041  celldm(2)=   0.000000  celldm(3)=   0.000000
     celldm(4)=   0.000000  celldm(5)=   0.000000  celldm(6)=   0.000000

     crystal axes: (cart. coord. in units of alat)
               a(1) = (   1.000000   0.000000   0.000000 )  
               a(2) = (   0.000000   0.929336   0.000000 )  
               a(3) = (   0.000000   0.000000   1.086698 )  

     reciprocal axes: (cart. coord. in units 2 pi/alat)
               b(1) = (  1.000000  0.000000  0.000000 )  
               b(2) = (  0.000000  1.076037  0.000000 )  
               b(3) = (  0.000000  0.000000  0.920219 )  


     PseudoPot. # 1 for Hf read from file:
     q-e/pseudo/hf_pbe_v1.uspp.F.UPF
     MD5 check sum: 8ee9378dfe14276e333edf04c5e4aa26
     Pseudo is Ultrasoft + core correction, Zval = 12.0
     Generated by new atomic code, or converted to UPF format
     Using radial grid of  921 points,  8 beta functions with: 
                l(1) =   0
                l(2) =   0
                l(3) =   0
                l(4) =   1
                l(5) =   1
                l(6) =   2
                l(7) =   2
                l(8) =   3
     Q(r) pseudized with  6 coefficients,  rinner =    1.200   1.200   1.200
                                                       1.200   1.200   1.200
                                                       1.200

     PseudoPot. # 2 for Nb read from file:
     q-e/pseudo/nb_pbe_v1.uspp.F.UPF
     MD5 check sum: 573aab8a2fa660278ed4a62cd769473f
     Pseudo is Ultrasoft + core correction, Zval = 13.0
     Generated by new atomic code, or converted to UPF format
     Using radial grid of  887 points,  6 beta functions with: 
                l(1) =   0
                l(2) =   0
                l(3) =   1
                l(4) =   1
                l(5) =   2
                l(6) =   2
     Q(r) pseudized with  6 coefficients,  rinner =    1.000   1.000   1.000
                                                       1.000   1.000

     PseudoPot. # 3 for Ta read from file:
     q-e/pseudo/ta_pbe_v1.uspp.F.UPF
     MD5 check sum: f8bbe9446314a3b8ea5d9f3e3836c939
     Pseudo is Ultrasoft + core correction, Zval = 13.0
     Generated by new atomic code, or converted to UPF format
     Using radial grid of  921 points,  7 beta functions with: 
                l(1) =   0
                l(2) =   0
                l(3) =   1
                l(4) =   1
                l(5) =   2
                l(6) =   2
                l(7) =   3
     Q(r) pseudized with  6 coefficients,  rinner =    1.300   1.300   1.300
                                                       1.300   1.300   1.300
                                                       1.300

     PseudoPot. # 4 for Zr read from file:
     q-e/pseudo/zr_pbe_v1.uspp.F.UPF
     MD5 check sum: 5db81b1e868ab7776c4564c113de050b
     Pseudo is Ultrasoft + core correction, Zval = 12.0
     Generated by new atomic code, or converted to UPF format
     Using radial grid of  887 points,  6 beta functions with: 
                l(1) =   0
                l(2) =   0
                l(3) =   1
                l(4) =   1
                l(5) =   2
                l(6) =   2
     Q(r) pseudized with  6 coefficients,  rinner =    1.200   1.200   1.200
                                                       1.200   1.200

     PseudoPot. # 5 for H  read from file:
     q-e/pseudo/h_pbe_v1.4.uspp.F.UPF
     MD5 check sum: 761ae9a214b05c3daf00ab9f6b793d6f
     Pseudo is Ultrasoft, Zval =  1.0
     Generated by new atomic code, or converted to UPF format
     Using radial grid of  615 points,  2 beta functions with: 
                l(1) =   0
                l(2) =   0
     Q(r) pseudized with  8 coefficients,  rinner =    0.700

     atomic species   valence    mass     pseudopotential
        Hf            12.00   178.49000     Hf( 1.00)
        Nb            13.00    92.90637     Nb( 1.00)
        Ta            13.00   180.94788     Ta( 1.00)
        Zr            12.00    91.22400     Zr( 1.00)
        H              1.00     2.01400     H ( 1.00)

     Starting magnetic structure 
     atomic species   magnetization
        Hf           0.000
        Nb           0.000
        Ta           0.000
        Zr           0.000
        H            0.000

     No symmetry found



   Cartesian axes

     site n.     atom                  positions (alat units)
         1           Hf  tau(   1) = (   0.2858672   0.3026898   0.7070626  )
         2           Hf  tau(   2) = (   0.1341532   0.1377178   0.5415917  )
         3           Hf  tau(   3) = (   0.1344204   0.7911996   0.5447610  )
         4           Hf  tau(   4) = (   0.4375813   0.1377178   0.5415917  )
         5           Hf  tau(   5) = (   0.4373140   0.7911996   0.5447610  )
         6           Nb  tau(   6) = (   0.2858672   0.2994572   0.3764008  )
         7           Nb  tau(   7) = (   0.2858672   0.6291626   0.7103852  )
         8           Ta  tau(   8) = (   0.1294832   0.4647675   0.5429471  )
         9           Ta  tau(   9) = (   0.4422513   0.4647675   0.5429471  )
        10           Ta  tau(  10) = (   0.1399628   0.1406984   0.2204260  )
        11           Ta  tau(  11) = (   0.1394848   0.1400847   0.8666573  )
        12           Ta  tau(  12) = (   0.1396156   0.7897030   0.2190832  )
        13           Ta  tau(  13) = (   0.1400119   0.7885528   0.8657390  )
        14           Ta  tau(  14) = (   0.4317717   0.1406984   0.2204260  )
        15           Ta  tau(  15) = (   0.4322496   0.1400847   0.8666573  )
        16           Ta  tau(  16) = (   0.4321189   0.7897030   0.2190832  )
        17           Ta  tau(  17) = (   0.4317226   0.7885528   0.8657390  )
        18           Zr  tau(  18) = (   0.2858672   0.6280820   0.3776642  )
        19           Zr  tau(  19) = (   0.1331729   0.4627493   0.2141328  )
        20           Zr  tau(  20) = (   0.1328036   0.4661802   0.8725649  )
        21           Zr  tau(  21) = (   0.4385616   0.4627493   0.2141328  )
        22           Zr  tau(  22) = (   0.4389309   0.4661802   0.8725649  )
        23           H   tau(  23) = (   0.6276957   0.5717345   0.5430600  )

     number of k points=     1  Gaussian smearing, width (Ry)=  0.0220
                       cart. coord. in units 2pi/alat
        k(    1) = (   0.0000000   0.0000000   0.0000000), wk =   1.0000000

     Dense  grid:   493003 G-vectors     FFT dimensions: ( 125, 120, 135)

     Estimated max dynamical RAM per process >     133.03 MB

     Estimated total dynamical RAM >       5.46 GB

     Check: negative core charge=   -0.000002
     Generating pointlists ...
     new r_m :   0.1117 (alat units)  1.9717 (a.u.) for type    1
     new r_m :   0.1098 (alat units)  1.9374 (a.u.) for type    2
     new r_m :   0.0883 (alat units)  1.5587 (a.u.) for type    3
     new r_m :   0.1112 (alat units)  1.9625 (a.u.) for type    4
     new r_m :   0.0883 (alat units)  1.5587 (a.u.) for type    5

     Initial potential from superposition of free atoms

     starting charge     266.9726, renormalised to     277.0000

     negative rho (up, down):  9.217E-01 9.217E-01
     Starting wfcs are  287 randomized atomic wfcs

     total cpu time spent up to now is       25.9 secs

     Self-consistent Calculation

     iteration #  1     ecut=   120.00 Ry     beta= 0.70
     Davidson diagonalization with overlap
     ethr =  1.00E-02,  avg # of iterations =  2.0

     negative rho (up, down):  9.951E-01 9.947E-01

     total cpu time spent up to now is       67.6 secs

     total energy              =   -2930.50861721 Ry
     estimated scf accuracy    <     277.28314626 Ry

     total magnetization       =    -0.00 Bohr mag/cell
     absolute magnetization    =     0.09 Bohr mag/cell

     iteration #  2     ecut=   120.00 Ry     beta= 0.70
     Davidson diagonalization with overlap
     ethr =  1.00E-02,  avg # of iterations =  5.0

     negative rho (up, down):  9.686E-01 9.694E-01

     total cpu time spent up to now is       94.6 secs

     total energy              =   -2942.29589071 Ry
     estimated scf accuracy    <      29.65710615 Ry

     total magnetization       =    -0.07 Bohr mag/cell
     absolute magnetization    =     0.27 Bohr mag/cell

     iteration #  3     ecut=   120.00 Ry     beta= 0.70
     Davidson diagonalization with overlap
     ethr =  1.00E-02,  avg # of iterations =  2.0

     negative rho (up, down):  1.005E+00 1.009E+00

     total cpu time spent up to now is      112.5 secs

     total energy              =   -2942.66763266 Ry
     estimated scf accuracy    <      13.01451827 Ry

     total magnetization       =    -0.03 Bohr mag/cell
     absolute magnetization    =     0.33 Bohr mag/cell

     iteration #  4     ecut=   120.00 Ry     beta= 0.70
     Davidson diagonalization with overlap
     ethr =  4.70E-03,  avg # of iterations =  3.0

     negative rho (up, down):  1.012E+00 1.018E+00

     total cpu time spent up to now is      130.0 secs

     total energy              =   -2942.93014976 Ry
     estimated scf accuracy    <       3.22406693 Ry

     total magnetization       =    -0.08 Bohr mag/cell
     absolute magnetization    =     0.37 Bohr mag/cell

     iteration #  5     ecut=   120.00 Ry     beta= 0.70
     Davidson diagonalization with overlap
     ethr =  1.16E-03,  avg # of iterations =  7.0

     negative rho (up, down):  9.857E-01 9.898E-01

     total cpu time spent up to now is      153.5 secs

     total energy              =   -2943.06247752 Ry
     estimated scf accuracy    <       1.55835535 Ry

     total magnetization       =    -0.04 Bohr mag/cell
     absolute magnetization    =     0.25 Bohr mag/cell

     iteration #  6     ecut=   120.00 Ry     beta= 0.70
     Davidson diagonalization with overlap
     ethr =  5.63E-04,  avg # of iterations =  2.0

     negative rho (up, down):  9.743E-01 9.771E-01

     total cpu time spent up to now is      183.1 secs

     total energy              =   -2943.11478666 Ry
     estimated scf accuracy    <       1.22629439 Ry

     total magnetization       =    -0.05 Bohr mag/cell
     absolute magnetization    =     0.20 Bohr mag/cell

     iteration #  7     ecut=   120.00 Ry     beta= 0.70
     Davidson diagonalization with overlap
     ethr =  4.43E-04,  avg # of iterations =  1.0

     negative rho (up, down):  9.495E-01 9.507E-01

     total cpu time spent up to now is      217.2 secs

     total energy              =   -2943.05848270 Ry
     estimated scf accuracy    <       0.45001929 Ry

     total magnetization       =    -0.05 Bohr mag/cell
     absolute magnetization    =     0.18 Bohr mag/cell

     iteration #  8     ecut=   120.00 Ry     beta= 0.70
     Davidson diagonalization with overlap
     ethr =  1.62E-04,  avg # of iterations =  4.5

     negative rho (up, down):  9.219E-01 9.219E-01

     total cpu time spent up to now is      246.9 secs

     total energy              =   -2943.06270963 Ry
     estimated scf accuracy    <       0.23185216 Ry

     total magnetization       =    -0.05 Bohr mag/cell
     absolute magnetization    =     0.16 Bohr mag/cell

     iteration #  9     ecut=   120.00 Ry     beta= 0.70
     Davidson diagonalization with overlap
     ethr =  8.37E-05,  avg # of iterations = 11.0

     negative rho (up, down):  9.086E-01 9.085E-01

     total cpu time spent up to now is      265.2 secs

     total energy              =   -2943.05846977 Ry
     estimated scf accuracy    <       0.06337703 Ry

     total magnetization       =    -0.05 Bohr mag/cell
     absolute magnetization    =     0.12 Bohr mag/cell

     iteration # 10     ecut=   120.00 Ry     beta= 0.70
     Davidson diagonalization with overlap
     ethr =  2.29E-05,  avg # of iterations = 14.5

     negative rho (up, down):  9.083E-01 9.083E-01

     total cpu time spent up to now is      287.7 secs

     total energy              =   -2943.06344273 Ry
     estimated scf accuracy    <       0.03599163 Ry

     total magnetization       =    -0.05 Bohr mag/cell
     absolute magnetization    =     0.09 Bohr mag/cell

     iteration # 11     ecut=   120.00 Ry     beta= 0.70
     Davidson diagonalization with overlap
     ethr =  1.30E-05,  avg # of iterations =  2.0

     negative rho (up, down):  9.092E-01 9.092E-01

     total cpu time spent up to now is      304.9 secs

     total energy              =   -2943.06696934 Ry
     estimated scf accuracy    <       0.01085444 Ry

     total magnetization       =    -0.05 Bohr mag/cell
     absolute magnetization    =     0.08 Bohr mag/cell

     iteration # 12     ecut=   120.00 Ry     beta= 0.70
     Davidson diagonalization with overlap
     ethr =  3.92E-06,  avg # of iterations = 14.0

     negative rho (up, down):  9.093E-01 9.093E-01

     total cpu time spent up to now is      330.9 secs

     total energy              =   -2943.06991371 Ry
     estimated scf accuracy    <       0.00174807 Ry

     total magnetization       =    -0.05 Bohr mag/cell
     absolute magnetization    =     0.07 Bohr mag/cell

     iteration # 13     ecut=   120.00 Ry     beta= 0.70
     Davidson diagonalization with overlap
     ethr =  6.31E-07,  avg # of iterations =  5.0

     negative rho (up, down):  9.090E-01 9.090E-01

     Magnetic moment per site  (integrated on atomic sphere of radius R)
     atom   1 (R=0.112)  charge=  9.4614  magn=  0.0000
     atom   2 (R=0.112)  charge=  9.0592  magn= -0.0003
     atom   3 (R=0.112)  charge=  9.0580  magn= -0.0002
     atom   4 (R=0.112)  charge=  9.0577  magn= -0.0001
     atom   5 (R=0.112)  charge=  9.0465  magn= -0.0003
     atom   6 (R=0.110)  charge= 10.3477  magn=  0.0000
     atom   7 (R=0.110)  charge= 10.3473  magn= -0.0004
     atom   8 (R=0.088)  charge=  8.1237  magn=  0.0001
     atom   9 (R=0.088)  charge=  8.1140  magn= -0.0002
     atom  10 (R=0.088)  charge=  8.1046  magn= -0.0017
     atom  11 (R=0.088)  charge=  8.1011  magn= -0.0007
     atom  12 (R=0.088)  charge=  8.1046  magn= -0.0008
     atom  13 (R=0.088)  charge=  8.1038  magn= -0.0002
     atom  14 (R=0.088)  charge=  8.1041  magn= -0.0012
     atom  15 (R=0.088)  charge=  8.0995  magn= -0.0008
     atom  16 (R=0.088)  charge=  8.1058  magn= -0.0022
     atom  17 (R=0.088)  charge=  8.1054  magn= -0.0008
     atom  18 (R=0.111)  charge=  9.4533  magn=  0.0002
     atom  19 (R=0.111)  charge=  9.0036  magn= -0.0013
     atom  20 (R=0.111)  charge=  8.9963  magn= -0.0001
     atom  21 (R=0.111)  charge=  9.0062  magn= -0.0013
     atom  22 (R=0.111)  charge=  8.9959  magn=  0.0000
     atom  23 (R=0.088)  charge=  0.9803  magn= -0.0000

     total cpu time spent up to now is      371.8 secs

     End of self-consistent calculation

 ------ SPIN UP ------------


          k = 0.0000 0.0000 0.0000 ( 61588 PWs)   bands (ev):

   -60.7978 -60.7882 -60.7529 -60.7429 -60.7169 -60.7086 -60.6731 -60.6649
   -60.5406 -60.4047 -54.3967 -54.3505 -54.2699 -54.2243 -52.7171 -46.2784
   -46.2680 -41.6748 -41.6468 -41.5721 -41.5601 -39.8135 -27.7979 -27.7884
   -27.7141 -27.6998 -27.6102 -27.6042 -27.4823 -27.4729 -27.3867 -27.3475
   -27.3156 -27.2847 -27.2710 -27.2500 -27.2368 -27.1866 -27.1755 -27.1586
   -27.1135 -27.0734 -27.0178 -26.9753 -26.9682 -26.9595 -26.9536 -26.9087
   -26.8995 -26.8956 -26.8713 -26.8669 -24.1837 -23.9700 -23.6733 -23.5789
   -23.3270 -23.1939 -23.1682 -23.0704 -22.9448 -22.8668 -22.8488 -22.6270
   -22.5191 -22.4663 -22.4111 -22.3641 -22.2921 -22.2451 -21.7741 -21.7100
   -21.6463 -20.2339 -19.9552 -19.8854 -19.8641 -19.6410 -19.6204 -19.6166
   -19.6006 -19.5913 -19.5514 -19.4146 -19.3852 -18.1589 -17.9637 -17.8331
     1.4538   2.9160   2.9867   3.1290   3.3020   3.4573   3.5255   3.6736
     3.7359   3.8684   3.9017   4.0724   4.2079   4.4944   4.6028   4.6889
     4.7577   4.8379   5.0146   5.0775   5.1471   5.2490   5.2715   5.3322
     5.3958   5.5425   5.6076   5.7111   5.7159   5.7411   5.7479   5.7967
     5.9302   6.0946   6.1863   6.2126   6.2375   6.2778   6.3485   6.3802
     6.4567   6.5868   6.6469   6.7105   6.7940   6.9409   6.9892   7.0374
     7.0894   7.1388   7.2507   7.2575   7.3083   7.4214   7.5425   7.5672
     7.6063   7.7343   7.8867   7.8885   8.0701   8.0959   8.0998   8.2018
     8.2493   8.2621   8.3416   8.3684   8.4450   8.5460   8.6351   8.6460
     8.8213   8.8897   8.9409   9.0577   9.1144   9.2178   9.2733

 ------ SPIN DOWN ----------


          k = 0.0000 0.0000 0.0000 ( 61588 PWs)   bands (ev):

   -60.7994 -60.7889 -60.7545 -60.7436 -60.7184 -60.7093 -60.6747 -60.6656
   -60.5405 -60.4049 -54.3969 -54.3506 -54.2700 -54.2244 -52.7171 -46.2786
   -46.2679 -41.6758 -41.6466 -41.5732 -41.5600 -39.8132 -27.8002 -27.7895
   -27.7166 -27.7009 -27.6121 -27.6055 -27.4835 -27.4747 -27.3872 -27.3489
   -27.3163 -27.2865 -27.2719 -27.2512 -27.2381 -27.1875 -27.1769 -27.1593
   -27.1136 -27.0737 -27.0181 -26.9774 -26.9692 -26.9611 -26.9553 -26.9097
   -26.9012 -26.8968 -26.8731 -26.8678 -24.1839 -23.9701 -23.6735 -23.5790
   -23.3272 -23.1942 -23.1686 -23.0707 -22.9449 -22.8671 -22.8489 -22.6272
   -22.5192 -22.4664 -22.4114 -22.3643 -22.2923 -22.2452 -21.7741 -21.7100
   -21.6463 -20.2349 -19.9547 -19.8862 -19.8654 -19.6424 -19.6205 -19.6170
   -19.6008 -19.5913 -19.5516 -19.4157 -19.3851 -18.1586 -17.9635 -17.8331
     1.4527   2.9137   2.9863   3.1285   3.3012   3.4548   3.5248   3.6732
     3.7350   3.8680   3.8991   4.0715   4.2069   4.4939   4.6023   4.6872
     4.7567   4.8370   5.0130   5.0761   5.1462   5.2479   5.2704   5.3303
     5.3941   5.5418   5.6069   5.7096   5.7151   5.7404   5.7475   5.7959
     5.9294   6.0924   6.1853   6.2115   6.2361   6.2766   6.3476   6.3788
     6.4549   6.5858   6.6457   6.7091   6.7927   6.9391   6.9851   7.0347
     7.0833   7.1359   7.2462   7.2537   7.3067   7.4159   7.5419   7.5641
     7.6034   7.7320   7.8852   7.8869   8.0672   8.0936   8.0980   8.1972
     8.2471   8.2610   8.3380   8.3667   8.4433   8.5442   8.6335   8.6445
     8.8198   8.8853   8.9391   9.0561   9.1123   9.2169   9.2609

     the Fermi energy is     7.2210 ev

!    total energy              =   -2943.07103026 Ry
     estimated scf accuracy    <       0.00065984 Ry
     smearing contrib. (-TS)   =      -0.09919659 Ry
     internal energy E=F+TS    =   -2942.97183367 Ry

     total magnetization       =    -0.05 Bohr mag/cell
     absolute magnetization    =     0.06 Bohr mag/cell

     convergence has been achieved in  13 iterations

     negative rho (up, down):  9.090E-01 9.090E-01

     Forces acting on atoms (cartesian axes, Ry/au):

     atom    1 type  1   force =    -0.00886037   -0.02613697    0.01258615
     atom    2 type  1   force =    -0.11457003   -0.01900351   -0.00470068
     atom    3 type  1   force =    -0.11797589    0.01431160    0.00221903
     atom    4 type  1   force =     0.11437514   -0.01168690   -0.00464088
     atom    5 type  1   force =     0.13888877   -0.01031260    0.00445548
     atom    6 type  2   force =    -0.00809608   -0.01491507    0.00747907
     atom    7 type  2   force =    -0.00993957    0.01174972   -0.01144511
     atom    8 type  3   force =    -0.11673678    0.00485343   -0.00550448
     atom    9 type  3   force =     0.16823704    0.02203904   -0.00381797
     atom   10 type  3   force =    -0.02094879   -0.02911896   -0.05954357
     atom   11 type  3   force =    -0.01980739   -0.03500182    0.05702636
     atom   12 type  3   force =    -0.01716034    0.03638847   -0.05604316
     atom   13 type  3   force =    -0.01892961    0.03019835    0.06296347
     atom   14 type  3   force =     0.02106365   -0.03093640   -0.06115786
     atom   15 type  3   force =     0.01993207   -0.03645571    0.05835836
     atom   16 type  3   force =     0.01695075    0.04035636   -0.05525611
     atom   17 type  3   force =     0.01716684    0.03409132    0.06169775
     atom   18 type  4   force =    -0.00984636    0.01994009   -0.01049601
     atom   19 type  4   force =    -0.12803586   -0.00545603   -0.11556148
     atom   20 type  4   force =    -0.13390012    0.00554762    0.11905783
     atom   21 type  4   force =     0.12591707   -0.01031550   -0.11745841
     atom   22 type  4   force =     0.13314491    0.00319581    0.11919422
     atom   23 type  5   force =    -0.03086903    0.00666766    0.00058799
     The non-local contrib.  to forces
     atom    1 type  1   force =    -0.00244030   -0.01114471    0.02883036
     atom    2 type  1   force =    -0.24767395   -0.16259429    0.01592372
     atom    3 type  1   force =    -0.24087885    0.15538445   -0.02707936
     atom    4 type  1   force =     0.24769901   -0.16358766    0.01593709
     atom    5 type  1   force =     0.24779434    0.14850633   -0.02679621
     atom    6 type  2   force =     0.00443578   -0.04973178   -0.07088939
     atom    7 type  2   force =    -0.01880447    0.06343820    0.06101484
     atom    8 type  3   force =    -0.26544084    0.00327137   -0.00503413
     atom    9 type  3   force =     0.09454166   -0.07797887   -0.01090536
     atom   10 type  3   force =    -0.21025851    0.00463663   -0.20989191
     atom   11 type  3   force =    -0.21617184    0.00399398    0.19983256
     atom   12 type  3   force =    -0.20597600   -0.02049050   -0.17763618
     atom   13 type  3   force =    -0.21475876   -0.00448885    0.20822148
     atom   14 type  3   force =     0.20389411    0.00101963   -0.21656644
     atom   15 type  3   force =     0.21294243    0.00435088    0.20310325
     atom   16 type  3   force =     0.21779256   -0.02567692   -0.17545512
     atom   17 type  3   force =     0.22380804   -0.01047868    0.20443444
     atom   18 type  4   force =    -0.01949971    0.05441685   -0.06364003
     atom   19 type  4   force =     0.06386168    0.00720528    0.06829792
     atom   20 type  4   force =     0.05815750   -0.01516084   -0.06514299
     atom   21 type  4   force =    -0.06212032    0.00783054    0.07232584
     atom   22 type  4   force =    -0.05663608   -0.01342309   -0.06429754
     atom   23 type  5   force =    -0.03966066   -0.01492611   -0.00002998
     The ionic contribution  to forces
     atom    1 type  1   force =    -0.16646047   -4.69695406   14.07194770
     atom    2 type  1   force =   -39.66138105   -6.13202349    0.77975131
     atom    3 type  1   force =   -39.63957330    6.20180427   -0.71332681
     atom    4 type  1   force =    39.50483757   -6.17771365    0.77907657
     atom    5 type  1   force =    39.08113361    6.69680066   -0.70933580
     atom    6 type  2   force =    -0.17648549   -3.66121617  -13.97358771
     atom    7 type  2   force =    -0.35693337    3.62745280   14.10595650
     atom    8 type  3   force =   -52.07815772   -0.00676192   -0.06497569
     atom    9 type  3   force =    50.56301260   -0.79347352   -0.06581235
     atom   10 type  3   force =   -36.04434346   -2.09239059  -23.09758950
     atom   11 type  3   force =   -35.11848588   -0.84520629   22.10186056
     atom   12 type  3   force =   -35.23188752    0.84034217  -22.17919969
     atom   13 type  3   force =   -36.02212545    2.22447880   23.10887084
     atom   14 type  3   force =    35.95398776   -2.10821172  -23.15284547
     atom   15 type  3   force =    35.02877991   -0.86068735   22.15701985
     atom   16 type  3   force =    35.06469211    0.93543984  -22.32631432
     atom   17 type  3   force =    35.85266709    2.32046670   23.25752012
     atom   18 type  4   force =    -0.33266460    4.39675258  -14.02135992
     atom   19 type  4   force =   -35.88240956    0.92071433  -25.58677568
     atom   20 type  4   force =   -35.86527880   -0.98899794   25.56515928
     atom   21 type  4   force =    35.68072124    0.84804915  -25.80308556
     atom   22 type  4   force =    35.66320334   -1.05993960   25.78336406
     atom   23 type  5   force =     4.18315144    0.41127501   -0.01631828
     The local contribution  to forces
     atom    1 type  1   force =     0.16214684    4.68047207  -14.09004385
     atom    2 type  1   force =    39.81336835    6.27192439   -0.80902091
     atom    3 type  1   force =    39.78322160   -6.33994541    0.73966519
     atom    4 type  1   force =   -39.65625090    6.32854854   -0.80916732
     atom    5 type  1   force =   -39.20525882   -6.85895024    0.73982695
     atom    6 type  2   force =     0.16895923    3.70115715   14.02407854
     atom    7 type  2   force =     0.36943221   -3.67458019  -14.17701385
     atom    8 type  3   force =    52.25746193    0.00729459    0.05186745
     atom    9 type  3   force =   -50.49790736    0.90304312    0.05925928
     atom   10 type  3   force =    36.25820998    2.05762058   23.25994118
     atom   11 type  3   force =    35.34042408    0.79582175  -22.25637743
     atom   12 type  3   force =    35.44362706   -0.77562170   22.30900271
     atom   13 type  3   force =    36.24418946   -2.18145527  -23.26463897
     atom   14 type  3   force =   -36.15837910    2.07629698   23.31907776
     atom   15 type  3   force =   -35.24707680    0.80630451  -22.31189836
     atom   16 type  3   force =   -35.28896841   -0.85896017   22.45252431
     atom   17 type  3   force =   -36.08354864   -2.26867462  -23.41028322
     atom   18 type  4   force =     0.34400958   -4.43985403   14.05370257
     atom   19 type  4   force =    35.70660270   -0.93776028   25.40733314
     atom   20 type  4   force =    35.67991822    1.01030041  -25.38274965
     atom   21 type  4   force =   -35.50551896   -0.87266162   25.62033300
     atom   22 type  4   force =   -35.47762107    1.07940998  -25.60337513
     atom   23 type  5   force =    -4.17466543   -0.39059566    0.01550100
     The core correction contribution to forces
     atom    1 type  1   force =    -0.00004821    0.00188906   -0.00170237
     atom    2 type  1   force =    -0.01154610   -0.00155448    0.00074897
     atom    3 type  1   force =    -0.01252835    0.00263588   -0.00134736
     atom    4 type  1   force =     0.01193197   -0.00204089    0.00075276
     atom    5 type  1   force =     0.00796714    0.00760206   -0.00180521
     atom    6 type  2   force =    -0.00026504    0.00236409    0.00286250
     atom    7 type  2   force =     0.00065386   -0.00305159   -0.00233607
     atom    8 type  3   force =    -0.03183194    0.00093803   -0.00075557
     atom    9 type  3   force =     0.01211596   -0.01086576   -0.00099906
     atom   10 type  3   force =    -0.02203055    0.00908665   -0.01716979
     atom   11 type  3   force =    -0.02403514    0.00912412    0.01778581
     atom   12 type  3   force =    -0.02270757   -0.00996845   -0.01530617
     atom   13 type  3   force =    -0.02301530   -0.00924188    0.01657547
     atom   14 type  3   force =     0.02197288    0.00975944   -0.01584642
     atom   15 type  3   force =     0.02327811    0.01042463    0.01627981
     atom   16 type  3   force =     0.02392579   -0.01162303   -0.01383236
     atom   17 type  3   force =     0.02345571   -0.01034692    0.01528388
     atom   18 type  4   force =     0.00093703   -0.00300427    0.00290422
     atom   19 type  4   force =    -0.00993626    0.00012395   -0.00932430
     atom   20 type  4   force =    -0.00980996    0.00045081    0.00929634
     atom   21 type  4   force =     0.01010072    0.00023255   -0.00938710
     atom   22 type  4   force =     0.00991620    0.00046523    0.00906596
     atom   23 type  5   force =     0.00000000    0.00000000    0.00000000
     The Hubbard contrib.    to forces
     atom    1 type  1   force =     0.00000000    0.00000000    0.00000000
     atom    2 type  1   force =     0.00000000    0.00000000    0.00000000
     atom    3 type  1   force =     0.00000000    0.00000000    0.00000000
     atom    4 type  1   force =     0.00000000    0.00000000    0.00000000
     atom    5 type  1   force =     0.00000000    0.00000000    0.00000000
     atom    6 type  2   force =     0.00000000    0.00000000    0.00000000
     atom    7 type  2   force =     0.00000000    0.00000000    0.00000000
     atom    8 type  3   force =     0.00000000    0.00000000    0.00000000
     atom    9 type  3   force =     0.00000000    0.00000000    0.00000000
     atom   10 type  3   force =     0.00000000    0.00000000    0.00000000
     atom   11 type  3   force =     0.00000000    0.00000000    0.00000000
     atom   12 type  3   force =     0.00000000    0.00000000    0.00000000
     atom   13 type  3   force =     0.00000000    0.00000000    0.00000000
     atom   14 type  3   force =     0.00000000    0.00000000    0.00000000
     atom   15 type  3   force =     0.00000000    0.00000000    0.00000000
     atom   16 type  3   force =     0.00000000    0.00000000    0.00000000
     atom   17 type  3   force =     0.00000000    0.00000000    0.00000000
     atom   18 type  4   force =     0.00000000    0.00000000    0.00000000
     atom   19 type  4   force =     0.00000000    0.00000000    0.00000000
     atom   20 type  4   force =     0.00000000    0.00000000    0.00000000
     atom   21 type  4   force =     0.00000000    0.00000000    0.00000000
     atom   22 type  4   force =     0.00000000    0.00000000    0.00000000
     atom   23 type  5   force =     0.00000000    0.00000000    0.00000000
     The SCF correction term to forces
     atom    1 type  1   force =    -0.00184584   -0.00045569    0.00287105
     atom    2 type  1   force =    -0.00712489    0.00518801    0.00721294
     atom    3 type  1   force =    -0.00800459   -0.00562395    0.00362410
     atom    4 type  1   force =     0.00636990    0.00305040    0.00807674
     atom    5 type  1   force =     0.00746490   -0.00432777    0.00188248
     atom    6 type  2   force =    -0.00452814   -0.00754472    0.02433185
     atom    7 type  2   force =    -0.00407539   -0.00156587    0.00025019
     atom    8 type  3   force =     0.00144418    0.00005500    0.01271019
     atom    9 type  3   force =    -0.00331341    0.00125771    0.01395626
     atom   10 type  3   force =    -0.00231384   -0.00812858    0.00448317
     atom   11 type  3   force =    -0.00132621    0.00120826   -0.00675840
     atom   12 type  3   force =    -0.00000389    0.00207059    0.00641289
     atom   13 type  3   force =    -0.00300715    0.00084919   -0.00674863
     atom   14 type  3   force =    -0.00019959   -0.00985710    0.00433944
     atom   15 type  3   force =     0.00222081    0.00309526   -0.00682946
     atom   16 type  3   force =    -0.00027890    0.00112029    0.00713811
     atom   17 type  3   force =     0.00099704    0.00306849   -0.00594074
     atom   18 type  4   force =    -0.00241625    0.01157260    0.01721389
     atom   19 type  4   force =    -0.00594202    0.00420433    0.00422417
     atom   20 type  4   force =     0.00332533   -0.00110118   -0.00818842
     atom   21 type  4   force =     0.00294679    0.00617752    0.00167214
     atom   22 type  4   force =    -0.00550508   -0.00337306   -0.00624641
     atom   23 type  5   force =     0.00051803    0.00085806    0.00075199

     Total force =     0.519452     Total SCF correction =     0.052321
     SCF correction compared to forces is large: reduce conv_thr to get better values


     Computing stress (Cartesian axis) and pressure


     negative rho (up, down):  9.090E-01 9.090E-01
          total   stress  (Ry/bohr**3)                   (kbar)     P=       83.80
   0.00067001   0.00000547   0.00000068           98.56        0.81        0.10
   0.00000547   0.00064405  -0.00001302            0.81       94.74       -1.92
   0.00000068  -0.00001302   0.00039485            0.10       -1.92       58.09


     Molecular Dynamics Calculation

     Starting temperature  =   300.00 K

     temperature is set once at start

     mass Hf               =   178.49
     mass Nb               =    92.91
     mass Ta               =   180.95
     mass Zr               =    91.22
     mass H                =     2.01
     Time step             =     4.20 a.u.,  0.2032 femto-seconds

     Entering Dynamics:    iteration =     1
                           time      =   0.0002 pico-seconds


ATOMIC_POSITIONS (angstrom)
Hf            2.6701085618        2.8271851305        6.6039645797
Hf            1.2530962522        1.2863464873        5.0584660912
Hf            1.2555923729        7.3898675565        5.0880678311
Hf            4.0871213742        1.2863466972        5.0584660930
Hf            4.0846258591        7.3898668501        5.0880678952
Nb            2.6701083698        2.7969926345        3.5155836289
Nb            2.6701082682        5.8764421751        6.6349973124
Ta            1.2094786114        4.3409908401        5.0711256765
Ta            4.1307404781        4.3409913264        5.0711257243
Ta            1.3073609503        1.3141846165        2.0587774250
Ta            1.3028966127        1.3084529966        8.0945808162
Ta            1.3041179955        7.3758900050        2.0462355938
Ta            1.3078191217        7.3651466541        8.0860040027
Ta            4.0328566850        1.3141845650        2.0587773793
Ta            4.0373210229        1.3084529554        8.0945808539
Ta            4.0360996306        7.3758901173        2.0462356161
Ta            4.0323984604        7.3651467643        8.0860039668
Zr            2.6701082633        5.8663498139        3.5273833412
Zr            1.2439362908        4.3221405094        1.9999935130
Zr            1.2404867553        4.3541864470        8.1497622326
Zr            4.0962812223        4.3221402366        1.9999934065
Zr            4.0997308344        4.3541863150        8.1497622402
H             5.6818596081        5.2356646241        5.0721812898


     kinetic energy (Ekin) =           8.09785715 Ry
     temperature           =       38743.95520174 K 
     Ekin + Etot (const)   =       -2934.97317311 Ry
     Ions kinetic stress =          143.02 (kbar)
                                    321.78         185.79           0.00
                                    185.79         107.27           0.00
                                      0.00           0.00           0.00



     Linear momentum :    0.0000000000   -0.0000000000    0.0000000000

     File outdir/pwscf.msd.dat deleted, as requested

     Writing config-only to output data dir outdir/pwscf.save/
     NEW-OLD atomic charge density approx. for the potential

     Check: negative core charge=   -0.000002

     negative rho (up, down):  9.089E-01 9.089E-01
     Generating pointlists ...
     new r_m :   0.0791 (alat units)  1.3958 (a.u.) for type    3
     new r_m :   0.0791 (alat units)  1.3958 (a.u.) for type    5

     total cpu time spent up to now is      415.3 secs

     Self-consistent Calculation

     iteration #  1     ecut=   120.00 Ry     beta= 0.70
     Davidson diagonalization with overlap
     ethr =  1.00E-06,  avg # of iterations =  6.0

     negative rho (up, down):  9.090E-01 9.090E-01

     total cpu time spent up to now is      449.0 secs

     total energy              =   -2943.06325751 Ry
     estimated scf accuracy    <       0.07192142 Ry

     total magnetization       =    -0.05 Bohr mag/cell
     absolute magnetization    =     0.06 Bohr mag/cell

     iteration #  2     ecut=   120.00 Ry     beta= 0.70
     Davidson diagonalization with overlap
     ethr =  2.60E-05,  avg # of iterations =  2.0

     negative rho (up, down):  9.090E-01 9.090E-01

     total cpu time spent up to now is      466.4 secs

     total energy              =   -2943.06837174 Ry
     estimated scf accuracy    <       0.03025324 Ry

     total magnetization       =    -0.05 Bohr mag/cell
     absolute magnetization    =     0.05 Bohr mag/cell

     iteration #  3     ecut=   120.00 Ry     beta= 0.70
     Davidson diagonalization with overlap
     ethr =  1.09E-05,  avg # of iterations =  1.0

     negative rho (up, down):  9.090E-01 9.090E-01

     total cpu time spent up to now is      481.6 secs

     total energy              =   -2943.07005550 Ry
     estimated scf accuracy    <       0.00223051 Ry

     total magnetization       =    -0.05 Bohr mag/cell
     absolute magnetization    =     0.05 Bohr mag/cell

     iteration #  4     ecut=   120.00 Ry     beta= 0.70
     Davidson diagonalization with overlap
     ethr =  8.05E-07,  avg # of iterations =  2.0

     negative rho (up, down):  9.090E-01 9.090E-01

     Magnetic moment per site  (integrated on atomic sphere of radius R)
     atom   1 (R=0.112)  charge=  9.4634  magn= -0.0000
     atom   2 (R=0.112)  charge=  9.0586  magn= -0.0001
     atom   3 (R=0.112)  charge=  9.0585  magn= -0.0001
     atom   4 (R=0.112)  charge=  9.0582  magn= -0.0000
     atom   5 (R=0.112)  charge=  9.0476  magn= -0.0002
     atom   6 (R=0.110)  charge= 10.3509  magn= -0.0000
     atom   7 (R=0.110)  charge= 10.3481  magn= -0.0002
     atom   8 (R=0.079)  charge=  7.1133  magn=  0.0000
     atom   9 (R=0.079)  charge=  7.1156  magn= -0.0001
     atom  10 (R=0.079)  charge=  7.0952  magn= -0.0007
     atom  11 (R=0.079)  charge=  7.0948  magn= -0.0005
     atom  12 (R=0.079)  charge=  7.0962  magn= -0.0006
     atom  13 (R=0.079)  charge=  7.0959  magn= -0.0002
     atom  14 (R=0.079)  charge=  7.0946  magn= -0.0006
     atom  15 (R=0.079)  charge=  7.0947  magn= -0.0006
     atom  16 (R=0.079)  charge=  7.0986  magn= -0.0014
     atom  17 (R=0.079)  charge=  7.0958  magn= -0.0005
     atom  18 (R=0.111)  charge=  9.4555  magn=  0.0001
     atom  19 (R=0.111)  charge=  8.9934  magn= -0.0012
     atom  20 (R=0.111)  charge=  8.9980  magn= -0.0003
     atom  21 (R=0.111)  charge=  8.9948  magn= -0.0014
     atom  22 (R=0.111)  charge=  8.9982  magn= -0.0004
     atom  23 (R=0.079)  charge=  0.9378  magn= -0.0001

     total cpu time spent up to now is      516.7 secs

     End of self-consistent calculation

 ------ SPIN UP ------------


          k = 0.0000 0.0000 0.0000 ( 61588 PWs)   bands (ev):

   -60.7757 -60.7669 -60.7307 -60.7221 -60.6963 -60.6920 -60.6525 -60.6481
   -60.5210 -60.2679 -54.3779 -54.3318 -54.2486 -54.2036 -52.7056 -46.2640
   -46.2578 -41.6372 -41.6331 -41.5465 -41.5353 -39.8138 -27.7777 -27.7699
   -27.6938 -27.6817 -27.5875 -27.5824 -27.4662 -27.4534 -27.3560 -27.3265
   -27.2885 -27.2632 -27.2512 -27.2307 -27.2188 -27.1676 -27.1576 -27.1382
   -27.0942 -26.9801 -26.9536 -26.9510 -26.9409 -26.9286 -26.9090 -26.8805
   -26.8789 -26.8523 -26.8520 -26.8155 -24.1651 -23.9503 -23.6578 -23.5630
   -23.3088 -23.1757 -23.1512 -23.0521 -22.9264 -22.8516 -22.8308 -22.6104
   -22.5056 -22.4544 -22.3958 -22.3478 -22.2773 -22.2292 -21.7612 -21.6957
   -21.6361 -20.2008 -19.9420 -19.8467 -19.8320 -19.6095 -19.6012 -19.5941
   -19.5805 -19.5747 -19.5374 -19.3754 -19.3715 -18.1582 -17.9581 -17.8272
     1.4336   2.8221   2.9340   3.1454   3.3081   3.4740   3.5395   3.6900
     3.7540   3.8803   3.9193   4.0725   4.2162   4.5146   4.5877   4.7037
     4.7778   4.8157   5.0291   5.0866   5.1531   5.2662   5.2878   5.3406
     5.4040   5.5571   5.6362   5.7314   5.7353   5.7588   5.7697   5.8120
     5.9461   6.1132   6.2005   6.2324   6.2581   6.3091   6.3653   6.3961
     6.4617   6.6035   6.6618   6.7280   6.8106   6.9580   7.0037   7.0534
     7.0996   7.1539   7.2547   7.2725   7.3240   7.4364   7.5607   7.5747
     7.6255   7.7516   7.9022   7.9048   8.0905   8.0980   8.1161   8.2184
     8.2661   8.2780   8.3583   8.3874   8.4748   8.5599   8.6472   8.6639
     8.8374   8.8995   8.9685   9.0714   9.1287   9.2428   9.2921

 ------ SPIN DOWN ----------


          k = 0.0000 0.0000 0.0000 ( 61588 PWs)   bands (ev):

   -60.7768 -60.7675 -60.7318 -60.7226 -60.6975 -60.6926 -60.6538 -60.6487
   -60.5210 -60.2681 -54.3780 -54.3319 -54.2487 -54.2037 -52.7056 -46.2640
   -46.2579 -41.6383 -41.6334 -41.5468 -41.5364 -39.8137 -27.7793 -27.7708
   -27.6955 -27.6825 -27.5889 -27.5835 -27.4672 -27.4551 -27.3565 -27.3274
   -27.2889 -27.2644 -27.2519 -27.2315 -27.2199 -27.1682 -27.1587 -27.1387
   -27.0944 -26.9806 -26.9552 -26.9518 -26.9422 -26.9297 -26.9095 -26.8818
   -26.8803 -26.8539 -26.8527 -26.8157 -24.1652 -23.9503 -23.6579 -23.5630
   -23.3089 -23.1759 -23.1514 -23.0522 -22.9265 -22.8516 -22.8308 -22.6104
   -22.5056 -22.4545 -22.3960 -22.3479 -22.2774 -22.2292 -21.7613 -21.6958
   -21.6361 -20.2020 -19.9421 -19.8479 -19.8331 -19.6104 -19.6019 -19.5946
   -19.5811 -19.5754 -19.5377 -19.3768 -19.3719 -18.1581 -17.9581 -17.8273
     1.4328   2.8215   2.9323   3.1449   3.3075   3.4720   3.5390   3.6896
     3.7532   3.8799   3.9172   4.0717   4.2152   4.5140   4.5870   4.7023
     4.7769   4.8149   5.0277   5.0854   5.1524   5.2653   5.2868   5.3393
     5.4025   5.5564   5.6355   5.7303   5.7344   5.7579   5.7693   5.8113
     5.9455   6.1114   6.1997   6.2315   6.2572   6.3080   6.3645   6.3949
     6.4602   6.6027   6.6607   6.7269   6.8094   6.9564   7.0005   7.0508
     7.0944   7.1514   7.2504   7.2692   7.3226   7.4318   7.5596   7.5719
     7.6233   7.7497   7.9009   7.9034   8.0878   8.0961   8.1147   8.2146
     8.2643   8.2770   8.3553   8.3858   8.4736   8.5582   8.6457   8.6626
     8.8363   8.8959   8.9670   9.0702   9.1272   9.2420   9.2789

     the Fermi energy is     7.2346 ev

!    total energy              =   -2943.06993734 Ry
     estimated scf accuracy    <       0.00045101 Ry
     smearing contrib. (-TS)   =      -0.09928718 Ry
     internal energy E=F+TS    =   -2942.97065016 Ry

     total magnetization       =    -0.05 Bohr mag/cell
     absolute magnetization    =     0.05 Bohr mag/cell

     convergence has been achieved in   4 iterations

     negative rho (up, down):  9.090E-01 9.090E-01

     Forces acting on atoms (cartesian axes, Ry/au):

     atom    1 type  1   force =    -0.01068291   -0.02809406    0.01633983
     atom    2 type  1   force =    -0.11871097   -0.01792614    0.00150419
     atom    3 type  1   force =    -0.12119863    0.01314576    0.00583830
     atom    4 type  1   force =     0.11905442   -0.01259780    0.00189870
     atom    5 type  1   force =     0.13713884   -0.00980359    0.00679064
     atom    6 type  2   force =    -0.00869062   -0.01740104    0.00528512
     atom    7 type  2   force =    -0.00932199    0.01186956   -0.01285895
     atom    8 type  3   force =    -0.11903970    0.00531327   -0.00206998
     atom    9 type  3   force =     0.12501238   -0.00658621    0.00112425
     atom   10 type  3   force =    -0.02172307   -0.03108218   -0.05999809
     atom   11 type  3   force =    -0.01985913   -0.03430325    0.05252382
     atom   12 type  3   force =    -0.01700567    0.03690182   -0.05657722
     atom   13 type  3   force =    -0.02057593    0.03010518    0.05930473
     atom   14 type  3   force =     0.02173012   -0.03406063   -0.06214416
     atom   15 type  3   force =     0.02052146   -0.03536815    0.05379909
     atom   16 type  3   force =     0.01690675    0.04035132   -0.05524657
     atom   17 type  3   force =     0.01862342    0.03495836    0.05862414
     atom   18 type  4   force =    -0.00952912    0.02527384   -0.00852993
     atom   19 type  4   force =    -0.13057402   -0.00432160   -0.11487784
     atom   20 type  4   force =    -0.13306312    0.00461554    0.11349644
     atom   21 type  4   force =     0.12717680   -0.00821659   -0.11762683
     atom   22 type  4   force =     0.13095244    0.00196371    0.11460178
     atom   23 type  5   force =     0.02285824    0.03526288   -0.00120148
     The non-local contrib.  to forces
     atom    1 type  1   force =    -0.00234624   -0.01011096    0.02834669
     atom    2 type  1   force =    -0.24821416   -0.16143502    0.01980510
     atom    3 type  1   force =    -0.24242816    0.15416845   -0.02467392
     atom    4 type  1   force =     0.24871545   -0.16442343    0.01984440
     atom    5 type  1   force =     0.25194265    0.14463785   -0.02514729
     atom    6 type  2   force =     0.00484034   -0.05012635   -0.07100772
     atom    7 type  2   force =    -0.01796142    0.06329260    0.06168706
     atom    8 type  3   force =    -0.26040364    0.00176092   -0.00085803
     atom    9 type  3   force =     0.05054866   -0.10316955   -0.00527987
     atom   10 type  3   force =    -0.21015536    0.00270658   -0.20988128
     atom   11 type  3   force =    -0.21490827    0.00372524    0.19747851
     atom   12 type  3   force =    -0.20326676   -0.02044259   -0.17663766
     atom   13 type  3   force =    -0.21239681   -0.00403625    0.20583856
     atom   14 type  3   force =     0.20168614   -0.00097074   -0.21635071
     atom   15 type  3   force =     0.21030613    0.00459982    0.20018576
     atom   16 type  3   force =     0.21352670   -0.02511233   -0.17507757
     atom   17 type  3   force =     0.22006281   -0.00865650    0.20344806
     atom   18 type  4   force =    -0.01885667    0.05700309   -0.05947111
     atom   19 type  4   force =     0.06335954    0.00876396    0.07120432
     atom   20 type  4   force =     0.05906873   -0.01551562   -0.06870205
     atom   21 type  4   force =    -0.06167050    0.01007212    0.07321470
     atom   22 type  4   force =    -0.05718928   -0.01387240   -0.06549709
     atom   23 type  5   force =    -0.05447525   -0.02424210   -0.00013741
     The ionic contribution  to forces
     atom    1 type  1   force =    -0.19380193   -4.71643585   14.08740881
     atom    2 type  1   force =   -39.67754819   -6.13919555    0.77974511
     atom    3 type  1   force =   -39.66975623    6.20331839   -0.71333594
     atom    4 type  1   force =    39.50672681   -6.20893400    0.77897749
     atom    5 type  1   force =    39.11439842    6.74893574   -0.70913599
     atom    6 type  2   force =    -0.20524948   -3.68202699  -13.99007903
     atom    7 type  2   force =    -0.40220266    3.65230195   14.13401182
     atom    8 type  3   force =   -52.12853958   -0.00133786   -0.06497626
     atom    9 type  3   force =    50.16586908   -1.02174885   -0.06619039
     atom   10 type  3   force =   -36.05415021   -2.09660786  -23.09860577
     atom   11 type  3   force =   -35.12826244   -0.84940569   22.10284914
     atom   12 type  3   force =   -35.24650780    0.84118292  -22.17829076
     atom   13 type  3   force =   -36.03684160    2.22537135   23.10798031
     atom   14 type  3   force =    35.95632030   -2.11963572  -23.15998965
     atom   15 type  3   force =    35.03116530   -0.87204163   22.16409900
     atom   16 type  3   force =    35.07493795    0.94451070  -22.33184958
     atom   17 type  3   force =    35.86293104    2.32975732   23.26320403
     atom   18 type  4   force =    -0.37516614    4.41981613  -14.04739116
     atom   19 type  4   force =   -35.90017758    0.92339697  -25.58908504
     atom   20 type  4   force =   -35.88307240   -0.98622321   25.56739792
     atom   21 type  4   force =    35.67964711    0.84795065  -25.83902348
     atom   22 type  4   force =    35.66232068   -1.05952496   25.81928577
     atom   23 type  5   force =     4.84695954    0.61657607   -0.01700638
     The local contribution  to forces
     atom    1 type  1   force =     0.18299689    4.69375862  -14.08552302
     atom    2 type  1   force =    39.81041462    6.28397132   -0.78468281
     atom    3 type  1   force =    39.79704404   -6.34499196    0.75582717
     atom    4 type  1   force =   -39.64374231    6.36149203   -0.78271587
     atom    5 type  1   force =   -39.24161853   -6.90528590    0.75088692
     atom    6 type  2   force =     0.18740944    3.70288301   14.08256623
     atom    7 type  2   force =     0.40539258   -3.70332960  -14.19755891
     atom    8 type  3   force =    52.29651200    0.00346782    0.08590634
     atom    9 type  3   force =   -50.08534229    1.14096365    0.09455294
     atom   10 type  3   force =    36.25730213    2.04290243   23.26909974
     atom   11 type  3   force =    35.34119757    0.80280505  -22.27544280
     atom   12 type  3   force =    35.45155464   -0.76792770   22.31547695
     atom   13 type  3   force =    36.24182381   -2.17934409  -23.27804716
     atom   14 type  3   force =   -36.15324118    2.06293143   23.33166331
     atom   15 type  3   force =   -35.23861025    0.82401426  -22.33551377
     atom   16 type  3   force =   -35.29237819   -0.86127115   22.46723843
     atom   17 type  3   force =   -36.08301931   -2.27037971  -23.42785839
     atom   18 type  4   force =     0.38160424   -4.43630626   14.10766190
     atom   19 type  4   force =    35.70707410   -0.93296824   25.41559554
     atom   20 type  4   force =    35.69728733    1.00412672  -25.40554770
     atom   21 type  4   force =   -35.49515460   -0.86118722   25.65874990
     atom   22 type  4   force =   -35.48404939    1.07019871  -25.65701347
     atom   23 type  5   force =    -4.77252649   -0.55882443    0.01808343
     The core correction contribution to forces
     atom    1 type  1   force =    -0.00001378    0.00197459   -0.00228975
     atom    2 type  1   force =    -0.01143728   -0.00153606    0.00078041
     atom    3 type  1   force =    -0.01251266    0.00283125   -0.00135636
     atom    4 type  1   force =     0.01187909   -0.00229047    0.00079020
     atom    5 type  1   force =     0.00882816    0.00679585   -0.00186010
     atom    6 type  2   force =    -0.00026650    0.00238569    0.00293771
     atom    7 type  2   force =     0.00064788   -0.00300667   -0.00238336
     atom    8 type  3   force =    -0.03128049    0.00082447   -0.00077678
     atom    9 type  3   force =     0.00824237   -0.01310717   -0.00076828
     atom   10 type  3   force =    -0.02195249    0.00917931   -0.01725555
     atom   11 type  3   force =    -0.02381594    0.00914156    0.01769831
     atom   12 type  3   force =    -0.02256529   -0.01004101   -0.01527844
     atom   13 type  3   force =    -0.02281797   -0.00927336    0.01653408
     atom   14 type  3   force =     0.02193163    0.00982511   -0.01608386
     atom   15 type  3   force =     0.02309928    0.01031899    0.01631138
     atom   16 type  3   force =     0.02343396   -0.01153330   -0.01395209
     atom   17 type  3   force =     0.02311553   -0.01021530    0.01537151
     atom   18 type  4   force =     0.00088479   -0.00294137    0.00287562
     atom   19 type  4   force =    -0.00994274    0.00010516   -0.00942191
     atom   20 type  4   force =    -0.00983543    0.00045779    0.00936016
     atom   21 type  4   force =     0.01004771    0.00017554   -0.00940254
     atom   22 type  4   force =     0.00986831    0.00043982    0.00903308
     atom   23 type  5   force =     0.00000000    0.00000000    0.00000000
     The Hubbard contrib.    to forces
     atom    1 type  1   force =     0.00000000    0.00000000    0.00000000
     atom    2 type  1   force =     0.00000000    0.00000000    0.00000000
     atom    3 type  1   force =     0.00000000    0.00000000    0.00000000
     atom    4 type  1   force =     0.00000000    0.00000000    0.00000000
     atom    5 type  1   force =     0.00000000    0.00000000    0.00000000
     atom    6 type  2   force =     0.00000000    0.00000000    0.00000000
     atom    7 type  2   force =     0.00000000    0.00000000    0.00000000
     atom    8 type  3   force =     0.00000000    0.00000000    0.00000000
     atom    9 type  3   force =     0.00000000    0.00000000    0.00000000
     atom   10 type  3   force =     0.00000000    0.00000000    0.00000000
     atom   11 type  3   force =     0.00000000    0.00000000    0.00000000
     atom   12 type  3   force =     0.00000000    0.00000000    0.00000000
     atom   13 type  3   force =     0.00000000    0.00000000    0.00000000
     atom   14 type  3   force =     0.00000000    0.00000000    0.00000000
     atom   15 type  3   force =     0.00000000    0.00000000    0.00000000
     atom   16 type  3   force =     0.00000000    0.00000000    0.00000000
     atom   17 type  3   force =     0.00000000    0.00000000    0.00000000
     atom   18 type  4   force =     0.00000000    0.00000000    0.00000000
     atom   19 type  4   force =     0.00000000    0.00000000    0.00000000
     atom   20 type  4   force =     0.00000000    0.00000000    0.00000000
     atom   21 type  4   force =     0.00000000    0.00000000    0.00000000
     atom   22 type  4   force =     0.00000000    0.00000000    0.00000000
     atom   23 type  5   force =     0.00000000    0.00000000    0.00000000
     The SCF correction term to forces
     atom    1 type  1   force =     0.00229337    0.00285193   -0.01080863
     atom    2 type  1   force =     0.00788525    0.00040155   -0.01334935
     atom    3 type  1   force =     0.00626559   -0.00204800   -0.00982838
     atom    4 type  1   force =    -0.00471341    0.00169044   -0.01420325
     atom    5 type  1   force =     0.00339935   -0.00475475   -0.00715863
     atom    6 type  2   force =     0.00438678    0.00961599   -0.01833779
     atom    7 type  2   force =     0.00461286    0.00274365   -0.00782129
     atom    8 type  3   force =     0.00448322    0.00073031   -0.02057099
     atom    9 type  3   force =    -0.01449424   -0.00939191   -0.02039589
     atom   10 type  3   force =     0.00704407    0.01086974   -0.00256097
     atom   11 type  3   force =     0.00574116   -0.00043703    0.01073492
     atom   12 type  3   force =     0.00359075   -0.00573742   -0.00105305
     atom   13 type  3   force =     0.00946786   -0.00248009    0.00779320
     atom   14 type  3   force =    -0.00515556    0.01392166   -0.00058899
     atom   15 type  3   force =    -0.00562779   -0.00212722    0.00951099
     atom   16 type  3   force =    -0.00280246   -0.00611023   -0.00081149
     atom   17 type  3   force =    -0.00465544   -0.00541506    0.00525320
     atom   18 type  4   force =     0.00181587   -0.01216537   -0.01141090
     atom   19 type  4   force =     0.00892388   -0.00348707   -0.00237649
     atom   20 type  4   force =     0.00329987    0.00190225    0.01178238
     atom   21 type  4   force =    -0.00588171   -0.00509530   -0.00037114
     atom   22 type  4   force =    -0.00018667    0.00485492    0.00958776
     atom   23 type  5   force =     0.00271164    0.00188572   -0.00134685

     Total force =     0.507295     Total SCF correction =     0.065102
     SCF correction compared to forces is large: reduce conv_thr to get better values


     Computing stress (Cartesian axis) and pressure


     negative rho (up, down):  9.090E-01 9.090E-01
          total   stress  (Ry/bohr**3)                   (kbar)     P=       84.24
   0.00068271   0.00001871   0.00000081          100.43        2.75        0.12
   0.00001871   0.00064907  -0.00001163            2.75       95.48       -1.71
   0.00000081  -0.00001163   0.00038615            0.12       -1.71       56.80


     Entering Dynamics:    iteration =     2
                           time      =   0.0004 pico-seconds


ATOMIC_POSITIONS (angstrom)
Hf            2.6702165537        2.8272456197        6.6039658784
Hf            1.2531950127        1.2864077647        5.0584660427
Hf            1.2556908930        7.3899315726        5.0880682297
Hf            4.0872403459        1.2864084902        5.0584660688
Hf            4.0847465717        7.3899288428        5.0880684127
Nb            2.6702158245        2.7970527454        3.5155846238
Nb            2.6702155517        5.8765069823        6.6349952640
Ta            1.2095774291        4.3410541293        5.0711254036
Ta            4.1308611739        4.3410544285        5.0711256798
Ta            1.3074679869        1.3142448843        2.0587723440
Ta            1.3030037871        1.3085129156        8.0945854029
Ta            1.3042254063        7.3759559746        2.0462308055
Ta            1.3079262804        7.3652120638        8.0860091412
Ta            4.0329673701        1.3142446128        2.0587721312
Ta            4.0374316075        1.3085127730        8.0945855505
Ta            4.0362099263        7.3759563944        2.0462309254
Ta            4.0325088594        7.3652125589        8.0860090310
Zr            2.6702154998        5.8664166218        3.5273817944
Zr            1.2440233031        4.3222025690        1.9999741288
Zr            1.2405731590        4.3542501278        8.1497816580
Zr            4.0964114277        4.3222015862        1.9999736072
Zr            4.0998618693        4.3542495660        8.1497817974
H             5.5011577899        5.1315086176        5.0721766751


     kinetic energy (Ekin) =           8.09511196 Ry
     temperature           =       38730.82090488 K 
     Ekin + Etot (const)   =       -2934.97482538 Ry
     Ions kinetic stress =          142.97 (kbar)
                                    321.86         185.62           0.00
                                    185.62         107.05           0.00
                                      0.00           0.00           0.00



     Linear momentum :   -0.0000000000   -0.0000000000    0.0000000000

     Writing config-only to output data dir outdir/pwscf.save/
     NEW-OLD atomic charge density approx. for the potential

     Check: negative core charge=   -0.000002

     negative rho (up, down):  9.089E-01 9.089E-01
     Generating pointlists ...
     new r_m :   0.0699 (alat units)  1.2331 (a.u.) for type    3
     new r_m :   0.0699 (alat units)  1.2331 (a.u.) for type    5

     total cpu time spent up to now is      571.0 secs

     Self-consistent Calculation

     iteration #  1     ecut=   120.00 Ry     beta= 0.70
     Davidson diagonalization with overlap
     c_bands:  1 eigenvalues not converged
     ethr =  1.00E-06,  avg # of iterations = 13.0

     negative rho (up, down):  9.090E-01 9.090E-01

     total cpu time spent up to now is      605.6 secs

     total energy              =   -2943.02190034 Ry
     estimated scf accuracy    <       0.09874378 Ry

     total magnetization       =    -0.04 Bohr mag/cell
     absolute magnetization    =     0.05 Bohr mag/cell

     iteration #  2     ecut=   120.00 Ry     beta= 0.70
     Davidson diagonalization with overlap
     ethr =  3.56E-05,  avg # of iterations =  2.0

     negative rho (up, down):  9.090E-01 9.090E-01

     total cpu time spent up to now is      622.4 secs

     total energy              =   -2943.02927571 Ry
     estimated scf accuracy    <       0.03974063 Ry

     total magnetization       =    -0.04 Bohr mag/cell
     absolute magnetization    =     0.05 Bohr mag/cell

     iteration #  3     ecut=   120.00 Ry     beta= 0.70
     Davidson diagonalization with overlap
     ethr =  1.43E-05,  avg # of iterations =  1.0

     negative rho (up, down):  9.089E-01 9.089E-01

     total cpu time spent up to now is      637.7 secs

     total energy              =   -2943.03157754 Ry
     estimated scf accuracy    <       0.00295881 Ry

     total magnetization       =    -0.04 Bohr mag/cell
     absolute magnetization    =     0.05 Bohr mag/cell

     iteration #  4     ecut=   120.00 Ry     beta= 0.70
     Davidson diagonalization with overlap
     ethr =  1.07E-06,  avg # of iterations =  7.5

     negative rho (up, down):  9.088E-01 9.088E-01

     Magnetic moment per site  (integrated on atomic sphere of radius R)
     atom   1 (R=0.112)  charge=  9.4627  magn= -0.0001
     atom   2 (R=0.112)  charge=  9.0595  magn= -0.0001
     atom   3 (R=0.112)  charge=  9.0593  magn= -0.0001
     atom   4 (R=0.112)  charge=  9.0598  magn= -0.0001
     atom   5 (R=0.112)  charge=  9.0496  magn= -0.0002
     atom   6 (R=0.110)  charge= 10.3507  magn=  0.0000
     atom   7 (R=0.110)  charge= 10.3478  magn= -0.0001
     atom   8 (R=0.070)  charge=  5.8221  magn=  0.0000
     atom   9 (R=0.070)  charge=  5.8400  magn= -0.0000
     atom  10 (R=0.070)  charge=  5.8086  magn= -0.0004
     atom  11 (R=0.070)  charge=  5.8070  magn= -0.0003
     atom  12 (R=0.070)  charge=  5.8068  magn= -0.0004
     atom  13 (R=0.070)  charge=  5.8094  magn= -0.0002
     atom  14 (R=0.070)  charge=  5.8055  magn= -0.0004
     atom  15 (R=0.070)  charge=  5.8039  magn= -0.0003
     atom  16 (R=0.070)  charge=  5.8050  magn= -0.0008
     atom  17 (R=0.070)  charge=  5.8062  magn= -0.0004
     atom  18 (R=0.111)  charge=  9.4556  magn=  0.0001
     atom  19 (R=0.111)  charge=  9.0026  magn= -0.0012
     atom  20 (R=0.111)  charge=  8.9951  magn= -0.0003
     atom  21 (R=0.111)  charge=  9.0058  magn= -0.0017
     atom  22 (R=0.111)  charge=  8.9955  magn= -0.0005
     atom  23 (R=0.070)  charge=  0.8976  magn= -0.0000

     total cpu time spent up to now is      667.8 secs

     End of self-consistent calculation

 ------ SPIN UP ------------


          k = 0.0000 0.0000 0.0000 ( 61588 PWs)   bands (ev):

   -60.7770 -60.7705 -60.7320 -60.7256 -60.6942 -60.6932 -60.6503 -60.6490
   -60.5084 -60.1352 -54.3912 -54.3461 -54.2602 -54.2150 -52.7276 -46.2649
   -46.2507 -41.6536 -41.6270 -41.5522 -41.5422 -39.8085 -27.7791 -27.7731
   -27.6950 -27.6852 -27.5898 -27.5853 -27.4678 -27.4498 -27.3490 -27.3277
   -27.2798 -27.2654 -27.2528 -27.2282 -27.2163 -27.1645 -27.1557 -27.1303
   -27.0837 -26.9543 -26.9536 -26.9495 -26.9411 -26.8880 -26.8810 -26.8648
   -26.8512 -26.8425 -26.8140 -26.7858 -24.1739 -23.9602 -23.6652 -23.5759
   -23.3186 -23.1833 -23.1615 -23.0601 -22.9344 -22.8664 -22.8405 -22.6236
   -22.5057 -22.4522 -22.4011 -22.3501 -22.2793 -22.2299 -21.7775 -21.7110
   -21.6551 -20.2165 -19.9364 -19.8612 -19.8475 -19.6200 -19.6033 -19.5978
   -19.5837 -19.5740 -19.5371 -19.3932 -19.3658 -18.1534 -17.9549 -17.8276
     1.3735   2.5946   2.9295   3.1429   3.2982   3.4735   3.5342   3.6881
     3.7494   3.8834   3.9160   4.0597   4.2056   4.5109   4.5523   4.7010
     4.7741   4.7896   5.0254   5.0744   5.1449   5.2633   5.2832   5.3314
     5.3957   5.5536   5.6506   5.7284   5.7370   5.7543   5.7734   5.8092
     5.9412   6.1145   6.2000   6.2319   6.2576   6.3292   6.3617   6.3919
     6.4501   6.6022   6.6621   6.7304   6.8112   6.9533   6.9946   7.0503
     7.0976   7.1506   7.2350   7.2703   7.3247   7.4312   7.5555   7.5627
     7.6232   7.7524   7.8982   7.9042   8.0847   8.0934   8.1123   8.2136
     8.2615   8.2759   8.3558   8.3827   8.4851   8.5527   8.6420   8.6611
     8.8358   8.8985   8.9754   9.0683   9.1177   9.2509   9.2911

 ------ SPIN DOWN ----------


          k = 0.0000 0.0000 0.0000 ( 61588 PWs)   bands (ev):

   -60.7779 -60.7711 -60.7329 -60.7261 -60.6948 -60.6943 -60.6509 -60.6501
   -60.5084 -60.1353 -54.3912 -54.3461 -54.2603 -54.2151 -52.7276 -46.2650
   -46.2507 -41.6548 -41.6274 -41.5533 -41.5425 -39.8085 -27.7805 -27.7740
   -27.6965 -27.6860 -27.5909 -27.5864 -27.4687 -27.4513 -27.3495 -27.3284
   -27.2800 -27.2664 -27.2535 -27.2289 -27.2173 -27.1651 -27.1568 -27.1307
   -27.0838 -26.9555 -26.9544 -26.9503 -26.9425 -26.8889 -26.8825 -26.8655
   -26.8524 -26.8431 -26.8142 -26.7860 -24.1740 -23.9602 -23.6653 -23.5759
   -23.3187 -23.1835 -23.1616 -23.0602 -22.9344 -22.8664 -22.8405 -22.6236
   -22.5058 -22.4522 -22.4012 -22.3502 -22.2795 -22.2300 -21.7776 -21.7110
   -21.6551 -20.2177 -19.9366 -19.8623 -19.8485 -19.6214 -19.6042 -19.5982
   -19.5841 -19.5745 -19.5375 -19.3947 -19.3663 -18.1534 -17.9549 -17.8277
     1.3728   2.5941   2.9280   3.1424   3.2978   3.4717   3.5338   3.6877
     3.7487   3.8830   3.9142   4.0591   4.2047   4.5103   4.5517   4.6997
     4.7733   4.7888   5.0242   5.0732   5.1443   5.2625   5.2823   5.3304
     5.3942   5.5530   5.6499   5.7274   5.7361   5.7535   5.7730   5.8086
     5.9406   6.1129   6.1993   6.2311   6.2568   6.3282   6.3610   6.3908
     6.4487   6.6015   6.6612   6.7295   6.8102   6.9518   6.9920   7.0478
     7.0929   7.1486   7.2310   7.2674   7.3235   7.4272   7.5540   7.5604
     7.6213   7.7507   7.8972   7.9030   8.0823   8.0918   8.1110   8.2104
     8.2599   8.2749   8.3532   8.3813   8.4841   8.5511   8.6407   8.6599
     8.8348   8.8954   8.9740   9.0671   9.1166   9.2505   9.2719

     the Fermi energy is     7.2294 ev

!    total energy              =   -2943.03132458 Ry
     estimated scf accuracy    <       0.00064869 Ry
     smearing contrib. (-TS)   =      -0.09952158 Ry
     internal energy E=F+TS    =   -2942.93180300 Ry

     total magnetization       =    -0.04 Bohr mag/cell
     absolute magnetization    =     0.05 Bohr mag/cell

     convergence has been achieved in   4 iterations

     negative rho (up, down):  9.088E-01 9.088E-01

     Forces acting on atoms (cartesian axes, Ry/au):

     atom    1 type  1   force =    -0.00918511   -0.02798581    0.01319753
     atom    2 type  1   force =    -0.11358231   -0.01758795   -0.00805624
     atom    3 type  1   force =    -0.11602709    0.01296069   -0.00115336
     atom    4 type  1   force =     0.11533694   -0.01254496   -0.00802442
     atom    5 type  1   force =     0.12919253   -0.00809309    0.00070854
     atom    6 type  2   force =    -0.00913349   -0.01811776    0.00595809
     atom    7 type  2   force =    -0.00802275    0.01357777   -0.01108670
     atom    8 type  3   force =    -0.12259943    0.00684825   -0.00753641
     atom    9 type  3   force =     0.01214508   -0.07721567   -0.00216679
     atom   10 type  3   force =    -0.01975413   -0.02668373   -0.05836225
     atom   11 type  3   force =    -0.01750396   -0.03336266    0.05826031
     atom   12 type  3   force =    -0.01672074    0.03451858   -0.05518141
     atom   13 type  3   force =    -0.01745683    0.02833170    0.06464081
     atom   14 type  3   force =     0.01926321   -0.02933317   -0.06010106
     atom   15 type  3   force =     0.01748340   -0.03495671    0.05950004
     atom   16 type  3   force =     0.01582085    0.03756856   -0.05361407
     atom   17 type  3   force =     0.01572842    0.03225154    0.06330013
     atom   18 type  4   force =    -0.00759067    0.02230615   -0.01108341
     atom   19 type  4   force =    -0.12715939   -0.00545904   -0.11420268
     atom   20 type  4   force =    -0.13192804    0.00505542    0.12030213
     atom   21 type  4   force =     0.12219046   -0.00917779   -0.11611541
     atom   22 type  4   force =     0.12890171    0.00413909    0.12071541
     atom   23 type  5   force =     0.14060134    0.10296059    0.00010123
     The non-local contrib.  to forces
     atom    1 type  1   force =     0.00097262   -0.00631550    0.02197791
     atom    2 type  1   force =    -0.24357046   -0.16254353    0.01363840
     atom    3 type  1   force =    -0.23853011    0.15489652   -0.02959535
     atom    4 type  1   force =     0.24584310   -0.16583493    0.01368879
     atom    5 type  1   force =     0.25298577    0.14217207   -0.02946405
     atom    6 type  2   force =     0.00547670   -0.04813524   -0.07363690
     atom    7 type  2   force =    -0.01630674    0.06270035    0.06132451
     atom    8 type  3   force =    -0.25415422    0.00006434   -0.00718612
     atom    9 type  3   force =     0.02692824   -0.12074777   -0.00904050
     atom   10 type  3   force =    -0.20909900    0.00442867   -0.21187277
     atom   11 type  3   force =    -0.21547484    0.00395143    0.20286958
     atom   12 type  3   force =    -0.20186940   -0.02173370   -0.17703087
     atom   13 type  3   force =    -0.21024243   -0.00493414    0.21006096
     atom   14 type  3   force =     0.19934238    0.00172052   -0.21686855
     atom   15 type  3   force =     0.21006954    0.00475220    0.20466363
     atom   16 type  3   force =     0.21070663   -0.02526550   -0.17688848
     atom   17 type  3   force =     0.21727606   -0.00934900    0.20783670
     atom   18 type  4   force =    -0.01712076    0.05271233   -0.06332865
     atom   19 type  4   force =     0.06666267    0.00885385    0.06967322
     atom   20 type  4   force =     0.06137250   -0.01505466   -0.06550692
     atom   21 type  4   force =    -0.06261247    0.00956207    0.07028353
     atom   22 type  4   force =    -0.05783983   -0.01183232   -0.06060859
     atom   23 type  5   force =    -0.07593646   -0.03808729   -0.00019645
     The ionic contribution  to forces
     atom    1 type  1   force =    -0.22319219   -4.73890693   14.10643784
     atom    2 type  1   force =   -39.69399527   -6.14690318    0.77972871
     atom    3 type  1   force =   -39.69725908    6.20630494   -0.71332573
     atom    4 type  1   force =    39.51000151   -6.24439771    0.77885568
     atom    5 type  1   force =    39.16081426    6.78994253   -0.70902156
     atom    6 type  2   force =    -0.23609393   -3.70600249  -14.01034921
     atom    7 type  2   force =    -0.44599358    3.68232909   14.16607561
     atom    8 type  3   force =   -52.18154987    0.00294467   -0.06498916
     atom    9 type  3   force =    49.60492596   -1.34493894   -0.06680076
     atom   10 type  3   force =   -36.06386961   -2.10094968  -23.10014622
     atom   11 type  3   force =   -35.13796117   -0.85373273   22.10436532
     atom   12 type  3   force =   -35.25993507    0.84229868  -22.17818724
     atom   13 type  3   force =   -36.05032927    2.22653514   23.10789205
     atom   14 type  3   force =    35.95958235   -2.13182365  -23.16760045
     atom   15 type  3   force =    35.03448911   -0.88416674   22.17164726
     atom   16 type  3   force =    35.08741997    0.95182693  -22.33516970
     atom   17 type  3   force =    35.87544791    2.33727807   23.26663591
     atom   18 type  4   force =    -0.41639601    4.44771079  -14.07717206
     atom   19 type  4   force =   -35.91803399    0.92590638  -25.59246523
     atom   20 type  4   force =   -35.90094234   -0.98358561   25.57071037
     atom   21 type  4   force =    35.68244369    0.84999073  -25.87612581
     atom   22 type  4   force =    35.66535571   -1.05690558   25.85628440
     atom   23 type  5   force =     5.64507091    0.92924529   -0.01728002
     The local contribution  to forces
     atom    1 type  1   force =     0.21322273    4.71179686  -14.11889339
     atom    2 type  1   force =    39.84463527    6.29240623   -0.82087249
     atom    3 type  1   force =    39.84128114   -6.34885744    0.72688310
     atom    4 type  1   force =   -39.66044700    6.39996742   -0.82071281
     atom    5 type  1   force =   -39.30745562   -6.94203388    0.72694711
     atom    6 type  2   force =     0.22406902    3.73931003   14.05800747
     atom    7 type  2   force =     0.45697705   -3.72392180  -14.24044374
     atom    8 type  3   force =    52.34829977    0.00304844    0.03766679
     atom    9 type  3   force =   -49.61946048    1.41072971    0.04509579
     atom   10 type  3   force =    36.28243100    2.07523434   23.27184395
     atom   11 type  3   force =    35.37052449    0.81087354  -22.25778167
     atom   12 type  3   force =    35.47257587   -0.78591756   22.31495460
     atom   13 type  3   force =    36.27827109   -2.18957196  -23.25967083
     atom   14 type  3   force =   -36.16638315    2.10696550   23.34081510
     atom   15 type  3   force =   -35.25949848    0.83532278  -22.32339630
     atom   16 type  3   force =   -35.30894479   -0.88847831   22.47111334
     atom   17 type  3   force =   -36.10789228   -2.29253619  -23.41744130
     atom   18 type  4   force =     0.42725473   -4.48554001   14.10401041
     atom   19 type  4   force =    35.74735578   -0.94307504   25.41201623
     atom   20 type  4   force =    35.72759823    1.00442178  -25.37741913
     atom   21 type  4   force =   -35.51811355   -0.87173557   25.69447624
     atom   22 type  4   force =   -35.49679393    1.07643594  -25.66761192
     atom   23 type  5   force =    -5.43189757   -0.79004827    0.01438663
     The core correction contribution to forces
     atom    1 type  1   force =     0.00021059    0.00228050   -0.00269806
     atom    2 type  1   force =    -0.01125582   -0.00160857    0.00068923
     atom    3 type  1   force =    -0.01231376    0.00300295   -0.00136200
     atom    4 type  1   force =     0.01172769   -0.00251048    0.00074248
     atom    5 type  1   force =     0.00970645    0.00586430   -0.00192701
     atom    6 type  2   force =    -0.00024215    0.00238417    0.00314096
     atom    7 type  2   force =     0.00061894   -0.00295490   -0.00240911
     atom    8 type  3   force =    -0.03078157    0.00069548   -0.00084782
     atom    9 type  3   force =     0.00552809   -0.01497608   -0.00025414
     atom   10 type  3   force =    -0.02188501    0.00913048   -0.01734499
     atom   11 type  3   force =    -0.02380530    0.00925462    0.01786857
     atom   12 type  3   force =    -0.02258140   -0.01010333   -0.01524132
     atom   13 type  3   force =    -0.02287888   -0.00936187    0.01662951
     atom   14 type  3   force =     0.02188837    0.00968208   -0.01624944
     atom   15 type  3   force =     0.02333679    0.01031539    0.01666433
     atom   16 type  3   force =     0.02304983   -0.01125876   -0.01416720
     atom   17 type  3   force =     0.02286101   -0.00994443    0.01570660
     atom   18 type  4   force =     0.00085732   -0.00285814    0.00290279
     atom   19 type  4   force =    -0.00999793    0.00005982   -0.00939958
     atom   20 type  4   force =    -0.00986878    0.00044130    0.00939240
     atom   21 type  4   force =     0.00996777    0.00013357   -0.00930367
     atom   22 type  4   force =     0.00980004    0.00034209    0.00895654
     atom   23 type  5   force =     0.00000000    0.00000000    0.00000000
     The Hubbard contrib.    to forces
     atom    1 type  1   force =     0.00000000    0.00000000    0.00000000
     atom    2 type  1   force =     0.00000000    0.00000000    0.00000000
     atom    3 type  1   force =     0.00000000    0.00000000    0.00000000
     atom    4 type  1   force =     0.00000000    0.00000000    0.00000000
     atom    5 type  1   force =     0.00000000    0.00000000    0.00000000
     atom    6 type  2   force =     0.00000000    0.00000000    0.00000000
     atom    7 type  2   force =     0.00000000    0.00000000    0.00000000
     atom    8 type  3   force =     0.00000000    0.00000000    0.00000000
     atom    9 type  3   force =     0.00000000    0.00000000    0.00000000
     atom   10 type  3   force =     0.00000000    0.00000000    0.00000000
     atom   11 type  3   force =     0.00000000    0.00000000    0.00000000
     atom   12 type  3   force =     0.00000000    0.00000000    0.00000000
     atom   13 type  3   force =     0.00000000    0.00000000    0.00000000
     atom   14 type  3   force =     0.00000000    0.00000000    0.00000000
     atom   15 type  3   force =     0.00000000    0.00000000    0.00000000
     atom   16 type  3   force =     0.00000000    0.00000000    0.00000000
     atom   17 type  3   force =     0.00000000    0.00000000    0.00000000
     atom   18 type  4   force =     0.00000000    0.00000000    0.00000000
     atom   19 type  4   force =     0.00000000    0.00000000    0.00000000
     atom   20 type  4   force =     0.00000000    0.00000000    0.00000000
     atom   21 type  4   force =     0.00000000    0.00000000    0.00000000
     atom   22 type  4   force =     0.00000000    0.00000000    0.00000000
     atom   23 type  5   force =     0.00000000    0.00000000    0.00000000
     The SCF correction term to forces
     atom    1 type  1   force =    -0.00022808    0.00316402    0.00533626
     atom    2 type  1   force =    -0.00922525    0.00106585    0.01772295
     atom    3 type  1   force =    -0.00903451   -0.00238154    0.01520964
     atom    4 type  1   force =     0.00838241    0.00023549    0.01836448
     atom    5 type  1   force =     0.01331246   -0.00403335    0.01313707
     atom    6 type  2   force =    -0.00217235   -0.00566949    0.02775879
     atom    7 type  2   force =    -0.00314765   -0.00457022    0.00332906
     atom    8 type  3   force =    -0.00424277    0.00010007    0.02678293
     atom    9 type  3   force =    -0.00560596   -0.00727784    0.02779586
     atom   10 type  3   force =    -0.00716073   -0.01452279   -0.00187920
     atom   11 type  3   force =    -0.01061637   -0.00370477   -0.01009846
     atom   12 type  3   force =    -0.00473997    0.00997923   -0.00071355
     atom   13 type  3   force =    -0.01210657    0.00566928   -0.01130784
     atom   14 type  3   force =     0.00500403   -0.01587287   -0.00123470
     atom   15 type  3   force =     0.00925721   -0.00117558   -0.01111585
     atom   16 type  3   force =     0.00375998    0.01074895    0.00046099
     atom   17 type  3   force =     0.00820649    0.00680785   -0.01047475
     atom   18 type  4   force =    -0.00201518    0.01028593    0.02146712
     atom   19 type  4   force =    -0.01297514    0.00280070    0.00493570
     atom   20 type  4   force =    -0.00991689   -0.00116264   -0.01791156
     atom   21 type  4   force =     0.01067580    0.00287615    0.00351733
     atom   22 type  4   force =     0.00855049   -0.00389628   -0.01734200
     atom   23 type  5   force =     0.00353524    0.00185562    0.00215410

     Total force =     0.520633     Total SCF correction =     0.086455
     SCF correction compared to forces is large: reduce conv_thr to get better values


     Computing stress (Cartesian axis) and pressure


     negative rho (up, down):  9.088E-01 9.088E-01
          total   stress  (Ry/bohr**3)                   (kbar)     P=       89.48
   0.00076058   0.00004657   0.00000185          111.89        6.85        0.27
[...]
     4.7534   4.9294   5.0211   5.0931   5.2116   5.2504   5.2749   5.3513
     5.4499   5.5382   5.6079   5.7057   5.7155   5.7241   5.7498   5.8082
     5.9248   6.0897   6.1741   6.1954   6.2287   6.2723   6.3540   6.3863
     6.4809   6.5754   6.6532   6.7187   6.7977   6.9380   6.9982   7.0384
     7.0843   7.1354   7.2532   7.2780   7.2949   7.4214   7.5387   7.5899
     7.6151   7.7350   7.8929   7.9015   8.0787   8.0957   8.1031   8.2012
     8.2455   8.2628   8.3467   8.3701   8.4016   8.5580   8.6439   8.6575
     8.8240   8.8899   8.9237   9.0607   9.1258   9.2093   9.2620

     the Fermi energy is     7.2246 ev

!    total energy              =   -2943.02633419 Ry
     estimated scf accuracy    <       0.00043505 Ry
     smearing contrib. (-TS)   =      -0.09868509 Ry
     internal energy E=F+TS    =   -2942.92764910 Ry

     total magnetization       =    -0.00 Bohr mag/cell
     absolute magnetization    =     0.00 Bohr mag/cell

     convergence has been achieved in   5 iterations

     negative rho (up, down):  9.091E-01 9.091E-01

     Forces acting on atoms (cartesian axes, Ry/au):

     atom    1 type  1   force =    -0.01495112   -0.03153568    0.02303407
     atom    2 type  1   force =    -0.11576667   -0.01698407    0.00197459
     atom    3 type  1   force =    -0.12094797    0.01188489    0.00736022
     atom    4 type  1   force =     0.11494751   -0.01157969    0.00265535
     atom    5 type  1   force =     0.15030778   -0.01325178    0.00988561
     atom    6 type  2   force =    -0.01311618   -0.01867912    0.00043101
     atom    7 type  2   force =    -0.01244318    0.01114494   -0.00958086
     atom    8 type  3   force =    -0.11604440    0.00431435   -0.00369076
     atom    9 type  3   force =     0.19278280    0.04554047   -0.00468858
     atom   10 type  3   force =    -0.02012978   -0.02818198   -0.06115969
     atom   11 type  3   force =    -0.01881423   -0.03431695    0.05342915
     atom   12 type  3   force =    -0.01697757    0.03448594   -0.05640911
     atom   13 type  3   force =    -0.01788072    0.03004973    0.05815310
     atom   14 type  3   force =     0.02125672   -0.03097452   -0.06237364
     atom   15 type  3   force =     0.01961873   -0.03685330    0.05454108
     atom   16 type  3   force =     0.01711385    0.03954872   -0.05683247
     atom   17 type  3   force =     0.01817303    0.03494708    0.05770589
     atom   18 type  4   force =    -0.01193783    0.02037262   -0.00899306
     atom   19 type  4   force =    -0.12557444   -0.00363122   -0.11598346
     atom   20 type  4   force =    -0.13032230    0.00608476    0.11429922
     atom   21 type  4   force =     0.12626367   -0.00956159   -0.11778736
     atom   22 type  4   force =     0.13242191    0.00257116    0.11539412
     atom   23 type  5   force =    -0.05797962   -0.00539476   -0.00136441
     The non-local contrib.  to forces
     atom    1 type  1   force =     0.00050215   -0.01122376    0.02682485
     atom    2 type  1   force =    -0.25173258   -0.15919125    0.01944744
     atom    3 type  1   force =    -0.24444045    0.15448993   -0.02410247
     atom    4 type  1   force =     0.25124042   -0.16146837    0.01945177
     atom    5 type  1   force =     0.23768328    0.15647486   -0.02434159
     atom    6 type  2   force =     0.00672585   -0.04790888   -0.06322598
     atom    7 type  2   force =    -0.01810237    0.06610410    0.05937385
     atom    8 type  3   force =    -0.27585367    0.00669614   -0.00213635
     atom    9 type  3   force =     0.19449956   -0.02127150   -0.00627130
     atom   10 type  3   force =    -0.20652259    0.00387613   -0.20763448
     atom   11 type  3   force =    -0.21104386    0.00260481    0.19648764
     atom   12 type  3   force =    -0.20693244   -0.02027770   -0.17668437
     atom   13 type  3   force =    -0.21346207   -0.00350074    0.20614465
     atom   14 type  3   force =     0.20200339    0.00051360   -0.21454166
     atom   15 type  3   force =     0.20830832    0.00405785    0.19970534
     atom   16 type  3   force =     0.21930392   -0.02710539   -0.17213129
     atom   17 type  3   force =     0.22518685   -0.01082820    0.20127832
     atom   18 type  4   force =    -0.01915859    0.05778057   -0.05973355
     atom   19 type  4   force =     0.06075236    0.00777074    0.06673902
     atom   20 type  4   force =     0.05645610   -0.01511656   -0.06404137
     atom   21 type  4   force =    -0.06431648    0.00850020    0.07397324
     atom   22 type  4   force =    -0.05959916   -0.01483698   -0.06792146
     atom   23 type  5   force =    -0.02055323   -0.00331187    0.00004193
     The ionic contribution  to forces
     atom    1 type  1   force =    -0.24052237   -4.83384515   14.37810799
     atom    2 type  1   force =   -39.68163003   -6.17977510    0.77975585
     atom    3 type  1   force =   -39.55773620    6.19841085   -0.71199639
     atom    4 type  1   force =    39.60159702   -6.28043627    0.77870015
     atom    5 type  1   force =    39.12336301    6.38759851   -0.71058471
     atom    6 type  2   force =    -0.24721673   -3.80321043  -14.29023606
     atom    7 type  2   force =    -0.14474310    3.71676376   14.13688285
     atom    8 type  3   force =   -52.29865679    0.05998923   -0.06587055
     atom    9 type  3   force =    51.05992247   -0.02568583   -0.04981238
     atom   10 type  3   force =   -36.02377180   -2.08857322  -23.09305753
     atom   11 type  3   force =   -35.09889137   -0.84159399   22.09709869
     atom   12 type  3   force =   -35.18093557    0.81848924  -22.16095244
     atom   13 type  3   force =   -35.96633642    2.20106947   23.08824038
     atom   14 type  3   force =    35.96939806   -2.09550363  -23.13934377
     atom   15 type  3   force =    35.04500388   -0.84827353   22.14317095
     atom   16 type  3   force =    35.06922577    0.85778970  -22.25097644
     atom   17 type  3   force =    35.85223889    2.24161096   23.17980660
     atom   18 type  4   force =    -0.13337357    4.47884981  -14.04897147
     atom   19 type  4   force =   -35.83412994    0.93413748  -25.55556037
     atom   20 type  4   force =   -35.81562847   -0.97111459   25.53219813
     atom   21 type  4   force =    35.75314203    0.91512869  -25.64834984
     atom   22 type  4   force =    35.73362732   -0.99123437   25.62573561
     atom   23 type  5   force =     3.01605390    0.14940843   -0.01398525
     The local contribution  to forces
     atom    1 type  1   force =     0.22480688    4.80924747  -14.36550193
     atom    2 type  1   force =    39.82835128    6.32265486   -0.78168232
     atom    3 type  1   force =    39.69090003   -6.34424770    0.76207282
     atom    4 type  1   force =   -39.74868006    6.43076489   -0.77905721
     atom    5 type  1   force =   -39.21083084   -6.56802016    0.76390498
     atom    6 type  2   force =     0.22684890    3.83130652   14.36956925
     atom    7 type  2   force =     0.14970754   -3.76445873  -14.18372439
     atom    8 type  3   force =    52.48811200   -0.06133214    0.08142252
     atom    9 type  3   force =   -51.08241778    0.09869666    0.06941770
     atom   10 type  3   force =    36.23043152    2.05103127   23.25547288
     atom   11 type  3   force =    35.31262408    0.78944208  -22.25899250
     atom   12 type  3   force =    35.39184802   -0.75845841   22.29520517
     atom   13 type  3   force =    36.18332918   -2.15499623  -23.25479791
     atom   14 type  3   force =   -36.17265490    2.05904571   23.30673907
     atom   15 type  3   force =   -35.25475360    0.79104462  -22.30652621
     atom   16 type  3   force =   -35.29684178   -0.78488335   22.38104491
     atom   17 type  3   force =   -36.08105745   -2.18229353  -23.34151902
     atom   18 type  4   force =     0.13907939   -4.51440386   14.11416161
     atom   19 type  4   force =    35.65710744   -0.94488633   25.38131468
     atom   20 type  4   force =    35.63517168    0.99402837  -25.36412771
     atom   21 type  4   force =   -35.57332307   -0.93287358   25.46621192
     atom   22 type  4   force =   -35.54813488    1.01039984  -25.45349815
     atom   23 type  5   force =    -3.05232968   -0.15043141    0.01616101
     The core correction contribution to forces
     atom    1 type  1   force =     0.00022518    0.00181028   -0.00159168
     atom    2 type  1   force =    -0.01181353   -0.00142327    0.00072805
     atom    3 type  1   force =    -0.01251598    0.00228197   -0.00152810
     atom    4 type  1   force =     0.01235886   -0.00157014    0.00070362
     atom    5 type  1   force =     0.00592921    0.00961238   -0.00177077
     atom    6 type  2   force =    -0.00043652    0.00218987    0.00249317
     atom    7 type  2   force =     0.00060343   -0.00328370   -0.00227399
     atom    8 type  3   force =    -0.03290394    0.00099117   -0.00051322
     atom    9 type  3   force =     0.02091378   -0.00596888   -0.00118479
     atom   10 type  3   force =    -0.02203565    0.00889622   -0.01709534
     atom   11 type  3   force =    -0.02395186    0.00886925    0.01768902
     atom   12 type  3   force =    -0.02299503   -0.00960542   -0.01525280
     atom   13 type  3   force =    -0.02302792   -0.00899047    0.01654280
     atom   14 type  3   force =     0.02174076    0.00981812   -0.01554391
     atom   15 type  3   force =     0.02280684    0.01039776    0.01592062
     atom   16 type  3   force =     0.02423986   -0.01162843   -0.01375348
     atom   17 type  3   force =     0.02353429   -0.01051574    0.01504211
     atom   18 type  4   force =     0.00090395   -0.00317435    0.00298780
     atom   19 type  4   force =    -0.00975424    0.00011990   -0.00918929
     atom   20 type  4   force =    -0.00970116    0.00046059    0.00914909
     atom   21 type  4   force =     0.01024121    0.00026352   -0.00938873
     atom   22 type  4   force =     0.01012561    0.00057993    0.00919152
     atom   23 type  5   force =     0.00000000    0.00000000    0.00000000
     The Hubbard contrib.    to forces
     atom    1 type  1   force =     0.00000000    0.00000000    0.00000000
     atom    2 type  1   force =     0.00000000    0.00000000    0.00000000
     atom    3 type  1   force =     0.00000000    0.00000000    0.00000000
     atom    4 type  1   force =     0.00000000    0.00000000    0.00000000
     atom    5 type  1   force =     0.00000000    0.00000000    0.00000000
     atom    6 type  2   force =     0.00000000    0.00000000    0.00000000
     atom    7 type  2   force =     0.00000000    0.00000000    0.00000000
     atom    8 type  3   force =     0.00000000    0.00000000    0.00000000
     atom    9 type  3   force =     0.00000000    0.00000000    0.00000000
     atom   10 type  3   force =     0.00000000    0.00000000    0.00000000
     atom   11 type  3   force =     0.00000000    0.00000000    0.00000000
     atom   12 type  3   force =     0.00000000    0.00000000    0.00000000
     atom   13 type  3   force =     0.00000000    0.00000000    0.00000000
     atom   14 type  3   force =     0.00000000    0.00000000    0.00000000
     atom   15 type  3   force =     0.00000000    0.00000000    0.00000000
     atom   16 type  3   force =     0.00000000    0.00000000    0.00000000
     atom   17 type  3   force =     0.00000000    0.00000000    0.00000000
     atom   18 type  4   force =     0.00000000    0.00000000    0.00000000
     atom   19 type  4   force =     0.00000000    0.00000000    0.00000000
     atom   20 type  4   force =     0.00000000    0.00000000    0.00000000
     atom   21 type  4   force =     0.00000000    0.00000000    0.00000000
     atom   22 type  4   force =     0.00000000    0.00000000    0.00000000
     atom   23 type  5   force =     0.00000000    0.00000000    0.00000000
     The SCF correction term to forces
     atom    1 type  1   force =    -0.00002030    0.00239904   -0.01327105
     atom    2 type  1   force =     0.00100085    0.00067426   -0.01474032
     atom    3 type  1   force =     0.00278729    0.00087341   -0.01555152
     atom    4 type  1   force =    -0.00162607    0.00105376   -0.01560887
     atom    5 type  1   force =    -0.00589422    0.00100619   -0.01578818
     atom    6 type  2   force =     0.00090498   -0.00113263   -0.01663525
     atom    7 type  2   force =     0.00003398   -0.00405693   -0.01830507
     atom    8 type  3   force =     0.00320067   -0.00210649   -0.01505904
     atom    9 type  3   force =    -0.00019256   -0.00030642   -0.01530369
     atom   10 type  3   force =     0.00171140   -0.00348881    0.00268891
     atom   11 type  3   force =     0.00239144    0.00628447    0.00268041
     atom   12 type  3   force =     0.00198011    0.00426179    0.00280944
     atom   13 type  3   force =     0.00155918   -0.00360873    0.00355730
     atom   14 type  3   force =     0.00071206   -0.00492474    0.00185074
     atom   15 type  3   force =    -0.00180405    0.00584358    0.00380449
     atom   16 type  3   force =     0.00112874    0.00529976    0.00051794
     atom   17 type  3   force =    -0.00178690   -0.00310285    0.00463199
     atom   18 type  4   force =     0.00055365    0.00124402   -0.01590334
     atom   19 type  4   force =     0.00039259   -0.00084945    0.00224661
     atom   20 type  4   force =     0.00332220   -0.00224948    0.00265518
     atom   21 type  4   force =     0.00046265   -0.00065686    0.00130016
     atom   22 type  4   force =    -0.00365431   -0.00241370    0.00342071
     atom   23 type  5   force =    -0.00120795   -0.00113634   -0.00204799

     Total force =     0.531820     Total SCF correction =     0.053762
     SCF correction compared to forces is large: reduce conv_thr to get better values


     Computing stress (Cartesian axis) and pressure


     negative rho (up, down):  9.091E-01 9.091E-01
          total   stress  (Ry/bohr**3)                   (kbar)     P=       81.31
   0.00062353   0.00000114  -0.00000104           91.72        0.17       -0.15
   0.00000114   0.00064157  -0.00001332            0.17       94.38       -1.96
  -0.00000104  -0.00001332   0.00039313           -0.15       -1.96       57.83


     Entering Dynamics:    iteration =    20
                           time      =   0.0041 pico-seconds


ATOMIC_POSITIONS (angstrom)
Hf            2.6722120048        2.8281374543        6.6040823859
Hf            1.2538231143        1.2873569929        5.0584299099
Hf            1.2563007059        7.3911917266        5.0881047675
Hf            4.0905894334        1.2873966649        5.0584321696
Hf            4.0881571572        7.3910218039        5.0881150722
Nb            2.6722280866        2.7978518924        3.5157319431
Nb            2.6721901887        5.8779204252        6.6346649832
Ta            1.2102025323        4.3423057984        5.0710686336
Ta            4.0880590346        4.3146972884        5.0711389615
Ta            1.3091721380        1.3150457461        2.0580920975
Ta            1.3047299794        1.3092400302        8.0952128038
Ta            1.3059847426        7.3774954156        2.0455981086
Ta            1.3096573318        7.3666757308        8.0866970902
Ta            4.0351313409        1.3150408125        2.0580924286
Ta            4.0395904890        1.3092686292        8.0952094212
Ta            4.0383506784        7.3775055605        2.0456264417
Ta            4.0346607292        7.3666950272        8.0866783548
Zr            2.6721758373        5.8680619236        3.5272614411
Zr            1.2430632966        4.3232080890        1.9974124559
Zr            1.2395270996        4.3554947314        8.1523877406
Zr            4.1011669379        4.3231286427        1.9974526953
Zr            4.1047466141        4.3554590913        8.1523183781
H             6.3905743839        5.7336223088        5.0747363070


     kinetic energy (Ekin) =           8.06058118 Ry
     temperature           =       38565.60942550 K 
     Ekin + Etot (const)   =       -2934.96575301 Ry
     Ions kinetic stress =          142.36 (kbar)
                                    307.11         191.75           0.39
                                    191.75         119.83           0.25
                                      0.39           0.25           0.14



     Linear momentum :   -0.0000000000    0.0000000000    0.0000000000

     The maximum number of steps has been reached.

     End of molecular dynamics calculation

     diffusion coefficients :
     atom     1   D =       0.00000002 cm^2/s
     atom     2   D =       0.00000001 cm^2/s
     atom     3   D =       0.00000001 cm^2/s
     atom     4   D =       0.00000006 cm^2/s
     atom     5   D =       0.00000006 cm^2/s
     atom     6   D =       0.00000002 cm^2/s
     atom     7   D =       0.00000003 cm^2/s
     atom     8   D =       0.00000001 cm^2/s
     atom     9   D =       0.00001025 cm^2/s
     atom    10   D =       0.00000002 cm^2/s
     atom    11   D =       0.00000002 cm^2/s
     atom    12   D =       0.00000003 cm^2/s
     atom    13   D =       0.00000003 cm^2/s
     atom    14   D =       0.00000003 cm^2/s
     atom    15   D =       0.00000003 cm^2/s
     atom    16   D =       0.00000004 cm^2/s
     atom    17   D =       0.00000004 cm^2/s
     atom    18   D =       0.00000003 cm^2/s
     atom    19   D =       0.00000004 cm^2/s
     atom    20   D =       0.00000004 cm^2/s
     atom    21   D =       0.00000013 cm^2/s
     atom    22   D =       0.00000014 cm^2/s
     atom    23   D =       0.00177842 cm^2/s

     < D > =       0.00007780 cm^2/s

     Writing all to output data dir outdir/pwscf.save/

     init_run     :     17.75s CPU     25.08s WALL (       1 calls)
     electrons    :   2379.59s CPU   2953.81s WALL (      20 calls)
     update_pot   :     19.00s CPU     20.54s WALL (      19 calls)
     forces       :    242.95s CPU    285.57s WALL (      20 calls)
     stress       :    337.72s CPU    370.96s WALL (      20 calls)

     Called by init_run:
     wfcinit      :     13.26s CPU     20.33s WALL (       1 calls)
     potinit      :      0.49s CPU      0.51s WALL (       1 calls)
     hinit0       :      0.96s CPU      1.05s WALL (       1 calls)

     Called by electrons:
     c_bands      :   1897.04s CPU   2372.04s WALL (     102 calls)
     sum_band     :    320.19s CPU    385.69s WALL (     102 calls)
     v_of_rho     :     10.48s CPU     12.66s WALL (     122 calls)
     newd         :    177.26s CPU    213.16s WALL (     122 calls)
     mix_rho      :      0.89s CPU      1.29s WALL (     102 calls)

     Called by c_bands:
     init_us_2    :      3.56s CPU      3.71s WALL (     490 calls)
     init_us_2:cp :      3.55s CPU      3.70s WALL (     490 calls)
     regterg      :   1883.04s CPU   2354.38s WALL (     204 calls)

     Called by *egterg:
     rdiaghg      :     69.64s CPU     88.20s WALL (    1721 calls)
     h_psi        :    954.31s CPU   1102.88s WALL (    1761 calls)
     s_psi        :    330.28s CPU    331.20s WALL (    1761 calls)
     g_psi        :      0.71s CPU      0.79s WALL (    1555 calls)

     Called by h_psi:
     h_psi:calbec :    467.43s CPU    576.41s WALL (    1761 calls)
     vloc_psi     :    103.91s CPU    141.82s WALL (    1761 calls)
     add_vuspsi   :    381.73s CPU    383.30s WALL (    1761 calls)

     General routines
     calbec       :    830.24s CPU   1016.21s WALL (    2165 calls)
     fft          :      9.61s CPU     30.52s WALL (    2529 calls)
     ffts         :      0.23s CPU      0.31s WALL (     102 calls)
     fftw         :    111.93s CPU    154.62s WALL (  107864 calls)

     Parallel routines

     PWSCF        :  50m21.70s CPU      1h 1m WALL


   This run was terminated on:  19:16:40  13Jun2023            

=------------------------------------------------------------------------------=
   JOB DONE.
=------------------------------------------------------------------------------=
