
     Program PWSCF v.7.2 starts on 12Jun2023 at 14:19:23 

     This program is part of the open-source Quantum ESPRESSO suite
     for quantum simulation of materials; please cite
         "P. Giannozzi et al., J. Phys.:Condens. Matter 21 395502 (2009);
         "P. Giannozzi et al., J. Phys.:Condens. Matter 29 465901 (2017);
         "P. Giannozzi et al., J. Chem. Phys. 152 154105 (2020);
          URL http://www.quantum-espresso.org", 
     in publications or presentations arising from this work. More details at
     http://www.quantum-espresso.org/quote

     Parallel version (MPI), running on    42 processors

     MPI processes distributed on     1 nodes
     181534 MiB available memory on the printing compute node when the environment starts

     Reading input from md_data/md_Hf5Nb2Ta10Zr5H_8steps_2000eV_incident75_polar0.in
Warning: card &CELL ignored
Warning: card / ignored

     Current dimensions of program PWSCF are:
     Max number of different atomic species (ntypx) = 10
     Max number of k-points (npk) =  40000
     Max angular momentum in pseudopotentials (lmaxx) =  4

     gamma-point specific algorithms are used

     R & G space division:  proc/nbgrp/npool/nimage =      42
     Subspace diagonalization in iterative solution of the eigenvalue problem:
     one sub-group per band group will be used
     custom distributed-memory algorithm (size of sub-group:  2*  2 procs)


     Parallelization info
     --------------------
     sticks:   dense  smooth     PW     G-vecs:    dense   smooth      PW
     Min         262     262     63                23470    23470    2920
     Max         265     265     66                23484    23484    2942
     Sum       11057   11057   2753               986005   986005  123175

     Using Slab Decomposition



     bravais-lattice index     =            0
     lattice parameter (alat)  =      17.6500  a.u.
     unit-cell volume          =    5552.8853 (a.u.)^3
     number of atoms/cell      =           23
     number of atomic types    =            5
     number of electrons       =       277.00
     number of Kohn-Sham states=          167
     kinetic-energy cutoff     =     120.0000  Ry
     charge density cutoff     =     480.0000  Ry
     scf convergence threshold =      1.0E-03
     mixing beta               =       0.7000
     number of iterations used =            8  TF        mixing
     energy convergence thresh.=      0.0E+00
     force convergence thresh. =      0.0E+00
     Exchange-correlation=  SLA  PW   PBX  PBC
                           (   1   4   3   4   0   0   0)
     nstep                     =            8


     celldm(1)=  17.650041  celldm(2)=   0.000000  celldm(3)=   0.000000
     celldm(4)=   0.000000  celldm(5)=   0.000000  celldm(6)=   0.000000

     crystal axes: (cart. coord. in units of alat)
               a(1) = (   1.000000   0.000000   0.000000 )  
               a(2) = (   0.000000   0.929336   0.000000 )  
               a(3) = (   0.000000   0.000000   1.086698 )  

     reciprocal axes: (cart. coord. in units 2 pi/alat)
               b(1) = (  1.000000  0.000000  0.000000 )  
               b(2) = (  0.000000  1.076037  0.000000 )  
               b(3) = (  0.000000  0.000000  0.920219 )  


     PseudoPot. # 1 for Hf read from file:
     q-e/pseudo/hf_pbe_v1.uspp.F.UPF
     MD5 check sum: 8ee9378dfe14276e333edf04c5e4aa26
     Pseudo is Ultrasoft + core correction, Zval = 12.0
     Generated by new atomic code, or converted to UPF format
     Using radial grid of  921 points,  8 beta functions with: 
                l(1) =   0
                l(2) =   0
                l(3) =   0
                l(4) =   1
                l(5) =   1
                l(6) =   2
                l(7) =   2
                l(8) =   3
     Q(r) pseudized with  6 coefficients,  rinner =    1.200   1.200   1.200
                                                       1.200   1.200   1.200
                                                       1.200

     PseudoPot. # 2 for Nb read from file:
     q-e/pseudo/nb_pbe_v1.uspp.F.UPF
     MD5 check sum: 573aab8a2fa660278ed4a62cd769473f
     Pseudo is Ultrasoft + core correction, Zval = 13.0
     Generated by new atomic code, or converted to UPF format
     Using radial grid of  887 points,  6 beta functions with: 
                l(1) =   0
                l(2) =   0
                l(3) =   1
                l(4) =   1
                l(5) =   2
                l(6) =   2
     Q(r) pseudized with  6 coefficients,  rinner =    1.000   1.000   1.000
                                                       1.000   1.000

     PseudoPot. # 3 for Ta read from file:
     q-e/pseudo/ta_pbe_v1.uspp.F.UPF
     MD5 check sum: f8bbe9446314a3b8ea5d9f3e3836c939
     Pseudo is Ultrasoft + core correction, Zval = 13.0
     Generated by new atomic code, or converted to UPF format
     Using radial grid of  921 points,  7 beta functions with: 
                l(1) =   0
                l(2) =   0
                l(3) =   1
                l(4) =   1
                l(5) =   2
                l(6) =   2
                l(7) =   3
     Q(r) pseudized with  6 coefficients,  rinner =    1.300   1.300   1.300
                                                       1.300   1.300   1.300
                                                       1.300

     PseudoPot. # 4 for Zr read from file:
     q-e/pseudo/zr_pbe_v1.uspp.F.UPF
     MD5 check sum: 5db81b1e868ab7776c4564c113de050b
     Pseudo is Ultrasoft + core correction, Zval = 12.0
     Generated by new atomic code, or converted to UPF format
     Using radial grid of  887 points,  6 beta functions with: 
                l(1) =   0
                l(2) =   0
                l(3) =   1
                l(4) =   1
                l(5) =   2
                l(6) =   2
     Q(r) pseudized with  6 coefficients,  rinner =    1.200   1.200   1.200
                                                       1.200   1.200

     PseudoPot. # 5 for H  read from file:
     q-e/pseudo/h_pbe_v1.4.uspp.F.UPF
     MD5 check sum: 761ae9a214b05c3daf00ab9f6b793d6f
     Pseudo is Ultrasoft, Zval =  1.0
     Generated by new atomic code, or converted to UPF format
     Using radial grid of  615 points,  2 beta functions with: 
                l(1) =   0
                l(2) =   0
     Q(r) pseudized with  8 coefficients,  rinner =    0.700

     atomic species   valence    mass     pseudopotential
        Hf            12.00   178.49000     Hf( 1.00)
        Nb            13.00    92.90637     Nb( 1.00)
        Ta            13.00   180.94788     Ta( 1.00)
        Zr            12.00    91.22400     Zr( 1.00)
        H              1.00     2.01400     H ( 1.00)

     Starting magnetic structure 
     atomic species   magnetization
        Hf           0.000
        Nb           0.000
        Ta           0.000
        Zr           0.000
        H            0.000

     No symmetry found



   Cartesian axes

     site n.     atom                  positions (alat units)
         1           Hf  tau(   1) = (   0.2858672   0.3026898   0.7070626  )
         2           Hf  tau(   2) = (   0.1341532   0.1377178   0.5415917  )
         3           Hf  tau(   3) = (   0.1344204   0.7911996   0.5447610  )
         4           Hf  tau(   4) = (   0.4375813   0.1377178   0.5415917  )
         5           Hf  tau(   5) = (   0.4373140   0.7911996   0.5447610  )
         6           Nb  tau(   6) = (   0.2858672   0.2994572   0.3764008  )
         7           Nb  tau(   7) = (   0.2858672   0.6291626   0.7103852  )
         8           Ta  tau(   8) = (   0.1294832   0.4647675   0.5429471  )
         9           Ta  tau(   9) = (   0.4422513   0.4647675   0.5429471  )
        10           Ta  tau(  10) = (   0.1399628   0.1406984   0.2204260  )
        11           Ta  tau(  11) = (   0.1394848   0.1400847   0.8666573  )
        12           Ta  tau(  12) = (   0.1396156   0.7897030   0.2190832  )
        13           Ta  tau(  13) = (   0.1400119   0.7885528   0.8657390  )
        14           Ta  tau(  14) = (   0.4317717   0.1406984   0.2204260  )
        15           Ta  tau(  15) = (   0.4322496   0.1400847   0.8666573  )
        16           Ta  tau(  16) = (   0.4321189   0.7897030   0.2190832  )
        17           Ta  tau(  17) = (   0.4317226   0.7885528   0.8657390  )
        18           Zr  tau(  18) = (   0.2858672   0.6280820   0.3776642  )
        19           Zr  tau(  19) = (   0.1331729   0.4627493   0.2141328  )
        20           Zr  tau(  20) = (   0.1328036   0.4661802   0.8725649  )
        21           Zr  tau(  21) = (   0.4385616   0.4627493   0.2141328  )
        22           Zr  tau(  22) = (   0.4389309   0.4661802   0.8725649  )
        23           H   tau(  23) = (   0.4976729   0.6715045   0.5430600  )

     number of k points=     1  Gaussian smearing, width (Ry)=  0.0220
                       cart. coord. in units 2pi/alat
        k(    1) = (   0.0000000   0.0000000   0.0000000), wk =   1.0000000

     Dense  grid:   493003 G-vectors     FFT dimensions: ( 125, 120, 135)

     Estimated max dynamical RAM per process >     133.03 MB

     Estimated total dynamical RAM >       5.46 GB

     Check: negative core charge=   -0.000002
     Generating pointlists ...
     new r_m :   0.0553 (alat units)  0.9761 (a.u.) for type    1
     new r_m :   0.1098 (alat units)  1.9374 (a.u.) for type    2
     new r_m :   0.0883 (alat units)  1.5583 (a.u.) for type    3
     new r_m :   0.1112 (alat units)  1.9625 (a.u.) for type    4
     new r_m :   0.0553 (alat units)  0.9761 (a.u.) for type    5

     Initial potential from superposition of free atoms

     starting charge     266.9726, renormalised to     277.0000

     negative rho (up, down):  9.211E-01 9.211E-01
     Starting wfcs are  287 randomized atomic wfcs

     total cpu time spent up to now is       12.3 secs

     Self-consistent Calculation

     iteration #  1     ecut=   120.00 Ry     beta= 0.70
     Davidson diagonalization with overlap
     ethr =  1.00E-02,  avg # of iterations =  2.0

     negative rho (up, down):  9.927E-01 9.923E-01

     total cpu time spent up to now is       32.5 secs

     total energy              =   -2930.58431981 Ry
     estimated scf accuracy    <     275.85505655 Ry

     total magnetization       =    -0.00 Bohr mag/cell
     absolute magnetization    =     0.09 Bohr mag/cell

     iteration #  2     ecut=   120.00 Ry     beta= 0.70
     Davidson diagonalization with overlap
     ethr =  1.00E-02,  avg # of iterations =  5.0

     negative rho (up, down):  9.673E-01 9.665E-01

     total cpu time spent up to now is       53.9 secs

     total energy              =   -2941.92298597 Ry
     estimated scf accuracy    <      29.81418509 Ry

     total magnetization       =    -0.02 Bohr mag/cell
     absolute magnetization    =     0.11 Bohr mag/cell

     iteration #  3     ecut=   120.00 Ry     beta= 0.70
     Davidson diagonalization with overlap
     ethr =  1.00E-02,  avg # of iterations =  2.0

     negative rho (up, down):  1.001E+00 9.999E-01

     total cpu time spent up to now is       72.2 secs

     total energy              =   -2942.29453221 Ry
     estimated scf accuracy    <      13.12204740 Ry

     total magnetization       =    -0.02 Bohr mag/cell
     absolute magnetization    =     0.11 Bohr mag/cell

     iteration #  4     ecut=   120.00 Ry     beta= 0.70
     Davidson diagonalization with overlap
     ethr =  4.74E-03,  avg # of iterations =  5.0

     negative rho (up, down):  1.003E+00 1.002E+00

     total cpu time spent up to now is       90.8 secs

     total energy              =   -2942.62701708 Ry
     estimated scf accuracy    <       2.93715729 Ry

     total magnetization       =    -0.07 Bohr mag/cell
     absolute magnetization    =     0.19 Bohr mag/cell

     iteration #  5     ecut=   120.00 Ry     beta= 0.70
     Davidson diagonalization with overlap
     ethr =  1.06E-03,  avg # of iterations =  7.0

     negative rho (up, down):  9.797E-01 9.785E-01

     total cpu time spent up to now is      134.2 secs

     total energy              =   -2942.76049617 Ry
     estimated scf accuracy    <       1.26550550 Ry

     total magnetization       =    -0.01 Bohr mag/cell
     absolute magnetization    =     0.12 Bohr mag/cell

     iteration #  6     ecut=   120.00 Ry     beta= 0.70
     Davidson diagonalization with overlap
     ethr =  4.57E-04,  avg # of iterations =  3.0

     negative rho (up, down):  9.705E-01 9.694E-01

     total cpu time spent up to now is      171.2 secs

     total energy              =   -2942.77546172 Ry
     estimated scf accuracy    <       1.10134664 Ry

     total magnetization       =    -0.02 Bohr mag/cell
     absolute magnetization    =     0.09 Bohr mag/cell

     iteration #  7     ecut=   120.00 Ry     beta= 0.70
     Davidson diagonalization with overlap
     ethr =  3.98E-04,  avg # of iterations =  2.0

     negative rho (up, down):  9.411E-01 9.409E-01

     total cpu time spent up to now is      189.7 secs

     total energy              =   -2942.73884484 Ry
     estimated scf accuracy    <       0.30874565 Ry

     total magnetization       =    -0.02 Bohr mag/cell
     absolute magnetization    =     0.08 Bohr mag/cell

     iteration #  8     ecut=   120.00 Ry     beta= 0.70
     Davidson diagonalization with overlap
     ethr =  1.11E-04,  avg # of iterations =  8.0

     negative rho (up, down):  9.201E-01 9.202E-01

     total cpu time spent up to now is      210.2 secs

     total energy              =   -2942.73037887 Ry
     estimated scf accuracy    <       0.28067786 Ry

     total magnetization       =    -0.02 Bohr mag/cell
     absolute magnetization    =     0.06 Bohr mag/cell

     iteration #  9     ecut=   120.00 Ry     beta= 0.70
     Davidson diagonalization with overlap
     ethr =  1.01E-04,  avg # of iterations =  2.0

     negative rho (up, down):  9.088E-01 9.088E-01

     total cpu time spent up to now is      228.0 secs

     total energy              =   -2942.73325608 Ry
     estimated scf accuracy    <       0.07252185 Ry

     total magnetization       =    -0.01 Bohr mag/cell
     absolute magnetization    =     0.05 Bohr mag/cell

     iteration # 10     ecut=   120.00 Ry     beta= 0.70
     Davidson diagonalization with overlap
     ethr =  2.62E-05,  avg # of iterations = 13.5

     negative rho (up, down):  9.070E-01 9.070E-01

     total cpu time spent up to now is      249.7 secs

     total energy              =   -2942.73556940 Ry
     estimated scf accuracy    <       0.04271114 Ry

     total magnetization       =    -0.01 Bohr mag/cell
     absolute magnetization    =     0.04 Bohr mag/cell

     iteration # 11     ecut=   120.00 Ry     beta= 0.70
     Davidson diagonalization with overlap
     ethr =  1.54E-05,  avg # of iterations =  2.0

     negative rho (up, down):  9.080E-01 9.080E-01

     total cpu time spent up to now is      281.1 secs

     total energy              =   -2942.73935278 Ry
     estimated scf accuracy    <       0.01183771 Ry

     total magnetization       =    -0.01 Bohr mag/cell
     absolute magnetization    =     0.03 Bohr mag/cell

     iteration # 12     ecut=   120.00 Ry     beta= 0.70
     Davidson diagonalization with overlap
     ethr =  4.27E-06,  avg # of iterations =  7.5

     negative rho (up, down):  9.081E-01 9.081E-01

     total cpu time spent up to now is      324.2 secs

     total energy              =   -2942.74252292 Ry
     estimated scf accuracy    <       0.00209314 Ry

     total magnetization       =    -0.01 Bohr mag/cell
     absolute magnetization    =     0.03 Bohr mag/cell

     iteration # 13     ecut=   120.00 Ry     beta= 0.70
     Davidson diagonalization with overlap
     ethr =  7.56E-07,  avg # of iterations =  5.0

     negative rho (up, down):  9.078E-01 9.078E-01

     Magnetic moment per site  (integrated on atomic sphere of radius R)
     atom   1 (R=0.055)  charge=  2.8629    0.0000
     atom   2 (R=0.055)  charge=  2.8460   -0.0000
     atom   3 (R=0.055)  charge=  2.8453    0.0000
     atom   4 (R=0.055)  charge=  2.8470   -0.0000
     atom   5 (R=0.055)  charge=  2.8630   -0.0000
     atom   6 (R=0.110)  charge= 10.3436   -0.0003
     atom   7 (R=0.110)  charge= 10.3481   -0.0001
     atom   8 (R=0.088)  charge=  8.1217    0.0000
     atom   9 (R=0.088)  charge=  8.1184    0.0002
     atom  10 (R=0.088)  charge=  8.1018   -0.0001
     atom  11 (R=0.088)  charge=  8.0980   -0.0008
     atom  12 (R=0.088)  charge=  8.1012   -0.0003
     atom  13 (R=0.088)  charge=  8.1020   -0.0001
     atom  14 (R=0.088)  charge=  8.1021   -0.0003
     atom  15 (R=0.088)  charge=  8.0979   -0.0004
     atom  16 (R=0.088)  charge=  8.1038   -0.0006
     atom  17 (R=0.088)  charge=  8.1015   -0.0003
     atom  18 (R=0.111)  charge=  9.4520   -0.0000
     atom  19 (R=0.111)  charge=  9.0008    0.0002
     atom  20 (R=0.111)  charge=  8.9923    0.0003
     atom  21 (R=0.111)  charge=  9.0060    0.0001
     atom  22 (R=0.111)  charge=  8.9943    0.0003
     atom  23 (R=0.055)  charge=  0.8274   -0.0000

     total cpu time spent up to now is      349.5 secs

     End of self-consistent calculation

 ------ SPIN UP ------------


          k = 0.0000 0.0000 0.0000 ( 61588 PWs)   bands (ev):

   -60.7790 -60.7747 -60.7334 -60.7312 -60.7002 -60.6813 -60.6572 -60.6375
   -60.5822 -60.5531 -54.3879 -54.3452 -54.2522 -53.8434 -52.6875 -46.2860
   -46.2489 -41.6527 -41.6283 -41.5524 -41.5452 -39.8274 -27.7803 -27.7715
   -27.6944 -27.6827 -27.6003 -27.5836 -27.4721 -27.4616 -27.4432 -27.3309
   -27.3161 -27.2652 -27.2618 -27.2497 -27.2172 -27.1990 -27.1858 -27.1611
   -27.1494 -27.1337 -27.1089 -27.0794 -26.9553 -26.9523 -26.9407 -26.9363
   -26.8834 -26.8785 -26.8540 -26.8413 -24.2483 -24.0584 -23.6804 -23.5489
   -23.3074 -23.1739 -23.1125 -23.0477 -22.9246 -22.9197 -22.7252 -22.5713
   -22.5100 -22.4506 -22.3856 -22.3128 -22.2629 -22.1294 -21.7462 -21.6909
   -21.6172 -20.2140 -19.9293 -19.8552 -19.8544 -19.6195 -19.6080 -19.6036
   -19.5905 -19.5752 -19.5365 -19.3862 -19.3561 -18.1770 -17.9768 -17.8265
     0.8704   2.0013   2.9353   3.1362   3.3526   3.4481   3.5308   3.5680
     3.6726   3.9023   3.9157   4.1276   4.1944   4.4805   4.5073   4.6954
     4.7378   4.9590   5.0279   5.1139   5.1752   5.2694   5.2882   5.3458
     5.4083   5.5330   5.5628   5.7032   5.7321   5.7393   5.7661   5.8985
     6.0376   6.0673   6.1876   6.1989   6.2405   6.2970   6.3633   6.3983
     6.5092   6.5967   6.6498   6.7104   6.7947   6.9908   7.0270   7.0742
     7.1139   7.1346   7.2773   7.3121   7.3302   7.4551   7.5431   7.5596
     7.6183   7.7909   7.8715   7.9062   8.0679   8.0919   8.1159   8.2214
     8.2423   8.2536   8.3633   8.3776   8.4048   8.5301   8.6584   8.7033
     8.8611   8.9124   9.0193   9.0800   9.0880   9.2047   9.2498

 ------ SPIN DOWN ----------


          k = 0.0000 0.0000 0.0000 ( 61588 PWs)   bands (ev):

   -60.7792 -60.7751 -60.7337 -60.7316 -60.7005 -60.6819 -60.6575 -60.6381
   -60.5820 -60.5528 -54.3879 -54.3452 -54.2522 -53.8434 -52.6874 -46.2860
   -46.2495 -41.6526 -41.6279 -41.5523 -41.5449 -39.8275 -27.7808 -27.7721
   -27.6949 -27.6833 -27.6007 -27.5840 -27.4724 -27.4619 -27.4437 -27.3312
   -27.3164 -27.2655 -27.2622 -27.2499 -27.2177 -27.1988 -27.1860 -27.1615
   -27.1493 -27.1342 -27.1088 -27.0790 -26.9557 -26.9528 -26.9413 -26.9368
   -26.8839 -26.8793 -26.8545 -26.8420 -24.2484 -24.0585 -23.6805 -23.5489
   -23.3075 -23.1741 -23.1126 -23.0477 -22.9246 -22.9198 -22.7252 -22.5715
   -22.5102 -22.4509 -22.3857 -22.3132 -22.2633 -22.1295 -21.7460 -21.6907
   -21.6172 -20.2139 -19.9287 -19.8549 -19.8542 -19.6196 -19.6078 -19.6034
   -19.5904 -19.5748 -19.5361 -19.3861 -19.3556 -18.1772 -17.9769 -17.8267
     0.8705   2.0011   2.9347   3.1360   3.3524   3.4476   3.5306   3.5679
     3.6725   3.9021   3.9150   4.1274   4.1943   4.4805   4.5071   4.6951
     4.7375   4.9586   5.0274   5.1136   5.1750   5.2690   5.2881   5.3455
     5.4079   5.5329   5.5626   5.7032   5.7318   5.7391   5.7660   5.8982
     6.0373   6.0670   6.1873   6.1987   6.2402   6.2968   6.3632   6.3980
     6.5090   6.5966   6.6494   6.7100   6.7945   6.9904   7.0265   7.0738
     7.1128   7.1338   7.2760   7.3111   7.3294   7.4547   7.5424   7.5599
     7.6176   7.7904   7.8713   7.9059   8.0675   8.0911   8.1156   8.2206
     8.2419   8.2534   8.3624   8.3771   8.4047   8.5303   8.6581   8.7033
     8.8612   8.9112   9.0191   9.0800   9.0875   9.2044   9.2495

     the Fermi energy is     7.2484 ev

!    total energy              =   -2942.74362993 Ry
     estimated scf accuracy    <       0.00061312 Ry
     smearing contrib. (-TS)   =      -0.10067391 Ry
     internal energy E=F+TS    =   -2942.64295601 Ry

     total magnetization       =    -0.01 Bohr mag/cell
     absolute magnetization    =     0.02 Bohr mag/cell

     convergence has been achieved in  13 iterations

     negative rho (up, down):  9.078E-01 9.078E-01

     Forces acting on atoms (cartesian axes, Ry/au):

     atom    1 type  1   force =    -0.00277943   -0.02753841   -0.00173358
     atom    2 type  1   force =    -0.12753954   -0.00894560   -0.00558343
     atom    3 type  1   force =    -0.11788469    0.00893695    0.00262686
     atom    4 type  1   force =     0.13029024   -0.02046020   -0.00677564
     atom    5 type  1   force =    -0.19577969    0.64336477    0.01753175
     atom    6 type  2   force =     0.00260804   -0.01520940    0.02220906
     atom    7 type  2   force =    -0.01787329    0.00726237   -0.00614348
     atom    8 type  3   force =    -0.10684072    0.00285561   -0.00532486
     atom    9 type  3   force =     0.10650854    0.04803316   -0.00873513
     atom   10 type  3   force =    -0.02691485   -0.02905036   -0.05883871
     atom   11 type  3   force =    -0.02478992   -0.03553473    0.05780105
     atom   12 type  3   force =    -0.01178787    0.03550545   -0.05735807
     atom   13 type  3   force =    -0.01380626    0.03027725    0.06280976
     atom   14 type  3   force =     0.01906299   -0.03461032   -0.06446657
     atom   15 type  3   force =     0.01839676   -0.04036796    0.06247659
     atom   16 type  3   force =     0.01633794    0.04511088   -0.05640077
     atom   17 type  3   force =     0.01603731    0.03969607    0.06232580
     atom   18 type  4   force =    -0.01618715    0.01481181   -0.00857044
     atom   19 type  4   force =    -0.12245042   -0.00701829   -0.11576178
     atom   20 type  4   force =    -0.12804880    0.00489821    0.11742615
     atom   21 type  4   force =     0.11941832   -0.00306527   -0.11701550
     atom   22 type  4   force =     0.12653290    0.00717266    0.12031458
     atom   23 type  5   force =     0.35748957   -0.66612465   -0.01281363
     The non-local contrib.  to forces
     atom    1 type  1   force =    -0.00698662   -0.01159578    0.02789577
     atom    2 type  1   force =    -0.24519230   -0.16321721    0.01412376
     atom    3 type  1   force =    -0.22373198    0.16146925   -0.02687942
     atom    4 type  1   force =     0.24491036   -0.22141054    0.01346445
     atom    5 type  1   force =     0.27999798    0.01762450   -0.02535810
     atom    6 type  2   force =     0.00539314   -0.04250603   -0.07160943
     atom    7 type  2   force =     0.00009750    0.05423789    0.06622236
     atom    8 type  3   force =    -0.25749118    0.00693580   -0.00824907
     atom    9 type  3   force =     0.23155772    0.07412185   -0.01275468
     atom   10 type  3   force =    -0.21858774    0.01004510   -0.20712944
     atom   11 type  3   force =    -0.22695939    0.00966480    0.19985829
     atom   12 type  3   force =    -0.19920729   -0.02664750   -0.18030067
     atom   13 type  3   force =    -0.20607580   -0.01030559    0.20931847
     atom   14 type  3   force =     0.21613198    0.00590426   -0.21180317
     atom   15 type  3   force =     0.22477111    0.00758846    0.20061491
     atom   16 type  3   force =     0.20843379   -0.01936811   -0.17427522
     atom   17 type  3   force =     0.21226978   -0.00280003    0.20565768
     atom   18 type  4   force =     0.00132424    0.04511595   -0.07438731
     atom   19 type  4   force =     0.05852960    0.00571217    0.07320537
     atom   20 type  4   force =     0.05523705   -0.01468758   -0.06807207
     atom   21 type  4   force =    -0.06455539    0.01432830    0.06801525
     atom   22 type  4   force =    -0.05828094   -0.00986980   -0.05839293
     atom   23 type  5   force =    -0.06389692    0.09157003   -0.00046788
     The ionic contribution  to forces
     atom    1 type  1   force =    -0.15183538   -4.70290880   14.08754532
     atom    2 type  1   force =   -39.76873304   -6.05119775    0.77956478
     atom    3 type  1   force =   -39.97332288    6.23970586   -0.71218721
     atom    4 type  1   force =    39.58006401   -5.88953230    0.77845846
     atom    5 type  1   force =    37.71646470    9.87332434   -0.66043374
     atom    6 type  2   force =    -0.16123622   -3.66381830  -13.99031155
     atom    7 type  2   force =    -0.79213766    3.39791162   14.52746969
     atom    8 type  3   force =   -52.33158457   -0.10504210   -0.06499728
     atom    9 type  3   force =    51.61631347   -1.58062218   -0.06581536
     atom   10 type  3   force =   -36.10526154   -2.04838780  -23.11452537
     atom   11 type  3   force =   -35.17935331   -0.80135187   22.11874824
     atom   12 type  3   force =   -35.35709191    0.84236906  -22.24258516
     atom   13 type  3   force =   -36.14844192    2.22629776   23.17297774
     atom   14 type  3   force =    35.99835661   -2.00660565  -23.19163876
     atom   15 type  3   force =    35.07311647   -0.75937237   22.19592752
     atom   16 type  3   force =    35.10914673    0.97363771  -22.59992384
     atom   17 type  3   force =    35.89673870    2.35851028   23.53515001
     atom   18 type  4   force =    -0.73997833    4.17999773  -14.41117406
     atom   19 type  4   force =   -35.97186484    0.88799773  -25.59936487
     atom   20 type  4   force =   -35.95546355   -1.02230449   25.57811473
     atom   21 type  4   force =    35.81194034    0.75859488  -25.80799232
     atom   22 type  4   force =    35.79482895   -1.15189306   25.79034750
     atom   23 type  5   force =     6.03933518   -1.95531030   -0.10335450
     The local contribution  to forces
     atom    1 type  1   force =     0.15477972    4.68608858  -14.12392691
     atom    2 type  1   force =    39.90094890    6.20283775   -0.80553201
     atom    3 type  1   force =    40.09084559   -6.39575756    0.74106072
     atom    4 type  1   force =   -39.71223848    6.09307967   -0.80567002
     atom    5 type  1   force =   -38.21546031   -9.22518003    0.70014558
     atom    6 type  2   force =     0.15924009    3.70084110   14.06088341
     atom    7 type  2   force =     0.77214791   -3.43725902  -14.60000723
     atom    8 type  3   force =    52.50638610    0.10203133    0.05636687
     atom    9 type  3   force =   -51.75858967    1.55661332    0.05525497
     atom   10 type  3   force =    36.31680843    2.00824134   23.27973295
     atom   11 type  3   force =    35.40561355    0.74299481  -22.27919568
     atom   12 type  3   force =    35.56685962   -0.77386235   22.37833399
     atom   13 type  3   force =    36.36413658   -2.17871694  -23.33487890
     atom   14 type  3   force =   -36.21253501    1.96349183   23.35576902
     atom   15 type  3   force =   -35.30412487    0.69737068  -22.35117477
     atom   16 type  3   force =   -35.31826290   -0.90912958   22.72921619
     atom   17 type  3   force =   -36.11679314   -2.31233391  -23.69148871
     atom   18 type  4   force =     0.72647753   -4.21784343   14.45607029
     atom   19 type  4   force =    35.80489336   -0.90324814   25.42146525
     atom   20 type  4   force =    35.77593051    1.04554074  -25.40040038
     atom   21 type  4   force =   -35.63785889   -0.77373023   25.63372477
     atom   22 type  4   force =   -35.61372299    1.17404290  -25.61704146
     atom   23 type  5   force =    -5.61778608    1.19728652    0.08962532
     The core correction contribution to forces
     atom    1 type  1   force =    -0.00081491    0.00077724   -0.00095699
     atom    2 type  1   force =    -0.01044071   -0.00031291    0.00097187
     atom    3 type  1   force =    -0.00762831    0.00577552   -0.00155320
     atom    4 type  1   force =     0.01306895   -0.00689584    0.00045097
     atom    5 type  1   force =     0.01943081   -0.01947781   -0.00126950
     atom    6 type  2   force =    -0.00038728    0.00211866    0.00299366
     atom    7 type  2   force =     0.00005988   -0.00276870   -0.00270190
     atom    8 type  3   force =    -0.03062779   -0.00022326   -0.00036114
     atom    9 type  3   force =     0.02416739   -0.00132422   -0.00101179
     atom   10 type  3   force =    -0.02355661    0.00943932   -0.01728141
     atom   11 type  3   force =    -0.02527869    0.00954094    0.01834439
     atom   12 type  3   force =    -0.02168392   -0.01122334   -0.01554173
     atom   13 type  3   force =    -0.02167441   -0.01031752    0.01675585
     atom   14 type  3   force =     0.02204952    0.00906824   -0.01806750
     atom   15 type  3   force =     0.02383239    0.00978761    0.01826882
     atom   16 type  3   force =     0.02247235   -0.00956915   -0.01408669
     atom   17 type  3   force =     0.02217311   -0.00858733    0.01529736
     atom   18 type  4   force =     0.00005409   -0.00259296    0.00368228
     atom   19 type  4   force =    -0.00956564    0.00019047   -0.00958769
     atom   20 type  4   force =    -0.00954256    0.00043624    0.00941312
     atom   21 type  4   force =     0.00996710   -0.00016188   -0.00919579
     atom   22 type  4   force =     0.00975026    0.00020354    0.00873524
     atom   23 type  5   force =     0.00000000    0.00000000    0.00000000
     The Hubbard contrib.    to forces
     atom    1 type  1   force =     0.00000000    0.00000000    0.00000000
     atom    2 type  1   force =     0.00000000    0.00000000    0.00000000
     atom    3 type  1   force =     0.00000000    0.00000000    0.00000000
     atom    4 type  1   force =     0.00000000    0.00000000    0.00000000
     atom    5 type  1   force =     0.00000000    0.00000000    0.00000000
     atom    6 type  2   force =     0.00000000    0.00000000    0.00000000
     atom    7 type  2   force =     0.00000000    0.00000000    0.00000000
     atom    8 type  3   force =     0.00000000    0.00000000    0.00000000
     atom    9 type  3   force =     0.00000000    0.00000000    0.00000000
     atom   10 type  3   force =     0.00000000    0.00000000    0.00000000
     atom   11 type  3   force =     0.00000000    0.00000000    0.00000000
     atom   12 type  3   force =     0.00000000    0.00000000    0.00000000
     atom   13 type  3   force =     0.00000000    0.00000000    0.00000000
     atom   14 type  3   force =     0.00000000    0.00000000    0.00000000
     atom   15 type  3   force =     0.00000000    0.00000000    0.00000000
     atom   16 type  3   force =     0.00000000    0.00000000    0.00000000
     atom   17 type  3   force =     0.00000000    0.00000000    0.00000000
     atom   18 type  4   force =     0.00000000    0.00000000    0.00000000
     atom   19 type  4   force =     0.00000000    0.00000000    0.00000000
     atom   20 type  4   force =     0.00000000    0.00000000    0.00000000
     atom   21 type  4   force =     0.00000000    0.00000000    0.00000000
     atom   22 type  4   force =     0.00000000    0.00000000    0.00000000
     atom   23 type  5   force =     0.00000000    0.00000000    0.00000000
     The SCF correction term to forces
     atom    1 type  1   force =     0.00221120    0.00000284    0.00706147
     atom    2 type  1   force =    -0.00398895    0.00284701    0.00464041
     atom    3 type  1   force =    -0.00391367   -0.00235364    0.00153822
     atom    4 type  1   force =     0.00461885    0.00420128    0.00587274
     atom    5 type  1   force =     0.00392057   -0.00302374    0.00379975
     atom    6 type  2   force =    -0.00026826   -0.01194235    0.01960522
     atom    7 type  2   force =     0.00209253   -0.00495694    0.00222585
     atom    8 type  3   force =     0.00661017   -0.00094368    0.01126800
     atom    9 type  3   force =    -0.00680692   -0.00085313    0.01494396
     atom   10 type  3   force =     0.00381605   -0.00848583   -0.00028321
     atom   11 type  3   force =     0.00132136    0.00351908   -0.00060194
     atom   12 type  3   force =    -0.00053094    0.00477206    0.00208774
     atom   13 type  3   force =    -0.00161725    0.00322203   -0.00201115
     atom   14 type  3   force =    -0.00480666   -0.00656652    0.00062607
     atom   15 type  3   force =     0.00093509    0.00416014   -0.00180765
     atom   16 type  3   force =    -0.00531859    0.00944249    0.00202103
     atom   17 type  3   force =     0.00178231    0.00480954   -0.00293830
     atom   18 type  4   force =    -0.00393123    0.01003701    0.01659061
     atom   19 type  4   force =    -0.00430947    0.00223196   -0.00212762
     atom   20 type  4   force =     0.00592320   -0.00418421   -0.00227702
     atom   21 type  4   force =     0.00005860   -0.00219384   -0.00221517
     atom   22 type  4   force =    -0.00590894   -0.00540844   -0.00398154
     atom   23 type  5   force =    -0.00002917    0.00023157    0.00073566

     Total force =     1.122328     Total SCF correction =     0.046868


     Computing stress (Cartesian axis) and pressure


     negative rho (up, down):  9.078E-01 9.078E-01
          total   stress  (Ry/bohr**3)                   (kbar)     P=      100.32
   0.00072791  -0.00011992  -0.00000194          107.08      -17.64       -0.29
  -0.00011992   0.00091479  -0.00001084          -17.64      134.57       -1.59
  -0.00000194  -0.00001084   0.00040318           -0.29       -1.59       59.31


     Molecular Dynamics Calculation

     Starting temperature  =   300.00 K

     temperature is set once at start

     mass Hf               =   178.49
     mass Nb               =    92.91
     mass Ta               =   180.95
     mass Zr               =    91.22
     mass H                =     2.01
     Time step             =     2.10 a.u.,  0.1016 femto-seconds

     Entering Dynamics:    iteration =     1
                           time      =   0.0001 pico-seconds


ATOMIC_POSITIONS (angstrom)
Hf            2.6700768421        2.8274098492        6.6039642062
Hf            1.2530666704        1.2865711347        5.0584661861
Hf            1.2555629581        7.3900913764        5.0880677862
Hf            4.0870870733        1.2865710522        5.0584661775
Hf            4.0845885162        7.3900959268        5.0880678931
Nb            2.6700768979        2.7972174134        3.5155835227
Nb            2.6700766157        5.8766657939        6.6349978585
Ta            1.2094492051        4.3412148893        5.0711257946
Ta            4.1307045166        4.3412152089        5.0711257705
Ta            1.3073293987        1.3144094014        2.0587786938
Ta            1.3028650438        1.3086779021        8.0945796113
Ta            1.3040864437        7.3761133928        2.0462367740
Ta            1.3077876057        7.3653701801        8.0860026652
Ta            4.0328242698        1.3144093620        2.0587786540
Ta            4.0372886350        1.3086778679        8.0945796444
Ta            4.0360673125        7.3761134608        2.0462367808
Ta            4.0323661341        7.3653702468        8.0860026618
Zr            2.6700766348        5.8665730688        3.5273838101
Zr            1.2439098056        4.3223648835        1.9999983754
Zr            1.2404605207        4.3544103707        8.1497571972
Zr            4.0962438759        4.3223649390        1.9999983578
Zr            4.0996931820        4.3544104027        8.1497572378
H             4.5208061343        5.7948905450        5.0721716498


     kinetic energy (Ekin) =         181.00319416 Ry
     temperature           =      866004.36551778 K 
     Ekin + Etot (const)   =       -2761.74043577 Ry
     Ions kinetic stress =         3196.72 (kbar)
                                    642.40        2397.51           0.00
                                   2397.51        8947.74           0.00
                                      0.00           0.00           0.00



     Linear momentum :    0.0000000000   -0.0000000000    0.0000000000

     File outdir/pwscf.msd.dat deleted, as requested

     Writing config-only to output data dir outdir/pwscf.save/
     NEW-OLD atomic charge density approx. for the potential

     Check: negative core charge=   -0.000002

     negative rho (up, down):  9.081E-01 9.081E-01
     Generating pointlists ...
     new r_m :   0.1070 (alat units)  1.8893 (a.u.) for type    2
     new r_m :   0.0665 (alat units)  1.1733 (a.u.) for type    3
     new r_m :   0.1065 (alat units)  1.8800 (a.u.) for type    4

     total cpu time spent up to now is      374.6 secs

     Self-consistent Calculation

     iteration #  1     ecut=   120.00 Ry     beta= 0.70
     Davidson diagonalization with overlap
     c_bands:  1 eigenvalues not converged
     c_bands:  1 eigenvalues not converged
     ethr =  1.00E-06,  avg # of iterations = 20.0

     negative rho (up, down):  9.089E-01 9.089E-01

     total cpu time spent up to now is      428.5 secs

     total energy              =   -2942.90457303 Ry
     estimated scf accuracy    <       0.30548561 Ry

     total magnetization       =    -0.01 Bohr mag/cell
     absolute magnetization    =     0.02 Bohr mag/cell

     iteration #  2     ecut=   120.00 Ry     beta= 0.70
     Davidson diagonalization with overlap
     ethr =  1.10E-04,  avg # of iterations =  2.0

     negative rho (up, down):  9.087E-01 9.087E-01

     total cpu time spent up to now is      467.4 secs

     total energy              =   -2942.93665976 Ry
     estimated scf accuracy    <       0.06976523 Ry

     total magnetization       =    -0.01 Bohr mag/cell
     absolute magnetization    =     0.01 Bohr mag/cell

     iteration #  3     ecut=   120.00 Ry     beta= 0.70
     Davidson diagonalization with overlap
     ethr =  2.52E-05,  avg # of iterations =  2.0

     negative rho (up, down):  9.087E-01 9.087E-01

     total cpu time spent up to now is      499.4 secs

     total energy              =   -2942.94109896 Ry
     estimated scf accuracy    <       0.01216446 Ry

     total magnetization       =    -0.01 Bohr mag/cell
     absolute magnetization    =     0.02 Bohr mag/cell

     iteration #  4     ecut=   120.00 Ry     beta= 0.70
     Davidson diagonalization with overlap
     c_bands:  1 eigenvalues not converged
     ethr =  4.39E-06,  avg # of iterations = 19.5

     negative rho (up, down):  9.089E-01 9.089E-01

     total cpu time spent up to now is      519.5 secs

     total energy              =   -2942.94190738 Ry
     estimated scf accuracy    <       0.00219505 Ry

     total magnetization       =    -0.01 Bohr mag/cell
     absolute magnetization    =     0.01 Bohr mag/cell

     iteration #  5     ecut=   120.00 Ry     beta= 0.70
     Davidson diagonalization with overlap
     ethr =  7.92E-07,  avg # of iterations =  2.0

     negative rho (up, down):  9.090E-01 9.090E-01

     Magnetic moment per site  (integrated on atomic sphere of radius R)
     atom   1 (R=0.055)  charge=  2.8628   -0.0000
     atom   2 (R=0.055)  charge=  2.8458   -0.0000
     atom   3 (R=0.055)  charge=  2.8450    0.0000
     atom   4 (R=0.055)  charge=  2.8465   -0.0000
     atom   5 (R=0.055)  charge=  2.8543   -0.0000
     atom   6 (R=0.107)  charge= 10.1274   -0.0001
     atom   7 (R=0.107)  charge= 10.1256   -0.0000
     atom   8 (R=0.066)  charge=  5.2693   -0.0000
     atom   9 (R=0.066)  charge=  5.2891   -0.0001
     atom  10 (R=0.066)  charge=  5.2527   -0.0000
     atom  11 (R=0.066)  charge=  5.2533   -0.0002
     atom  12 (R=0.066)  charge=  5.2531   -0.0001
     atom  13 (R=0.066)  charge=  5.2538   -0.0000
     atom  14 (R=0.066)  charge=  5.2553   -0.0001
     atom  15 (R=0.066)  charge=  5.2554   -0.0001
     atom  16 (R=0.066)  charge=  5.2540   -0.0001
     atom  17 (R=0.066)  charge=  5.2570   -0.0001
     atom  18 (R=0.107)  charge=  9.0939    0.0001
     atom  19 (R=0.107)  charge=  8.7156   -0.0001
     atom  20 (R=0.107)  charge=  8.7139    0.0000
     atom  21 (R=0.107)  charge=  8.7159   -0.0002
     atom  22 (R=0.107)  charge=  8.7134    0.0000
     atom  23 (R=0.055)  charge=  0.7175    0.0000

     total cpu time spent up to now is      536.8 secs

     End of self-consistent calculation

 ------ SPIN UP ------------


          k = 0.0000 0.0000 0.0000 ( 61588 PWs)   bands (ev):

   -60.7606 -60.7422 -60.7153 -60.6974 -60.6702 -60.6667 -60.6261 -60.6223
   -60.5678 -60.3068 -54.3557 -54.2694 -54.2292 -54.1244 -52.6813 -46.2935
   -46.2451 -41.6275 -41.6199 -41.5355 -41.5269 -39.8406 -27.7601 -27.7505
   -27.6697 -27.6680 -27.5764 -27.5501 -27.4426 -27.4287 -27.3888 -27.3091
   -27.2853 -27.2450 -27.2364 -27.2264 -27.1955 -27.1840 -27.1678 -27.1330
   -27.1226 -27.1140 -26.9457 -26.9355 -26.9275 -26.9245 -26.9174 -26.9101
   -26.8643 -26.8541 -26.8253 -26.8241 -24.1622 -23.9585 -23.6382 -23.5423
   -23.2818 -23.1469 -23.1062 -23.0226 -22.9130 -22.8352 -22.7997 -22.5925
   -22.5225 -22.4501 -22.3816 -22.3405 -22.2627 -22.2254 -21.7412 -21.6800
   -21.6107 -20.1908 -19.9180 -19.8345 -19.8312 -19.6052 -19.5965 -19.5892
   -19.5758 -19.5662 -19.5246 -19.3586 -19.3437 -18.1866 -17.9901 -17.8358
     0.0964   1.8394   2.9514   3.1527   3.3681   3.4722   3.5460   3.6155
     3.6701   3.8956   3.9270   4.1455   4.2408   4.4834   4.5729   4.7077
     4.7625   4.9432   5.0326   5.1282   5.2098   5.2784   5.2991   5.3869
     5.4027   5.5228   5.5695   5.6900   5.7488   5.7645   5.7840   5.9098
     6.0618   6.1016   6.2037   6.2382   6.2809   6.3462   6.3654   6.3707
     6.5499   6.6111   6.6590   6.7277   6.8136   7.0073   7.0256   7.1038
     7.1442   7.1545   7.2895   7.3278   7.3545   7.4762   7.5509   7.5722
     7.6380   7.8548   7.8920   7.9053   8.0770   8.1101   8.1305   8.2225
     8.2498   8.2757   8.3770   8.3974   8.4656   8.5479   8.6735   8.6838
     8.8662   8.9244   8.9606   9.0489   9.0955   9.1998   9.2583

 ------ SPIN DOWN ----------


          k = 0.0000 0.0000 0.0000 ( 61588 PWs)   bands (ev):

   -60.7608 -60.7424 -60.7155 -60.6976 -60.6704 -60.6670 -60.6263 -60.6226
   -60.5678 -60.3069 -54.3558 -54.2695 -54.2292 -54.1245 -52.6813 -46.2935
   -46.2452 -41.6277 -41.6198 -41.5354 -41.5270 -39.8405 -27.7605 -27.7508
   -27.6701 -27.6683 -27.5767 -27.5504 -27.4430 -27.4290 -27.3889 -27.3093
   -27.2855 -27.2451 -27.2365 -27.2266 -27.1957 -27.1841 -27.1680 -27.1332
   -27.1228 -27.1142 -26.9459 -26.9357 -26.9278 -26.9248 -26.9177 -26.9103
   -26.8648 -26.8544 -26.8257 -26.8244 -24.1622 -23.9585 -23.6382 -23.5423
   -23.2819 -23.1470 -23.1063 -23.0227 -22.9131 -22.8352 -22.7998 -22.5925
   -22.5225 -22.4502 -22.3817 -22.3406 -22.2628 -22.2255 -21.7412 -21.6800
   -21.6107 -20.1909 -19.9177 -19.8346 -19.8313 -19.6052 -19.5967 -19.5892
   -19.5758 -19.5662 -19.5246 -19.3588 -19.3436 -18.1865 -17.9900 -17.8358
     0.0965   1.8392   2.9510   3.1526   3.3678   3.4718   3.5459   3.6153
     3.6701   3.8955   3.9265   4.1453   4.2407   4.4833   4.5728   4.7074
     4.7622   4.9429   5.0323   5.1280   5.2096   5.2781   5.2989   5.3865
     5.4024   5.5227   5.5693   5.6899   5.7486   5.7643   5.7839   5.9097
     6.0615   6.1012   6.2035   6.2380   6.2806   6.3460   6.3653   6.3705
     6.5496   6.6109   6.6587   6.7274   6.8133   7.0070   7.0250   7.1028
     7.1435   7.1542   7.2886   7.3273   7.3536   7.4758   7.5502   7.5722
     7.6375   7.8544   7.8917   7.9051   8.0766   8.1095   8.1302   8.2219
     8.2492   8.2754   8.3763   8.3971   8.4653   8.5478   8.6732   8.6835
     8.8659   8.9237   8.9611   9.0487   9.0951   9.1995   9.2579

     the Fermi energy is     7.2670 ev

!    total energy              =   -2942.94184788 Ry
     estimated scf accuracy    <       0.00044407 Ry
     smearing contrib. (-TS)   =      -0.10082312 Ry
     internal energy E=F+TS    =   -2942.84102477 Ry

     total magnetization       =    -0.01 Bohr mag/cell
     absolute magnetization    =     0.01 Bohr mag/cell

     convergence has been achieved in   5 iterations

     negative rho (up, down):  9.090E-01 9.090E-01

     Forces acting on atoms (cartesian axes, Ry/au):

     atom    1 type  1   force =    -0.00528862   -0.03045922    0.00749730
     atom    2 type  1   force =    -0.12106598   -0.01326527    0.00045389
     atom    3 type  1   force =    -0.11365805    0.01316664    0.00708524
     atom    4 type  1   force =     0.14283584   -0.01500843   -0.00217057
     atom    5 type  1   force =     0.07657647    0.09896574    0.01592544
     atom    6 type  2   force =     0.00079677   -0.01945281    0.01640999
     atom    7 type  2   force =    -0.01642858    0.00929634   -0.00412001
     atom    8 type  3   force =    -0.10511559    0.00323481   -0.00355784
     atom    9 type  3   force =     0.03746964   -0.18669295   -0.00395614
     atom   10 type  3   force =    -0.02664942   -0.02947096   -0.06173157
     atom   11 type  3   force =    -0.02392589   -0.03525968    0.05466331
     atom   12 type  3   force =    -0.01090168    0.03398298   -0.05951621
     atom   13 type  3   force =    -0.01163711    0.03042132    0.06039955
     atom   14 type  3   force =     0.01905836   -0.03510201   -0.06613960
     atom   15 type  3   force =     0.01815750   -0.04162908    0.05907308
     atom   16 type  3   force =     0.01509398    0.04738367   -0.05919000
     atom   17 type  3   force =     0.01499286    0.04260560    0.05997157
     atom   18 type  4   force =    -0.01481394    0.01830015   -0.00909481
     atom   19 type  4   force =    -0.12207977   -0.00478775   -0.11720680
     atom   20 type  4   force =    -0.12611909    0.00567858    0.11496031
     atom   21 type  4   force =     0.11827853   -0.00756388   -0.11947752
     atom   22 type  4   force =     0.12514392    0.00193148    0.11718940
     atom   23 type  5   force =     0.12927984    0.11372474   -0.00746802
     The non-local contrib.  to forces
     atom    1 type  1   force =    -0.00132313   -0.00857247    0.02653391
     atom    2 type  1   force =    -0.24633585   -0.15841712    0.01619035
     atom    3 type  1   force =    -0.23326357    0.15283310   -0.02346382
     atom    4 type  1   force =     0.25132369   -0.20979245    0.01714282
     atom    5 type  1   force =     0.18236280    0.18099409   -0.01754477
     atom    6 type  2   force =     0.00311855   -0.04242039   -0.06799494
     atom    7 type  2   force =     0.00245606    0.05929693    0.07180988
     atom    8 type  3   force =    -0.25334949    0.00797539   -0.00451284
     atom    9 type  3   force =     0.19032623    0.03002332   -0.00469067
     atom   10 type  3   force =    -0.21649100    0.00704460   -0.20688998
     atom   11 type  3   force =    -0.22376840    0.00698197    0.19913086
     atom   12 type  3   force =    -0.19609544   -0.02587056   -0.18153468
     atom   13 type  3   force =    -0.20089415   -0.00755232    0.20798240
     atom   14 type  3   force =     0.21606523    0.00061814   -0.20757436
     atom   15 type  3   force =     0.22317390    0.00287446    0.19537373
     atom   16 type  3   force =     0.20767474   -0.01864873   -0.17269901
     atom   17 type  3   force =     0.20892961   -0.00268179    0.20038750
     atom   18 type  4   force =     0.00130274    0.04837540   -0.07339084
     atom   19 type  4   force =     0.05758879    0.00801351    0.07481385
     atom   20 type  4   force =     0.05460968   -0.01324563   -0.07048982
     atom   21 type  4   force =    -0.06531021    0.01534276    0.06554967
     atom   22 type  4   force =    -0.05924039   -0.00900089   -0.05696306
     atom   23 type  5   force =    -0.03551364   -0.02313330   -0.00230993
     The ionic contribution  to forces
     atom    1 type  1   force =    -0.19263583   -4.78928033   14.12871129
     atom    2 type  1   force =   -39.76762445   -6.09543721    0.77958503
     atom    3 type  1   force =   -39.94981802    6.28136845   -0.71231837
     atom    4 type  1   force =    39.60531548   -6.05559768    0.77871698
     atom    5 type  1   force =    38.99275345    8.39000858   -0.69116323
     atom    6 type  2   force =    -0.20330672   -3.75603101  -14.03364179
     atom    7 type  2   force =    -0.87717378    3.59496752   14.64036118
     atom    8 type  3   force =   -52.42909894   -0.11316629   -0.06503011
     atom    9 type  3   force =    51.25305393   -2.95482286   -0.06708317
     atom   10 type  3   force =   -36.10649200   -2.07217919  -23.11349994
     atom   11 type  3   force =   -35.18056741   -0.82498816   22.11767672
     atom   12 type  3   force =   -35.35296995    0.86073879  -22.23557276
     atom   13 type  3   force =   -36.14428713    2.24500782   23.16600105
     atom   14 type  3   force =    36.00832765   -2.06278867  -23.18052736
     atom   15 type  3   force =    35.08308195   -0.81525772   22.18466193
     atom   16 type  3   force =    35.14583901    1.00787924  -22.51869537
     atom   17 type  3   force =    35.93402476    2.39377845   23.45313907
     atom   18 type  4   force =    -0.82254539    4.36351027  -14.51804824
     atom   19 type  4   force =   -35.99415807    0.89058337  -25.62088238
     atom   20 type  4   force =   -35.97769278   -1.01910347   25.59954758
     atom   21 type  4   force =    35.81460739    0.75912447  -25.89486727
     atom   22 type  4   force =    35.79777630   -1.14940287   25.87727812
     atom   23 type  5   force =     5.36359054    0.92108847   -0.07434894
     The local contribution  to forces
     atom    1 type  1   force =     0.18201644    4.76462303  -14.13854522
     atom    2 type  1   force =    39.89768860    6.24118834   -0.78027779
     atom    3 type  1   force =    40.08467127   -6.41989425    0.75966610
     atom    4 type  1   force =   -39.72838373    6.24200908   -0.78235254
     atom    5 type  1   force =   -39.11123528   -8.45570437    0.74249359
     atom    6 type  2   force =     0.19283941    3.78422835   14.12898197
     atom    7 type  2   force =     0.86038858   -3.63305151  -14.70601144
     atom    8 type  3   force =    52.60330908    0.10446698    0.08024433
     atom    9 type  3   force =   -51.42049683    2.75564623    0.08409626
     atom   10 type  3   force =    36.31047229    2.03034717   23.27161259
     atom   11 type  3   force =    35.40141336    0.76752012  -22.28229680
     atom   12 type  3   force =    35.54943658   -0.79386945   22.36828695
     atom   13 type  3   force =    36.35259283   -2.19129955  -23.33084562
     atom   14 type  3   force =   -36.22252036    2.01842171   23.33302906
     atom   15 type  3   force =   -35.30915813    0.74964354  -22.33851989
     atom   16 type  3   force =   -35.35323241   -0.93138732   22.64758120
     atom   17 type  3   force =   -36.14596445   -2.32922935  -23.61682505
     atom   18 type  4   force =     0.80619332   -4.39311855   14.59563829
     atom   19 type  4   force =    35.81777048   -0.90386357   25.43715898
     atom   20 type  4   force =    35.79995418    1.03756889  -25.42594693
     atom   21 type  4   force =   -35.64177778   -0.78247125   25.71631301
     atom   22 type  4   force =   -35.62074863    1.16111941  -25.71361402
     atom   23 type  5   force =    -5.20024901   -0.78572520    0.07157395
     The core correction contribution to forces
     atom    1 type  1   force =     0.00041210    0.00108427   -0.00090419
     atom    2 type  1   force =    -0.01033916   -0.00056779    0.00070006
     atom    3 type  1   force =    -0.00998771    0.00493346   -0.00128225
     atom    4 type  1   force =     0.01527370   -0.00692123    0.00064720
     atom    5 type  1   force =     0.00189179    0.00428838   -0.00063630
     atom    6 type  2   force =    -0.00020208    0.00214662    0.00296008
     atom    7 type  2   force =     0.00016356   -0.00297842   -0.00312341
     atom    8 type  3   force =    -0.03017816    0.00004568   -0.00029626
     atom    9 type  3   force =     0.01798909   -0.00515084   -0.00085264
     atom   10 type  3   force =    -0.02313512    0.00936775   -0.01605247
     atom   11 type  3   force =    -0.02472293    0.00953165    0.01698664
     atom   12 type  3   force =    -0.02129041   -0.01030194   -0.01591153
     atom   13 type  3   force =    -0.02117748   -0.00953468    0.01676087
     atom   14 type  3   force =     0.02254783    0.00889441   -0.01766651
     atom   15 type  3   force =     0.02396287    0.00959782    0.01779712
     atom   16 type  3   force =     0.02266525   -0.00939263   -0.01411261
     atom   17 type  3   force =     0.02192419   -0.00873559    0.01520628
     atom   18 type  4   force =     0.00014909   -0.00271045    0.00394929
     atom   19 type  4   force =    -0.00948582    0.00008094   -0.00968554
     atom   20 type  4   force =    -0.00948246    0.00033614    0.00952007
     atom   21 type  4   force =     0.00996608   -0.00024566   -0.00905937
     atom   22 type  4   force =     0.00977976    0.00009658    0.00860336
     atom   23 type  5   force =     0.00000000    0.00000000    0.00000000
     The Hubbard contrib.    to forces
     atom    1 type  1   force =     0.00000000    0.00000000    0.00000000
     atom    2 type  1   force =     0.00000000    0.00000000    0.00000000
     atom    3 type  1   force =     0.00000000    0.00000000    0.00000000
     atom    4 type  1   force =     0.00000000    0.00000000    0.00000000
     atom    5 type  1   force =     0.00000000    0.00000000    0.00000000
     atom    6 type  2   force =     0.00000000    0.00000000    0.00000000
     atom    7 type  2   force =     0.00000000    0.00000000    0.00000000
     atom    8 type  3   force =     0.00000000    0.00000000    0.00000000
     atom    9 type  3   force =     0.00000000    0.00000000    0.00000000
     atom   10 type  3   force =     0.00000000    0.00000000    0.00000000
     atom   11 type  3   force =     0.00000000    0.00000000    0.00000000
     atom   12 type  3   force =     0.00000000    0.00000000    0.00000000
     atom   13 type  3   force =     0.00000000    0.00000000    0.00000000
     atom   14 type  3   force =     0.00000000    0.00000000    0.00000000
     atom   15 type  3   force =     0.00000000    0.00000000    0.00000000
     atom   16 type  3   force =     0.00000000    0.00000000    0.00000000
     atom   17 type  3   force =     0.00000000    0.00000000    0.00000000
     atom   18 type  4   force =     0.00000000    0.00000000    0.00000000
     atom   19 type  4   force =     0.00000000    0.00000000    0.00000000
     atom   20 type  4   force =     0.00000000    0.00000000    0.00000000
     atom   21 type  4   force =     0.00000000    0.00000000    0.00000000
     atom   22 type  4   force =     0.00000000    0.00000000    0.00000000
     atom   23 type  5   force =     0.00000000    0.00000000    0.00000000
     The SCF correction term to forces
     atom    1 type  1   force =     0.00608327    0.00180913   -0.00721708
     atom    2 type  1   force =     0.00538636    0.00009135   -0.01466234
     atom    3 type  1   force =    -0.00541856   -0.00595127   -0.01443500
     atom    4 type  1   force =    -0.00085181    0.01541670   -0.01524362
     atom    5 type  1   force =     0.01064518   -0.02049809   -0.01614243
     atom    6 type  2   force =     0.00818908   -0.00725351   -0.01281391
     atom    7 type  2   force =    -0.00242153   -0.00881533   -0.00607479
     atom    8 type  3   force =     0.00404340    0.00403591   -0.01288155
     atom    9 type  3   force =    -0.00356130   -0.01226594   -0.01434451
     atom   10 type  3   force =     0.00883788   -0.00392844    0.00417966
     atom   11 type  3   force =     0.00356097    0.00581759    0.00424729
     atom   12 type  3   force =     0.00985901    0.00340899    0.00629723
     atom   13 type  3   force =     0.00197029   -0.00607710    0.00158226
     atom   14 type  3   force =    -0.00552051   -0.00012475    0.00768098
     atom   15 type  3   force =    -0.00306162    0.01163566    0.00084160
     atom   16 type  3   force =    -0.00801114   -0.00094404   -0.00018280
     atom   17 type  3   force =    -0.00407977   -0.01040326    0.00914518
     atom   18 type  4   force =    -0.00007221    0.00236633   -0.01616189
     atom   19 type  4   force =     0.00604633    0.00052084    0.00246971
     atom   20 type  4   force =     0.00633376    0.00024550    0.00341083
     atom   21 type  4   force =     0.00063453    0.00080864    0.00366786
     atom   22 type  4   force =    -0.00258165   -0.00075789    0.00296641
     atom   23 type  5   force =     0.00129342    0.00161762   -0.00130168

     Total force =     0.550118     Total SCF correction =     0.064189
     SCF correction compared to forces is large: reduce conv_thr to get better values


     Computing stress (Cartesian axis) and pressure


     negative rho (up, down):  9.090E-01 9.090E-01
          total   stress  (Ry/bohr**3)                   (kbar)     P=       94.50
   0.00064323   0.00001689  -0.00000218           94.62        2.48       -0.32
   0.00001689   0.00088278  -0.00001203            2.48      129.86       -1.77
  -0.00000218  -0.00001203   0.00040124           -0.32       -1.77       59.02


     Entering Dynamics:    iteration =     2
                           time      =   0.0002 pico-seconds


ATOMIC_POSITIONS (angstrom)
Hf            2.6701536513        2.8276962322        6.6039643013
Hf            1.2531409240        1.2868578978        5.0584661525
Hf            1.2556373872        7.3903786469        5.0880679067
Hf            4.0871669618        1.2868577076        5.0584660978
Hf            4.0846651155        7.3903889784        5.0880682473
Nb            2.6701538609        2.7975036853        3.5155842810
Nb            2.6701528217        5.8769531677        6.6349976603
Ta            1.2095238668        4.3415019728        5.0711257066
Ta            4.1307827053        4.3414999246        5.0711256527
Ta            1.3074057362        1.3146957963        2.0587774040
Ta            1.3029414349        1.3089641693        8.0945807938
Ta            1.3041631111        7.3764011424        2.0462355260
Ta            1.3078642484        7.3656578423        8.0860039642
Ta            4.0329015793        1.3146956380        2.0587772620
Ta            4.0373659271        1.3089640108        8.0945809223
Ta            4.0361445467        7.3764014679        2.0462355442
Ta            4.0324433647        7.3656581480        8.0860039513
Zr            2.6701528969        5.8668608078        3.5273834346
Zr            1.2439815657        4.3226516681        1.9999934612
Zr            1.2405320889        4.3546976164        8.1497620718
Zr            4.0963257765        4.3226517012        1.9999933623
Zr            4.0997753752        4.3546975750        8.1497622154
H             4.3935116746        5.3180740662        5.0721540106


     kinetic energy (Ekin) =         181.19347651 Ry
     temperature           =      866914.76573917 K 
     Ekin + Etot (const)   =       -2761.74837138 Ry
     Ions kinetic stress =         3200.08 (kbar)
                                    639.29        2393.46           0.06
                                   2393.46        8960.94           0.24
                                      0.06           0.24           0.00



     Linear momentum :    0.0000000000   -0.0000000000   -0.0000000000

     Writing config-only to output data dir outdir/pwscf.save/
     NEW-OLD atomic charge density approx. for the potential

     Check: negative core charge=   -0.000002

     negative rho (up, down):  9.082E-01 9.082E-01
     Generating pointlists ...
     new r_m :   0.1057 (alat units)  1.8651 (a.u.) for type    2
     new r_m :   0.0447 (alat units)  0.7883 (a.u.) for type    3
     new r_m :   0.1050 (alat units)  1.8541 (a.u.) for type    4
     new r_m :   0.0447 (alat units)  0.7883 (a.u.) for type    5

     total cpu time spent up to now is      562.5 secs

     Self-consistent Calculation

     iteration #  1     ecut=   120.00 Ry     beta= 0.70
     Davidson diagonalization with overlap
     c_bands:  1 eigenvalues not converged
     c_bands:  1 eigenvalues not converged
     ethr =  1.00E-06,  avg # of iterations = 20.0

     negative rho (up, down):  9.093E-01 9.093E-01

     total cpu time spent up to now is      642.2 secs

     total energy              =   -2942.04782168 Ry
     estimated scf accuracy    <       0.61134124 Ry

     total magnetization       =    -0.01 Bohr mag/cell
     absolute magnetization    =     0.01 Bohr mag/cell

     iteration #  2     ecut=   120.00 Ry     beta= 0.70
     Davidson diagonalization with overlap
     ethr =  2.21E-04,  avg # of iterations =  3.0

     negative rho (up, down):  9.086E-01 9.086E-01

     total cpu time spent up to now is      668.7 secs

     total energy              =   -2942.13725620 Ry
     estimated scf accuracy    <       0.25441288 Ry

     total magnetization       =    -0.01 Bohr mag/cell
     absolute magnetization    =     0.01 Bohr mag/cell

     iteration #  3     ecut=   120.00 Ry     beta= 0.70
     Davidson diagonalization with overlap
     ethr =  9.18E-05,  avg # of iterations =  1.0

     negative rho (up, down):  9.082E-01 9.082E-01

     total cpu time spent up to now is      684.1 secs

     total energy              =   -2942.15029447 Ry
     estimated scf accuracy    <       0.01934048 Ry

     total magnetization       =    -0.01 Bohr mag/cell
     absolute magnetization    =     0.01 Bohr mag/cell

     iteration #  4     ecut=   120.00 Ry     beta= 0.70
     Davidson diagonalization with overlap
     c_bands:  1 eigenvalues not converged
     c_bands:  1 eigenvalues not converged
     ethr =  6.98E-06,  avg # of iterations = 20.0

     negative rho (up, down):  9.080E-01 9.080E-01

     total cpu time spent up to now is      704.5 secs

     total energy              =   -2942.15171285 Ry
     estimated scf accuracy    <       0.00296142 Ry

     total magnetization       =    -0.01 Bohr mag/cell
     absolute magnetization    =     0.01 Bohr mag/cell

     iteration #  5     ecut=   120.00 Ry     beta= 0.70
     Davidson diagonalization with overlap
     ethr =  1.07E-06,  avg # of iterations = 12.0

     negative rho (up, down):  9.080E-01 9.080E-01

     Magnetic moment per site  (integrated on atomic sphere of radius R)
     atom   1 (R=0.055)  charge=  2.8628   -0.0000
     atom   2 (R=0.055)  charge=  2.8459   -0.0000
     atom   3 (R=0.055)  charge=  2.8456   -0.0000
     atom   4 (R=0.055)  charge=  2.8471    0.0000
     atom   5 (R=0.055)  charge=  2.8506    0.0000
     atom   6 (R=0.106)  charge= 10.0132   -0.0000
     atom   7 (R=0.106)  charge= 10.0130    0.0000
     atom   8 (R=0.045)  charge=  1.4192    0.0000
     atom   9 (R=0.045)  charge=  1.4347   -0.0000
     atom  10 (R=0.045)  charge=  1.4116   -0.0000
     atom  11 (R=0.045)  charge=  1.4117   -0.0000
     atom  12 (R=0.045)  charge=  1.4135   -0.0000
     atom  13 (R=0.045)  charge=  1.4112   -0.0000
     atom  14 (R=0.045)  charge=  1.4154   -0.0000
     atom  15 (R=0.045)  charge=  1.4146   -0.0000
     atom  16 (R=0.045)  charge=  1.4159   -0.0000
     atom  17 (R=0.045)  charge=  1.4151   -0.0000
     atom  18 (R=0.105)  charge=  8.9784    0.0001
     atom  19 (R=0.105)  charge=  8.6244   -0.0001
     atom  20 (R=0.105)  charge=  8.6206    0.0000
     atom  21 (R=0.105)  charge=  8.6254    0.0000
     atom  22 (R=0.105)  charge=  8.6194    0.0000
     atom  23 (R=0.045)  charge=  0.7673   -0.0000

     total cpu time spent up to now is      724.5 secs

     End of self-consistent calculation

 ------ SPIN UP ------------


          k = 0.0000 0.0000 0.0000 ( 61588 PWs)   bands (ev):

   -60.7616 -60.7593 -60.7168 -60.7141 -60.6887 -60.6671 -60.6446 -60.6232
   -60.5857 -60.5375 -54.4115 -54.3527 -54.2618 -54.2186 -52.7380 -46.2836
   -46.2648 -41.6233 -41.6139 -41.5298 -41.5218 -39.8162 -29.0527 -27.7689
   -27.7591 -27.6854 -27.6703 -27.5770 -27.5666 -27.4489 -27.4355 -27.3687
   -27.3138 -27.2925 -27.2481 -27.2407 -27.2346 -27.2055 -27.1839 -27.1483
   -27.1313 -27.1258 -26.9399 -26.9387 -26.9310 -26.9292 -26.8709 -26.8664
   -26.8449 -26.8291 -26.7675 -26.7386 -24.1924 -23.9842 -23.6719 -23.5934
   -23.3170 -23.2040 -23.1564 -23.0630 -22.9532 -22.8726 -22.8694 -22.6432
   -22.5194 -22.4691 -22.4097 -22.3651 -22.2817 -22.2442 -21.7887 -21.7286
   -21.6510 -20.1915 -19.9146 -19.8291 -19.8227 -19.5994 -19.5916 -19.5841
   -19.5733 -19.5603 -19.5259 -19.3562 -19.3428 -18.1624 -17.9637 -17.8257
     0.6810   1.8671   2.9429   3.1569   3.3671   3.4753   3.5482   3.6069
     3.6555   3.8956   3.9226   4.1453   4.2668   4.4715   4.5554   4.7034
     4.7715   4.9450   5.0349   5.1074   5.1735   5.2737   5.2797   5.3325
     5.3891   5.4998   5.5598   5.6507   5.7410   5.7639   5.7799   5.9112
     6.0566   6.1099   6.2030   6.2383   6.2641   6.3223   6.3601   6.3778
     6.5984   6.6187   6.6600   6.7481   6.8576   6.9903   7.0022   7.0536
     7.1376   7.1608   7.2779   7.3104   7.3469   7.4662   7.5369   7.5678
     7.6350   7.7869   7.8993   7.9286   8.0758   8.1024   8.1260   8.1998
     8.2382   8.2894   8.3678   8.3977   8.4813   8.5131   8.6286   8.6719
     8.7840   8.9184   8.9269   9.0304   9.0806   9.1386   9.2737

 ------ SPIN DOWN ----------


          k = 0.0000 0.0000 0.0000 ( 61588 PWs)   bands (ev):

   -60.7617 -60.7595 -60.7170 -60.7142 -60.6889 -60.6673 -60.6448 -60.6235
   -60.5857 -60.5378 -54.4115 -54.3527 -54.2618 -54.2186 -52.7380 -46.2836
   -46.2648 -41.6234 -41.6139 -41.5298 -41.5219 -39.8162 -29.0530 -27.7691
   -27.7593 -27.6856 -27.6705 -27.5772 -27.5668 -27.4491 -27.4358 -27.3688
   -27.3140 -27.2926 -27.2482 -27.2408 -27.2346 -27.2057 -27.1840 -27.1485
   -27.1313 -27.1260 -26.9401 -26.9389 -26.9312 -26.9294 -26.8712 -26.8666
   -26.8451 -26.8294 -26.7678 -26.7390 -24.1924 -23.9842 -23.6719 -23.5934
   -23.3171 -23.2041 -23.1564 -23.0631 -22.9532 -22.8726 -22.8694 -22.6432
   -22.5194 -22.4691 -22.4097 -22.3652 -22.2817 -22.2442 -21.7887 -21.7286
   -21.6510 -20.1916 -19.9145 -19.8292 -19.8227 -19.5995 -19.5917 -19.5842
   -19.5734 -19.5604 -19.5259 -19.3563 -19.3428 -18.1625 -17.9637 -17.8258
     0.6810   1.8670   2.9426   3.1569   3.3670   3.4750   3.5481   3.6068
     3.6554   3.8956   3.9222   4.1451   4.2667   4.4714   4.5553   4.7032
     4.7713   4.9448   5.0347   5.1073   5.1734   5.2736   5.2795   5.3323
     5.3888   5.4997   5.5597   5.6506   5.7409   5.7638   5.7797   5.9111
     6.0563   6.1096   6.2028   6.2382   6.2640   6.3220   6.3600   6.3777
     6.5982   6.6185   6.6598   6.7479   6.8574   6.9899   7.0020   7.0529
     7.1370   7.1606   7.2773   7.3101   7.3462   7.4658   7.5363   7.5677
     7.6346   7.7867   7.8991   7.9284   8.0754   8.1020   8.1257   8.1995
     8.2376   8.2891   8.3673   8.3975   8.4811   8.5129   8.6284   8.6717
     8.7840   8.9178   8.9266   9.0301   9.0802   9.1378   9.2723

     the Fermi energy is     7.2550 ev

!    total energy              =   -2942.15151475 Ry
     estimated scf accuracy    <       0.00075920 Ry
     smearing contrib. (-TS)   =      -0.10051977 Ry
     internal energy E=F+TS    =   -2942.05099498 Ry

     total magnetization       =    -0.01 Bohr mag/cell
     absolute magnetization    =     0.01 Bohr mag/cell

     convergence has been achieved in   5 iterations

     negative rho (up, down):  9.080E-01 9.080E-01

     Forces acting on atoms (cartesian axes, Ry/au):

     atom    1 type  1   force =    -0.00234145   -0.01939219    0.01014561
     atom    2 type  1   force =    -0.11528293   -0.01290617   -0.00948956
     atom    3 type  1   force =    -0.11535115    0.01195416   -0.00315147
     atom    4 type  1   force =     0.14990459   -0.00937556   -0.01556295
     atom    5 type  1   force =     0.10219447   -0.02477609    0.00239379
     atom    6 type  2   force =     0.00024436   -0.01740338    0.00929841
     atom    7 type  2   force =    -0.01134572    0.01323623   -0.00182615
     atom    8 type  3   force =    -0.11021164    0.00444304   -0.00508326
     atom    9 type  3   force =    -0.46810724   -1.99315436    0.00348894
     atom   10 type  3   force =    -0.02397987   -0.03132801   -0.05928993
     atom   11 type  3   force =    -0.02254402   -0.03447330    0.05898714
     atom   12 type  3   force =    -0.01057497    0.03462244   -0.05319131
     atom   13 type  3   force =    -0.01373231    0.02772914    0.06324331
     atom   14 type  3   force =     0.01768738   -0.03386113   -0.06076021
     atom   15 type  3   force =     0.01717357   -0.03592136    0.06133153
     atom   16 type  3   force =     0.01339046    0.04108347   -0.05153722
     atom   17 type  3   force =     0.01548434    0.03334521    0.06216611
     atom   18 type  4   force =    -0.01383363    0.02282411   -0.01658605
     atom   19 type  4   force =    -0.12484553   -0.00687225   -0.11146568
     atom   20 type  4   force =    -0.12804450    0.00421437    0.11624092
     atom   21 type  4   force =     0.12247423   -0.00721984   -0.11133839
     atom   22 type  4   force =     0.12731507    0.00236973    0.11555024
     atom   23 type  5   force =     0.59432650    2.03086173   -0.00356384
     The non-local contrib.  to forces
     atom    1 type  1   force =     0.00845891   -0.00637875    0.01525069
     atom    2 type  1   force =    -0.24061270   -0.16314863    0.00986085
     atom    3 type  1   force =    -0.23617257    0.15612900   -0.02921057
     atom    4 type  1   force =     0.25190277   -0.13659298    0.01003867
     atom    5 type  1   force =     0.20343374    0.10562273   -0.02500929
     atom    6 type  2   force =    -0.00560881   -0.04584350   -0.06355528
     atom    7 type  2   force =     0.00420382    0.06657605    0.06317834
     atom    8 type  3   force =    -0.25286562    0.00645677   -0.00810535
     atom    9 type  3   force =     0.42856503    0.90324765    0.00276885
     atom   10 type  3   force =    -0.21280779    0.00268741   -0.20397694
     atom   11 type  3   force =    -0.22272439    0.00671514    0.19752852
     atom   12 type  3   force =    -0.19642522   -0.02322252   -0.18137480
     atom   13 type  3   force =    -0.20489788   -0.00745463    0.21028677
     atom   14 type  3   force =     0.21442694   -0.00342009   -0.20700258
     atom   15 type  3   force =     0.22507381    0.00186428    0.19864593
     atom   16 type  3   force =     0.20281525   -0.01716772   -0.17573396
     atom   17 type  3   force =     0.20984638   -0.00258401    0.20389659
     atom   18 type  4   force =     0.00258362    0.05308579   -0.06707391
     atom   19 type  4   force =     0.05945144    0.00979531    0.07586654
     atom   20 type  4   force =     0.05611377   -0.01371491   -0.06828237
     atom   21 type  4   force =    -0.06148422    0.01846881    0.06731184
     atom   22 type  4   force =    -0.05601005   -0.00475230   -0.05786115
     atom   23 type  5   force =    -0.03431644   -0.16672256   -0.00365737
     The ionic contribution  to forces
     atom    1 type  1   force =    -0.25883644   -4.88476752   14.19873668
     atom    2 type  1   force =   -39.77732149   -6.14695015    0.77954333
     atom    3 type  1   force =   -39.90979735    6.29880150   -0.71253175
     atom    4 type  1   force =    39.61872134   -6.21991578    0.77865510
     atom    5 type  1   force =    39.41004957    7.50434419   -0.70308915
     atom    6 type  2   force =    -0.27182219   -3.85779855  -14.10748696
     atom    7 type  2   force =    -0.85355256    3.83107009   14.67146214
     atom    8 type  3   force =   -52.54683372   -0.09433934   -0.06507169
     atom    9 type  3   force =    50.23316569   -6.75209449   -0.07208450
     atom   10 type  3   force =   -36.11149070   -2.09894753  -23.11738914
     atom   11 type  3   force =   -35.18550914   -0.85160672   22.12148365
     atom   12 type  3   force =   -35.34396084    0.86993180  -22.22445625
     atom   13 type  3   force =   -36.13514186    2.25449942   23.15482804
     atom   14 type  3   force =    36.01540020   -2.12102660  -23.18506760
     atom   15 type  3   force =    35.09017865   -0.87320520   22.18897348
     atom   16 type  3   force =    35.17605847    1.00780526  -22.43395208
     atom   17 type  3   force =    35.96478929    2.39419160   23.36728717
     atom   18 type  4   force =    -0.80285684    4.58555645  -14.54909634
     atom   19 type  4   force =   -36.01692694    0.90252648  -25.64390376
     atom   20 type  4   force =   -36.00023591   -1.00655633   25.62231172
     atom   21 type  4   force =    35.82453393    0.79143463  -25.98312891
     atom   22 type  4   force =    35.80809057   -1.11488382   25.96445301
     atom   23 type  5   force =     6.07329828    5.58193061   -0.05047621
     The local contribution  to forces
     atom    1 type  1   force =     0.24013832    4.88459915  -14.22151429
     atom    2 type  1   force =    39.90762254    6.30288451   -0.82121280
     atom    3 type  1   force =    40.03646817   -6.44774930    0.71670774
     atom    4 type  1   force =   -39.74429250    6.34898091   -0.82764074
     atom    5 type  1   force =   -39.53099667   -7.62342566    0.70813859
     atom    6 type  2   force =     0.27149849    3.89278518   14.16476422
     atom    7 type  2   force =     0.83285512   -3.89750075  -14.75565067
     atom    8 type  3   force =    52.72155198    0.09036800    0.04707254
     atom    9 type  3   force =   -51.17640062    3.79722956    0.05041423
     atom   10 type  3   force =    36.32403702    2.04731733   23.27832925
     atom   11 type  3   force =    35.40759032    0.80763209  -22.27022359
     atom   12 type  3   force =    35.55328738   -0.79730819   22.36771768
     atom   13 type  3   force =    36.34415462   -2.21730877  -23.30939650
     atom   14 type  3   force =   -36.24192653    2.07206419   23.34661734
     atom   15 type  3   force =   -35.32568773    0.83146516  -22.33459836
     atom   16 type  3   force =   -35.39449967   -0.93438510   22.56986998
     atom   17 type  3   force =   -36.18359806   -2.35548862  -23.51351741
     atom   18 type  4   force =     0.78145927   -4.61749988   14.58066061
     atom   19 type  4   force =    35.83923934   -0.91667823   25.46963378
     atom   20 type  4   force =    35.82378061    1.02491026  -25.44450329
     atom   21 type  4   force =   -35.65223629   -0.81359653   25.81871742
     atom   22 type  4   force =   -35.63771617    1.12337629  -25.79840576
     atom   23 type  5   force =    -5.44795049   -3.39037151    0.04722516
     The core correction contribution to forces
     atom    1 type  1   force =     0.00207055    0.00137138   -0.00053578
     atom    2 type  1   force =    -0.01005501   -0.00140382    0.00038951
     atom    3 type  1   force =    -0.01127394    0.00348741   -0.00130872
     atom    4 type  1   force =     0.01716031   -0.00196533    0.00059777
     atom    5 type  1   force =     0.00484938    0.00735848   -0.00069556
     atom    6 type  2   force =     0.00049559    0.00237610    0.00310312
     atom    7 type  2   force =    -0.00012001   -0.00331184   -0.00257880
     atom    8 type  3   force =    -0.03054210    0.00069363   -0.00028435
     atom    9 type  3   force =     0.03068876    0.04659568    0.00041095
     atom   10 type  3   force =    -0.02252140    0.00919887   -0.01567326
     atom   11 type  3   force =    -0.02400123    0.00952945    0.01657946
     atom   12 type  3   force =    -0.02116252   -0.00969881   -0.01580739
     atom   13 type  3   force =    -0.02135439   -0.00921663    0.01673754
     atom   14 type  3   force =     0.02323540    0.00896370   -0.01811201
     atom   15 type  3   force =     0.02464192    0.00935831    0.01865128
     atom   16 type  3   force =     0.02242321   -0.00854544   -0.01452754
     atom   17 type  3   force =     0.02245751   -0.00786421    0.01539225
     atom   18 type  4   force =    -0.00015723   -0.00299977    0.00325199
     atom   19 type  4   force =    -0.00958835    0.00003479   -0.00970556
     atom   20 type  4   force =    -0.00954638    0.00039144    0.00942316
     atom   21 type  4   force =     0.00972601   -0.00048155   -0.00908443
     atom   22 type  4   force =     0.00952213   -0.00023355    0.00859274
     atom   23 type  5   force =     0.00000000    0.00000000    0.00000000
     The Hubbard contrib.    to forces
     atom    1 type  1   force =     0.00000000    0.00000000    0.00000000
     atom    2 type  1   force =     0.00000000    0.00000000    0.00000000
     atom    3 type  1   force =     0.00000000    0.00000000    0.00000000
     atom    4 type  1   force =     0.00000000    0.00000000    0.00000000
     atom    5 type  1   force =     0.00000000    0.00000000    0.00000000
     atom    6 type  2   force =     0.00000000    0.00000000    0.00000000
     atom    7 type  2   force =     0.00000000    0.00000000    0.00000000
     atom    8 type  3   force =     0.00000000    0.00000000    0.00000000
     atom    9 type  3   force =     0.00000000    0.00000000    0.00000000
     atom   10 type  3   force =     0.00000000    0.00000000    0.00000000
     atom   11 type  3   force =     0.00000000    0.00000000    0.00000000
     atom   12 type  3   force =     0.00000000    0.00000000    0.00000000
     atom   13 type  3   force =     0.00000000    0.00000000    0.00000000
     atom   14 type  3   force =     0.00000000    0.00000000    0.00000000
     atom   15 type  3   force =     0.00000000    0.00000000    0.00000000
     atom   16 type  3   force =     0.00000000    0.00000000    0.00000000
     atom   17 type  3   force =     0.00000000    0.00000000    0.00000000
     atom   18 type  4   force =     0.00000000    0.00000000    0.00000000
     atom   19 type  4   force =     0.00000000    0.00000000    0.00000000
     atom   20 type  4   force =     0.00000000    0.00000000    0.00000000
     atom   21 type  4   force =     0.00000000    0.00000000    0.00000000
     atom   22 type  4   force =     0.00000000    0.00000000    0.00000000
     atom   23 type  5   force =     0.00000000    0.00000000    0.00000000
     The SCF correction term to forces
     atom    1 type  1   force =     0.00517379   -0.01396206    0.01661087
     atom    2 type  1   force =     0.00443032   -0.00403371    0.02033210
     atom    3 type  1   force =     0.00477112    0.00153994    0.02159439
     atom    4 type  1   force =     0.00575924    0.00037200    0.02118881
     atom    5 type  1   force =     0.01420504   -0.01842144    0.02145176
     atom    6 type  2   force =     0.00502787   -0.00866822    0.01087588
     atom    7 type  2   force =     0.00461450    0.01665706    0.02016540
     atom    8 type  3   force =    -0.00217559    0.00151836    0.01970816
     atom    9 type  3   force =     0.01522048    0.01212162    0.02038199
     atom   10 type  3   force =    -0.00185042    0.00867029   -0.00217726
     atom   11 type  3   force =     0.00144700   -0.00648887   -0.00797832
     atom   12 type  3   force =    -0.00296719   -0.00482545   -0.00086798
     atom   13 type  3   force =     0.00285378    0.00746412   -0.01080996
     atom   14 type  3   force =     0.00589795    0.00981205    0.00120721
     atom   15 type  3   force =     0.00231350   -0.00514953   -0.01193823
     atom   16 type  3   force =     0.00593978   -0.00636915    0.00120895
[...]
     3.6810   3.8954   3.9026   4.0979   4.2221   4.4769   4.6421   4.6735
     4.7332   4.9059   5.0147   5.0888   5.1926   5.2413   5.2709   5.3613
     5.4144   5.5275   5.6053   5.6984   5.7058   5.7270   5.7452   5.7749
     5.9120   6.0599   6.1183   6.1764   6.2299   6.2692   6.3485   6.3890
     6.5365   6.5575   6.6619   6.7368   6.7919   6.9605   6.9759   7.0425
     7.0976   7.1304   7.2458   7.2692   7.2986   7.4142   7.5294   7.5975
     7.6092   7.7009   7.8762   7.9005   8.0712   8.0929   8.1505   8.1901
     8.2294   8.2533   8.3177   8.3423   8.3742   8.5598   8.6435   8.6841
     8.8477   8.8887   8.9866   9.0588   9.0777   9.1847   9.2628

     the Fermi energy is     7.2228 ev

!    total energy              =   -2943.02325911 Ry
     estimated scf accuracy    <       0.00087414 Ry
     smearing contrib. (-TS)   =      -0.10015142 Ry
     internal energy E=F+TS    =   -2942.92310769 Ry

     total magnetization       =    -0.00 Bohr mag/cell
     absolute magnetization    =     0.01 Bohr mag/cell

     convergence has been achieved in   6 iterations

     negative rho (up, down):  9.091E-01 9.091E-01

     Forces acting on atoms (cartesian axes, Ry/au):

     atom    1 type  1   force =    -0.02533304   -0.03010643    0.01973739
     atom    2 type  1   force =    -0.13003063   -0.01360832   -0.00022598
     atom    3 type  1   force =    -0.12194420    0.01338239    0.00473558
     atom    4 type  1   force =     0.16711696   -0.00298348    0.00136481
     atom    5 type  1   force =     0.11649681   -0.00431247    0.00520142
     atom    6 type  2   force =    -0.02059237   -0.01981639    0.00134294
     atom    7 type  2   force =     0.00280160    0.00418119   -0.01229251
     atom    8 type  3   force =    -0.10991747    0.00187082   -0.00360264
     atom    9 type  3   force =     0.15328957    0.02231639   -0.00481380
     atom   10 type  3   force =    -0.02219103   -0.02858461   -0.06027590
     atom   11 type  3   force =    -0.01844038   -0.03276771    0.05397318
     atom   12 type  3   force =    -0.01569673    0.03625935   -0.05412921
     atom   13 type  3   force =    -0.01527041    0.03120152    0.05915765
     atom   14 type  3   force =     0.02348974   -0.03416949   -0.06024217
     atom   15 type  3   force =     0.02256975   -0.04091262    0.05484586
     atom   16 type  3   force =     0.01621558    0.03720621   -0.05833761
     atom   17 type  3   force =     0.01636120    0.03200686    0.06163529
     atom   18 type  4   force =     0.00238785    0.01201010   -0.00772396
     atom   19 type  4   force =    -0.12747228   -0.00394571   -0.11542975
     atom   20 type  4   force =    -0.13018849    0.00645822    0.11595094
     atom   21 type  4   force =     0.12837827   -0.00121072   -0.11725077
     atom   22 type  4   force =     0.13130220    0.00967365    0.11879233
     atom   23 type  5   force =    -0.04333250    0.00585124   -0.00241308
     The non-local contrib.  to forces
     atom    1 type  1   force =    -0.00571776   -0.00022813    0.01935682
     atom    2 type  1   force =    -0.24446669   -0.16075764    0.01935711
     atom    3 type  1   force =    -0.25247161    0.15289484   -0.02627748
     atom    4 type  1   force =     0.10389369   -0.21544858    0.01302912
     atom    5 type  1   force =     0.25587296    0.14220232   -0.02530133
     atom    6 type  2   force =    -0.01257900   -0.04214792   -0.06102285
     atom    7 type  2   force =     0.00244790    0.06314643    0.06280995
     atom    8 type  3   force =    -0.26645925   -0.00303476   -0.00368946
     atom    9 type  3   force =     0.27020139   -0.02411544    0.01309202
     atom   10 type  3   force =    -0.22330104    0.00676297   -0.20939126
     atom   11 type  3   force =    -0.23066349    0.00723528    0.19324424
     atom   12 type  3   force =    -0.19130537   -0.01668104   -0.17406405
     atom   13 type  3   force =    -0.19770168    0.00157588    0.20600879
     atom   14 type  3   force =     0.23223919    0.01435803   -0.20456562
     atom   15 type  3   force =     0.24821196    0.01889217    0.18129791
     atom   16 type  3   force =     0.19282498   -0.01611980   -0.18804595
     atom   17 type  3   force =     0.19789271    0.00020561    0.21644383
     atom   18 type  4   force =    -0.00096145    0.05355367   -0.06488168
     atom   19 type  4   force =     0.05976041    0.01212027    0.06938999
     atom   20 type  4   force =     0.05606316   -0.01202089   -0.06404406
     atom   21 type  4   force =    -0.06855171    0.01682450    0.07004242
     atom   22 type  4   force =    -0.06247640   -0.00709049   -0.06490017
     atom   23 type  5   force =    -0.02776726   -0.00536987   -0.00211269
     The ionic contribution  to forces
     atom    1 type  1   force =    -0.68216745   -4.65013639   14.69671020
     atom    2 type  1   force =   -39.74007341   -6.33427415    0.76675010
     atom    3 type  1   force =   -39.52360830    5.93955195   -0.72020328
     atom    4 type  1   force =    38.53345024   -7.22529023    0.68880905
     atom    5 type  1   force =    39.50944025    5.28029690   -0.72833021
     atom    6 type  2   force =    -0.70377743   -3.64498126  -14.65138281
     atom    7 type  2   force =     0.33364434    3.63423513   13.62980341
     atom    8 type  3   force =   -52.23963295    0.48857094   -0.07011590
     atom    9 type  3   force =    51.59616769    2.13049503   -0.00934226
     atom   10 type  3   force =   -36.06532606   -2.16884150  -23.19748323
     atom   11 type  3   force =   -35.13424177   -0.92349346   22.20964272
     atom   12 type  3   force =   -35.18907706    0.70674339  -22.12870516
     atom   13 type  3   force =   -35.97587508    2.08624237   23.06158605
     atom   14 type  3   force =    35.85335153   -2.27378396  -23.44713393
     atom   15 type  3   force =    34.88240273   -1.03846001   22.49388868
     atom   16 type  3   force =    35.15991980    0.59402831  -22.09912450
     atom   17 type  3   force =    35.93894019    1.96277375   23.03507826
     atom   18 type  4   force =     0.30904568    4.41927210  -13.58810839
     atom   19 type  4   force =   -35.88745413    1.08784277  -25.59880776
     atom   20 type  4   force =   -35.86252416   -0.81807775   25.57796362
     atom   21 type  4   force =    35.82708564    1.29753610  -25.65747471
     atom   22 type  4   force =    35.79179823   -0.59628686   25.62667398
     atom   23 type  5   force =     3.26851148    0.04603683    0.10930609
     The local contribution  to forces
     atom    1 type  1   force =     0.65294735    4.61947908  -14.68671889
     atom    2 type  1   force =    39.85049343    6.48903454   -0.78175234
     atom    3 type  1   force =    39.65788646   -6.08219814    0.75619675
     atom    4 type  1   force =   -38.45886001    7.46704173   -0.69404200
     atom    5 type  1   force =   -39.66917855   -5.43340486    0.76578158
     atom    6 type  2   force =     0.68729349    3.66986164   14.71288341
     atom    7 type  2   force =    -0.34435339   -3.69806587  -13.69189117
     atom    8 type  3   force =    52.42243668   -0.49083772    0.07554840
     atom    9 type  3   force =   -51.73247524   -2.09730910   -0.00402133
     atom   10 type  3   force =    36.28186708    2.12405128   23.36243916
     atom   11 type  3   force =    35.36768291    0.87418236  -22.36702354
     atom   12 type  3   force =    35.37970466   -0.64207083   22.26186052
     atom   13 type  3   force =    36.17769776   -2.04174927  -23.22392282
     atom   14 type  3   force =   -36.08345678    2.22125245   23.60189396
     atom   15 type  3   force =   -35.13390471    0.97077057  -22.63299028
     atom   16 type  3   force =   -35.36081335   -0.53053352   22.23386760
     atom   17 type  3   force =   -36.14613658   -1.91738286  -23.19694089
     atom   18 type  4   force =    -0.31761009   -4.46629420   13.64055070
     atom   19 type  4   force =    35.70259417   -1.10594787   25.42536843
     atom   20 type  4   force =    35.68164973    0.83150804  -25.41105326
     atom   21 type  4   force =   -35.63653945   -1.31957756   25.48243585
     atom   22 type  4   force =   -35.60730079    0.60783469  -25.45617750
     atom   23 type  5   force =    -3.28146933   -0.03146477   -0.10897277
     The core correction contribution to forces
     atom    1 type  1   force =     0.00341588    0.00206743   -0.00213549
     atom    2 type  1   force =    -0.01132414   -0.00118980    0.00087064
     atom    3 type  1   force =    -0.01275774    0.00277745   -0.00133278
     atom    4 type  1   force =    -0.00455957   -0.01266323   -0.00056052
     atom    5 type  1   force =     0.01292783    0.00106676   -0.00126987
     atom    6 type  2   force =     0.00021975    0.00211992    0.00234614
     atom    7 type  2   force =    -0.00002371   -0.00321701   -0.00256587
     atom    8 type  3   force =    -0.03279298    0.00050642   -0.00024752
     atom    9 type  3   force =     0.03090134    0.00164149    0.00104909
     atom   10 type  3   force =    -0.02349232    0.00961285   -0.01638870
     atom   11 type  3   force =    -0.02484790    0.00985308    0.01651783
     atom   12 type  3   force =    -0.02201081   -0.00890582   -0.01580911
     atom   13 type  3   force =    -0.02140679   -0.00824033    0.01730961
     atom   14 type  3   force =     0.02364161    0.01045079   -0.01491196
     atom   15 type  3   force =     0.02575590    0.01128414    0.01479876
     atom   16 type  3   force =     0.02125718   -0.00994615   -0.01546176
     atom   17 type  3   force =     0.02131470   -0.00908716    0.01624049
     atom   18 type  4   force =     0.00003998   -0.00305158    0.00317343
     atom   19 type  4   force =    -0.00966026   -0.00015668   -0.00933680
     atom   20 type  4   force =    -0.00962058    0.00022893    0.00914123
     atom   21 type  4   force =     0.01019724   -0.00040253   -0.00932031
     atom   22 type  4   force =     0.01015010   -0.00010578    0.00906265
     atom   23 type  5   force =     0.00000000    0.00000000    0.00000000
     The Hubbard contrib.    to forces
     atom    1 type  1   force =     0.00000000    0.00000000    0.00000000
     atom    2 type  1   force =     0.00000000    0.00000000    0.00000000
     atom    3 type  1   force =     0.00000000    0.00000000    0.00000000
     atom    4 type  1   force =     0.00000000    0.00000000    0.00000000
     atom    5 type  1   force =     0.00000000    0.00000000    0.00000000
     atom    6 type  2   force =     0.00000000    0.00000000    0.00000000
     atom    7 type  2   force =     0.00000000    0.00000000    0.00000000
     atom    8 type  3   force =     0.00000000    0.00000000    0.00000000
     atom    9 type  3   force =     0.00000000    0.00000000    0.00000000
     atom   10 type  3   force =     0.00000000    0.00000000    0.00000000
     atom   11 type  3   force =     0.00000000    0.00000000    0.00000000
     atom   12 type  3   force =     0.00000000    0.00000000    0.00000000
     atom   13 type  3   force =     0.00000000    0.00000000    0.00000000
     atom   14 type  3   force =     0.00000000    0.00000000    0.00000000
     atom   15 type  3   force =     0.00000000    0.00000000    0.00000000
     atom   16 type  3   force =     0.00000000    0.00000000    0.00000000
     atom   17 type  3   force =     0.00000000    0.00000000    0.00000000
     atom   18 type  4   force =     0.00000000    0.00000000    0.00000000
     atom   19 type  4   force =     0.00000000    0.00000000    0.00000000
     atom   20 type  4   force =     0.00000000    0.00000000    0.00000000
     atom   21 type  4   force =     0.00000000    0.00000000    0.00000000
     atom   22 type  4   force =     0.00000000    0.00000000    0.00000000
     atom   23 type  5   force =     0.00000000    0.00000000    0.00000000
     The SCF correction term to forces
     atom    1 type  1   force =     0.00566175   -0.00109155   -0.00708062
     atom    2 type  1   force =     0.01481298   -0.00622439   -0.00505686
     atom    3 type  1   force =     0.00847980    0.00055317   -0.00325298
     atom    4 type  1   force =    -0.00733458   -0.01642630   -0.00547620
     atom    5 type  1   force =     0.00690713    0.00572329   -0.00528411
     atom    6 type  2   force =     0.00772363   -0.00447189   -0.00108632
     atom    7 type  2   force =     0.01055928    0.00827939   -0.01005420
     atom    8 type  3   force =     0.00600384    0.00686282   -0.00470354
     atom    9 type  3   force =    -0.01203281    0.01180128   -0.00519669
     atom   10 type  3   force =     0.00753412    0.00002667    0.00094277
     atom   11 type  3   force =     0.00310267   -0.00034810    0.00198657
     atom   12 type  3   force =     0.00646465   -0.00262948    0.00298322
     atom   13 type  3   force =     0.00148819   -0.00643024   -0.00142935
     atom   14 type  3   force =    -0.00281300   -0.00624992    0.00487001
     atom   15 type  3   force =    -0.00042333   -0.00320261   -0.00175458
     atom   16 type  3   force =     0.00249977   -0.00002574    0.01082163
     atom   17 type  3   force =     0.00382300   -0.00430562   -0.00879178
     atom   18 type  4   force =     0.01134654    0.00872699    0.00193662
     atom   19 type  4   force =     0.00676034    0.00239267   -0.00164897
     atom   20 type  4   force =     0.00371617    0.00501677    0.00433804
     atom   21 type  4   force =    -0.00434064    0.00460565   -0.00253939
     atom   22 type  4   force =    -0.00139614    0.00551897    0.00452799
     atom   23 type  5   force =    -0.00313458   -0.00315407   -0.00023908

     Total force =     0.525116     Total SCF correction =     0.051212


     Computing stress (Cartesian axis) and pressure


     negative rho (up, down):  9.091E-01 9.091E-01
          total   stress  (Ry/bohr**3)                   (kbar)     P=       82.79
   0.00063108   0.00001056  -0.00000263           92.83        1.55       -0.39
   0.00001056   0.00065821  -0.00001244            1.55       96.83       -1.83
  -0.00000263  -0.00001244   0.00039918           -0.39       -1.83       58.72


     Entering Dynamics:    iteration =     8
                           time      =   0.0008 pico-seconds


ATOMIC_POSITIONS (angstrom)
Hf            2.6706154529        2.8294090050        6.6039666292
Hf            1.2535499946        1.2885744852        5.0584644928
Hf            1.2560487089        7.3921059455        5.0880692257
Hf            4.0876875093        1.2885754977        5.0584635161
Hf            4.0851290866        7.3921810590        5.0880703853
Nb            2.6706176133        2.7992148774        3.5155954302
Nb            2.6706109433        5.8786822693        6.6349886695
Ta            1.2099406401        4.3432256423        5.0711239075
Ta            4.0956865759        4.2273747333        5.0690130709
Ta            1.3078569301        1.3164046624        2.0587520472
Ta            1.3033934053        1.3106709395        8.0946046909
Ta            1.3046186802        7.3781384229        2.0462119622
Ta            1.3083191871        7.3673928314        8.0860298256
Ta            4.0333708207        1.3164039177        2.0587508322
Ta            4.0378349000        1.3106702492        8.0946059506
Ta            4.0366121737        7.3781407417        2.0462123443
Ta            4.0329110699        7.3673949633        8.0860293623
Zr            2.6706104599        5.8685982330        3.5273780202
Zr            1.2443372745        4.3243685551        1.9998959150
Zr            1.2408845941        4.3564243349        8.1498607698
Zr            4.0968912714        4.3243689336        1.9998979677
Zr            4.1003452250        4.3564233968        8.1498591049
H             6.8303590177       12.8614637117        5.2618616136


     kinetic energy (Ekin) =        3722.51604805 Ry
     temperature           =    17810266.62737230 K 
     Ekin + Etot (const)   =         779.49278894 Ry
     Ions kinetic stress =        65743.72 (kbar)
                                  17992.80       56774.44        1269.35
                                  56774.44      179148.78        4005.00
                                   1269.35        4005.00          89.59



     Linear momentum :    0.0000000000   -0.0000000000   -0.0000000000

     The maximum number of steps has been reached.

     End of molecular dynamics calculation

     diffusion coefficients :
     atom     1   D =       0.00000011 cm^2/s
     atom     2   D =       0.00000011 cm^2/s
     atom     3   D =       0.00000012 cm^2/s
     atom     4   D =       0.00000012 cm^2/s
     atom     5   D =       0.00000012 cm^2/s
     atom     6   D =       0.00000011 cm^2/s
     atom     7   D =       0.00000012 cm^2/s
     atom     8   D =       0.00000011 cm^2/s
     atom     9   D =       0.00028955 cm^2/s
     atom    10   D =       0.00000011 cm^2/s
     atom    11   D =       0.00000011 cm^2/s
     atom    12   D =       0.00000012 cm^2/s
     atom    13   D =       0.00000012 cm^2/s
     atom    14   D =       0.00000011 cm^2/s
     atom    15   D =       0.00000011 cm^2/s
     atom    16   D =       0.00000012 cm^2/s
     atom    17   D =       0.00000012 cm^2/s
     atom    18   D =       0.00000012 cm^2/s
     atom    19   D =       0.00000011 cm^2/s
     atom    20   D =       0.00000011 cm^2/s
     atom    21   D =       0.00000012 cm^2/s
     atom    22   D =       0.00000012 cm^2/s
     atom    23   D =       0.98884016 cm^2/s

     < D > =       0.04300575 cm^2/s

     Writing all to output data dir outdir/pwscf.save/

     init_run     :     10.82s CPU     11.87s WALL (       1 calls)
     electrons    :   1300.99s CPU   1594.10s WALL (       8 calls)
     update_pot   :      6.63s CPU      7.61s WALL (       7 calls)
     forces       :     90.44s CPU    103.63s WALL (       8 calls)
     stress       :    132.24s CPU    145.04s WALL (       8 calls)

     Called by init_run:
     wfcinit      :      8.39s CPU      8.96s WALL (       1 calls)
     potinit      :      0.45s CPU      0.49s WALL (       1 calls)
     hinit0       :      0.90s CPU      1.11s WALL (       1 calls)

     Called by electrons:
     c_bands      :   1054.15s CPU   1299.70s WALL (      52 calls)
     sum_band     :    164.81s CPU    197.34s WALL (      52 calls)
     v_of_rho     :      4.97s CPU      6.14s WALL (      60 calls)
     newd         :     83.91s CPU     99.61s WALL (      60 calls)
     mix_rho      :      0.55s CPU      0.77s WALL (      52 calls)

     Called by c_bands:
     init_us_2    :      1.81s CPU      1.87s WALL (     242 calls)
     init_us_2:cp :      1.81s CPU      1.87s WALL (     242 calls)
     regterg      :   1046.87s CPU   1291.37s WALL (     104 calls)

     Called by *egterg:
     rdiaghg      :     34.45s CPU     43.05s WALL (     897 calls)
     h_psi        :    526.97s CPU    598.27s WALL (     913 calls)
     s_psi        :    181.51s CPU    182.00s WALL (     913 calls)
     g_psi        :      0.39s CPU      0.42s WALL (     807 calls)

     Called by h_psi:
     h_psi:calbec :    257.16s CPU    307.41s WALL (     913 calls)
     vloc_psi     :     57.65s CPU     77.89s WALL (     913 calls)
     add_vuspsi   :    211.52s CPU    212.28s WALL (     913 calls)

     General routines
     calbec       :    414.90s CPU    497.04s WALL (    1097 calls)
     fft          :      4.49s CPU     14.30s WALL (    1179 calls)
     ffts         :      0.12s CPU      0.16s WALL (      52 calls)
     fftw         :     62.31s CPU     84.62s WALL (   57736 calls)

     Parallel routines

     PWSCF        :  25m48.29s CPU  31m12.28s WALL


   This run was terminated on:  14:50:35  12Jun2023            

=------------------------------------------------------------------------------=
   JOB DONE.
=------------------------------------------------------------------------------=
