
     Program PWSCF v.7.2 starts on  4Jun2023 at 20:31:28 

     This program is part of the open-source Quantum ESPRESSO suite
     for quantum simulation of materials; please cite
         "P. Giannozzi et al., J. Phys.:Condens. Matter 21 395502 (2009);
         "P. Giannozzi et al., J. Phys.:Condens. Matter 29 465901 (2017);
         "P. Giannozzi et al., J. Chem. Phys. 152 154105 (2020);
          URL http://www.quantum-espresso.org", 
     in publications or presentations arising from this work. More details at
     http://www.quantum-espresso.org/quote

     Parallel version (MPI), running on    12 processors

     MPI processes distributed on     1 nodes
     76935 MiB available memory on the printing compute node when the environment starts

     Reading input from md_Hf3Ta4Nb10Zr5H_5steps.in
Warning: card &CELL ignored
Warning: card / ignored

     Current dimensions of program PWSCF are:
     Max number of different atomic species (ntypx) = 10
     Max number of k-points (npk) =  40000
     Max angular momentum in pseudopotentials (lmaxx) =  4

     File outdir/pwscf.update deleted, as requested

     File outdir/pwscf.bfgs deleted, as requested

     gamma-point specific algorithms are used

     R & G space division:  proc/nbgrp/npool/nimage =      12
     Subspace diagonalization in iterative solution of the eigenvalue problem:
     one sub-group per band group will be used
     custom distributed-memory algorithm (size of sub-group:  2*  2 procs)


     Parallelization info
     --------------------
     sticks:   dense  smooth     PW     G-vecs:    dense   smooth      PW
     Min         505     505    125                47533    47533    5942
     Max         506     506    128                47542    47542    5952
     Sum        6071    6071   1523               570491   570491   71349

     Using Slab Decomposition



     bravais-lattice index     =            0
     lattice parameter (alat)  =      13.9462  a.u.
     unit-cell volume          =    3212.6331 (a.u.)^3
     number of atoms/cell      =           23
     number of atomic types    =            5
     number of electrons       =       279.00
     number of Kohn-Sham states=          168
     kinetic-energy cutoff     =     120.0000  Ry
     charge density cutoff     =     480.0000  Ry
     scf convergence threshold =      1.0E-03
     mixing beta               =       0.7000
     number of iterations used =            8  TF        mixing
     energy convergence thresh.=      0.0E+00
     force convergence thresh. =      0.0E+00
     Exchange-correlation=  SLA  PW   PBX  PBC
                           (   1   4   3   4   0   0   0)
     nstep                     =            5


     celldm(1)=  13.946178  celldm(2)=   0.000000  celldm(3)=   0.000000
     celldm(4)=   0.000000  celldm(5)=   0.000000  celldm(6)=   0.000000

     crystal axes: (cart. coord. in units of alat)
               a(1) = (   1.000000   0.000000   0.000000 )  
               a(2) = (   0.000000   0.818428   0.000000 )  
               a(3) = (   0.000000   0.000000   1.447154 )  

     reciprocal axes: (cart. coord. in units 2 pi/alat)
               b(1) = (  1.000000  0.000000  0.000000 )  
               b(2) = (  0.000000  1.221854  0.000000 )  
               b(3) = (  0.000000  0.000000  0.691011 )  


     PseudoPot. # 1 for Hf read from file:
     q-e/pseudo/hf_pbe_v1.uspp.F.UPF
     MD5 check sum: 8ee9378dfe14276e333edf04c5e4aa26
     Pseudo is Ultrasoft + core correction, Zval = 12.0
     Generated by new atomic code, or converted to UPF format
     Using radial grid of  921 points,  8 beta functions with: 
                l(1) =   0
                l(2) =   0
                l(3) =   0
                l(4) =   1
                l(5) =   1
                l(6) =   2
                l(7) =   2
                l(8) =   3
     Q(r) pseudized with  6 coefficients,  rinner =    1.200   1.200   1.200
                                                       1.200   1.200   1.200
                                                       1.200

     PseudoPot. # 2 for Ta read from file:
     q-e/pseudo/ta_pbe_v1.uspp.F.UPF
     MD5 check sum: f8bbe9446314a3b8ea5d9f3e3836c939
     Pseudo is Ultrasoft + core correction, Zval = 13.0
     Generated by new atomic code, or converted to UPF format
     Using radial grid of  921 points,  7 beta functions with: 
                l(1) =   0
                l(2) =   0
                l(3) =   1
                l(4) =   1
                l(5) =   2
                l(6) =   2
                l(7) =   3
     Q(r) pseudized with  6 coefficients,  rinner =    1.300   1.300   1.300
                                                       1.300   1.300   1.300
                                                       1.300

     PseudoPot. # 3 for Nb read from file:
     q-e/pseudo/nb_pbe_v1.uspp.F.UPF
     MD5 check sum: 573aab8a2fa660278ed4a62cd769473f
     Pseudo is Ultrasoft + core correction, Zval = 13.0
     Generated by new atomic code, or converted to UPF format
     Using radial grid of  887 points,  6 beta functions with: 
                l(1) =   0
                l(2) =   0
                l(3) =   1
                l(4) =   1
                l(5) =   2
                l(6) =   2
     Q(r) pseudized with  6 coefficients,  rinner =    1.000   1.000   1.000
                                                       1.000   1.000

     PseudoPot. # 4 for Zr read from file:
     q-e/pseudo/zr_pbe_v1.uspp.F.UPF
     MD5 check sum: 5db81b1e868ab7776c4564c113de050b
     Pseudo is Ultrasoft + core correction, Zval = 12.0
     Generated by new atomic code, or converted to UPF format
     Using radial grid of  887 points,  6 beta functions with: 
                l(1) =   0
                l(2) =   0
                l(3) =   1
                l(4) =   1
                l(5) =   2
                l(6) =   2
     Q(r) pseudized with  6 coefficients,  rinner =    1.200   1.200   1.200
                                                       1.200   1.200

     PseudoPot. # 5 for H  read from file:
     q-e/pseudo/h_pbe_v1.4.uspp.F.UPF
     MD5 check sum: 761ae9a214b05c3daf00ab9f6b793d6f
     Pseudo is Ultrasoft, Zval =  1.0
     Generated by new atomic code, or converted to UPF format
     Using radial grid of  615 points,  2 beta functions with: 
                l(1) =   0
                l(2) =   0
     Q(r) pseudized with  8 coefficients,  rinner =    0.700

     atomic species   valence    mass     pseudopotential
        Hf            12.00   178.49000     Hf( 1.00)
        Ta            13.00   180.94788     Ta( 1.00)
        Nb            13.00    92.90637     Nb( 1.00)
        Zr            12.00    91.22400     Zr( 1.00)
        H              1.00     2.01400     H ( 1.00)

     Starting magnetic structure 
     atomic species   magnetization
        Hf           0.000
        Ta           0.000
        Nb           0.000
        Zr           0.000
        H            0.000

     No symmetry found



   Cartesian axes

     site n.     atom                  positions (alat units)
         1           Hf  tau(   1) = (   0.4796748   0.0271003   0.7235772  )
         2           Hf  tau(   2) = (   0.0271003   0.4796748   0.2710027  )
         3           Hf  tau(   3) = (   0.9322493   0.4796748   0.2710027  )
         4           Ta  tau(   4) = (   0.4796748   0.0271003   0.2710027  )
         5           Ta  tau(   5) = (   0.7059621   0.2533875   0.9498645  )
         6           Ta  tau(   6) = (   0.0271003   0.4796748   1.1761518  )
         7           Ta  tau(   7) = (   0.9322493   0.4796748   1.1761518  )
         8           Nb  tau(   8) = (   0.2533875   0.2533875   0.9498645  )
         9           Nb  tau(   9) = (   0.4796748   0.4796748   0.7235772  )
        10           Nb  tau(  10) = (   0.4796748   0.4796748   1.1761518  )
        11           Nb  tau(  11) = (   0.4796748   0.0271003   1.1761518  )
        12           Nb  tau(  12) = (   0.0271003   0.4796748   0.7235772  )
        13           Nb  tau(  13) = (   0.9322493   0.4796748   0.7235772  )
        14           Nb  tau(  14) = (   0.0271003   0.0271003   0.7235772  )
        15           Nb  tau(  15) = (   0.9322493   0.0271003   0.7235772  )
        16           Nb  tau(  16) = (   0.0271003   0.0271003   0.2710027  )
        17           Nb  tau(  17) = (   0.9322493   0.0271003   0.2710027  )
        18           Zr  tau(  18) = (   0.2533875   0.2533875   0.4972900  )
        19           Zr  tau(  19) = (   0.4796748   0.4796748   0.2710027  )
        20           Zr  tau(  20) = (   0.7059621   0.2533875   0.4972900  )
        21           Zr  tau(  21) = (   0.0271003   0.0271003   1.1761518  )
        22           Zr  tau(  22) = (   0.9322493   0.0271003   1.1761518  )
        23           H   tau(  23) = (   0.4796748   0.7506775   0.7235772  )

     number of k points=     1  Gaussian smearing, width (Ry)=  0.0220
                       cart. coord. in units 2pi/alat
        k(    1) = (   0.0000000   0.0000000   0.0000000), wk =   1.0000000

     Dense  grid:   285246 G-vectors     FFT dimensions: ( 100,  80, 144)

     Estimated max dynamical RAM per process >     242.42 MB

     Estimated total dynamical RAM >       2.84 GB

     Check: negative core charge=   -0.000002
     Generating pointlists ...
     new r_m :   0.0391 (alat units)  0.5457 (a.u.) for type    1
     new r_m :   0.0391 (alat units)  0.5457 (a.u.) for type    2
     new r_m :   0.0391 (alat units)  0.5457 (a.u.) for type    3
     new r_m :   0.0391 (alat units)  0.5457 (a.u.) for type    4
     new r_m :   0.0391 (alat units)  0.5457 (a.u.) for type    5

     Initial potential from superposition of free atoms

     starting charge     272.9575, renormalised to     279.0000

     negative rho (up, down):  3.007E-01 3.007E-01
     Starting wfcs are  287 randomized atomic wfcs

     total cpu time spent up to now is       15.0 secs

     Self-consistent Calculation

     iteration #  1     ecut=   120.00 Ry     beta= 0.70
     Davidson diagonalization with overlap
     ethr =  1.00E-02,  avg # of iterations =  8.0

     negative rho (up, down):  3.500E-01 3.495E-01

     total cpu time spent up to now is       48.4 secs

     total energy              =   -2398.61486634 Ry
     estimated scf accuracy    <     235.80122757 Ry

     total magnetization       =    -0.00 Bohr mag/cell
     absolute magnetization    =     0.11 Bohr mag/cell

     iteration #  2     ecut=   120.00 Ry     beta= 0.70
     Davidson diagonalization with overlap
     ethr =  1.00E-02,  avg # of iterations =  5.0

     negative rho (up, down):  3.886E-01 3.883E-01

     total cpu time spent up to now is       73.9 secs

     total energy              =   -2402.96706066 Ry
     estimated scf accuracy    <      59.48692065 Ry

     total magnetization       =    -0.04 Bohr mag/cell
     absolute magnetization    =     0.32 Bohr mag/cell

     iteration #  3     ecut=   120.00 Ry     beta= 0.70
     Davidson diagonalization with overlap
     ethr =  1.00E-02,  avg # of iterations =  6.0

     negative rho (up, down):  3.865E-01 3.863E-01

     total cpu time spent up to now is       98.6 secs

     total energy              =   -2405.54378104 Ry
     estimated scf accuracy    <      23.24244125 Ry

     total magnetization       =     0.58 Bohr mag/cell
     absolute magnetization    =     0.87 Bohr mag/cell

     iteration #  4     ecut=   120.00 Ry     beta= 0.70
     Davidson diagonalization with overlap
     ethr =  8.33E-03,  avg # of iterations =  2.0

     negative rho (up, down):  3.951E-01 3.951E-01

     total cpu time spent up to now is      118.6 secs

     total energy              =   -2406.85016570 Ry
     estimated scf accuracy    <       5.36358055 Ry

     total magnetization       =     0.14 Bohr mag/cell
     absolute magnetization    =     0.32 Bohr mag/cell

     iteration #  5     ecut=   120.00 Ry     beta= 0.70
     Davidson diagonalization with overlap
     ethr =  1.92E-03,  avg # of iterations =  2.0

     negative rho (up, down):  3.959E-01 3.960E-01

     total cpu time spent up to now is      139.7 secs

     total energy              =   -2406.98500729 Ry
     estimated scf accuracy    <       1.11106456 Ry

     total magnetization       =     0.13 Bohr mag/cell
     absolute magnetization    =     0.32 Bohr mag/cell

     iteration #  6     ecut=   120.00 Ry     beta= 0.70
     Davidson diagonalization with overlap
     ethr =  3.98E-04,  avg # of iterations =  8.5

     negative rho (up, down):  3.958E-01 3.959E-01

     total cpu time spent up to now is      164.8 secs

     total energy              =   -2407.03543240 Ry
     estimated scf accuracy    <       0.32475484 Ry

     total magnetization       =     0.09 Bohr mag/cell
     absolute magnetization    =     0.21 Bohr mag/cell

     iteration #  7     ecut=   120.00 Ry     beta= 0.70
     Davidson diagonalization with overlap
     ethr =  1.16E-04,  avg # of iterations =  3.0

     negative rho (up, down):  3.960E-01 3.961E-01

     total cpu time spent up to now is      186.1 secs

     total energy              =   -2407.04929749 Ry
     estimated scf accuracy    <       0.12388388 Ry

     total magnetization       =     0.07 Bohr mag/cell
     absolute magnetization    =     0.16 Bohr mag/cell

     iteration #  8     ecut=   120.00 Ry     beta= 0.70
     Davidson diagonalization with overlap
     ethr =  4.44E-05,  avg # of iterations =  2.0

     negative rho (up, down):  3.955E-01 3.956E-01

     total cpu time spent up to now is      206.8 secs

     total energy              =   -2407.05619295 Ry
     estimated scf accuracy    <       0.02721658 Ry

     total magnetization       =     0.06 Bohr mag/cell
     absolute magnetization    =     0.12 Bohr mag/cell

     iteration #  9     ecut=   120.00 Ry     beta= 0.70
     Davidson diagonalization with overlap
     ethr =  9.76E-06,  avg # of iterations = 10.0

     negative rho (up, down):  3.948E-01 3.948E-01

     total cpu time spent up to now is      231.2 secs

     total energy              =   -2407.05777567 Ry
     estimated scf accuracy    <       0.01011660 Ry

     total magnetization       =     0.04 Bohr mag/cell
     absolute magnetization    =     0.09 Bohr mag/cell

     iteration # 10     ecut=   120.00 Ry     beta= 0.70
     Davidson diagonalization with overlap
     ethr =  3.63E-06,  avg # of iterations =  2.0

     negative rho (up, down):  3.947E-01 3.946E-01

     total cpu time spent up to now is      255.0 secs

     total energy              =   -2407.05859662 Ry
     estimated scf accuracy    <       0.00332980 Ry

     total magnetization       =     0.03 Bohr mag/cell
     absolute magnetization    =     0.06 Bohr mag/cell

     iteration # 11     ecut=   120.00 Ry     beta= 0.70
     Davidson diagonalization with overlap
     ethr =  1.19E-06,  avg # of iterations =  2.0

     negative rho (up, down):  3.947E-01 3.947E-01

     Magnetic moment per site  (integrated on atomic sphere of radius R)
     atom   1 (R=0.039)  charge=  0.0440  magn=  0.0000
     atom   2 (R=0.039)  charge=  0.2774  magn=  0.0000
     atom   3 (R=0.039)  charge=  0.2773  magn=  0.0000
     atom   4 (R=0.039)  charge=  0.0861  magn= -0.0000
     atom   5 (R=0.039)  charge=  0.0818  magn=  0.0000
     atom   6 (R=0.039)  charge=  0.3907  magn=  0.0000
     atom   7 (R=0.039)  charge=  0.3910  magn=  0.0000
     atom   8 (R=0.039)  charge=  0.3665  magn=  0.0000
     atom   9 (R=0.039)  charge=  0.3673  magn= -0.0000
     atom  10 (R=0.039)  charge=  0.3665  magn=  0.0001
     atom  11 (R=0.039)  charge=  0.3668  magn=  0.0001
     atom  12 (R=0.039)  charge=  0.9021  magn=  0.0000
     atom  13 (R=0.039)  charge=  0.9028  magn=  0.0000
     atom  14 (R=0.039)  charge=  0.9016  magn=  0.0000
     atom  15 (R=0.039)  charge=  0.9029  magn=  0.0000
     atom  16 (R=0.039)  charge=  0.9012  magn=  0.0000
     atom  17 (R=0.039)  charge=  0.9025  magn=  0.0000
     atom  18 (R=0.039)  charge=  0.0936  magn= -0.0000
     atom  19 (R=0.039)  charge=  0.0955  magn= -0.0000
     atom  20 (R=0.039)  charge=  0.0937  magn= -0.0000
     atom  21 (R=0.039)  charge=  0.5229  magn=  0.0000
     atom  22 (R=0.039)  charge=  0.5242  magn=  0.0000
     atom  23 (R=0.039)  charge=  0.5746  magn=  0.0000

     total cpu time spent up to now is      276.5 secs

     End of self-consistent calculation

 ------ SPIN UP ------------


          k = 0.0000 0.0000 0.0000 ( 35675 PWs)   bands (ev):

  -153.4719-146.6637 -83.5864 -83.4797 -83.4589 -59.5157 -59.2822 -55.0669
   -54.0969 -53.8907 -51.1546 -50.3979 -48.8414 -48.6935 -48.6750 -48.6259
   -48.5384 -48.4901 -48.4850 -48.1701 -47.8831 -40.9845 -40.8699 -40.8115
   -40.7668 -38.1301 -38.0705 -37.9877 -36.9626 -36.5312 -34.9137 -34.8857
   -34.6656 -30.5695 -30.0364 -23.0675 -22.2404 -20.7467 -20.6607 -20.4783
   -20.4435 -20.3535 -20.2677 -19.2569 -18.9868 -18.7917 -17.4059 -17.3943
   -17.2731 -17.1741 -17.1520 -17.0372 -17.0001 -16.9531 -16.8811 -16.8636
   -16.7979 -16.7456 -16.6440 -16.4755 -13.3372 -13.1956 -13.1018 -13.0487
   -12.9581 -12.9481 -12.6662 -12.6490 -12.5055 -12.2763 -11.6442 -11.3497
    -6.9324  -6.6001  -6.4431  -6.2609  -6.1890  -6.0638  -4.8541  -4.6296
    -2.7263  -2.5062  -2.1205  -1.5829  -1.3327  -1.1678  -0.9429  -0.6611
    -0.5877  -0.5296   0.0035   1.1257   1.6789   3.1197   3.5940   3.7993
     4.0022   4.2046   5.2467   6.5782   6.9888   7.4444   7.5505   7.6401
     7.7021   8.1037   8.4565   8.5863   8.8154   9.1248   9.3420   9.4391
     9.6699  10.0312  10.1350  10.9017  10.9549  11.4599  11.4715  11.5562
    11.7428  11.9023  12.2126  12.4260  12.4643  12.5054  12.7119  12.8480
    12.8787  13.0403  13.1363  13.1813  13.2823  13.3744  13.5385  13.7189
    13.7600  13.8412  13.9988  14.1049  14.1829  14.2484  14.2813  14.3085
    14.3212  14.4966  14.6123  14.9576  15.0042  15.0258  15.1807  15.2659
    15.3454  15.4509  15.6353  15.8702  16.0024  16.1480  16.1839  16.2940
    16.3888  16.4932  16.5750  16.6112  16.6435  16.7180  16.8895  17.1001

 ------ SPIN DOWN ----------


          k = 0.0000 0.0000 0.0000 ( 35675 PWs)   bands (ev):

  -153.4716-146.6636 -83.5863 -83.4796 -83.4588 -59.5154 -59.2820 -55.0665
   -54.0956 -53.8924 -51.1543 -50.3976 -48.8413 -48.6934 -48.6749 -48.6258
   -48.5382 -48.4900 -48.4849 -48.1700 -47.8830 -40.9813 -40.8684 -40.8090
   -40.7670 -38.1299 -38.0702 -37.9874 -36.9626 -36.5308 -34.9150 -34.8870
   -34.6655 -30.5692 -30.0357 -23.0673 -22.2400 -20.7445 -20.6594 -20.4765
   -20.4468 -20.3556 -20.2696 -19.2566 -18.9864 -18.7914 -17.4047 -17.3927
   -17.2719 -17.1712 -17.1503 -17.0326 -16.9982 -16.9523 -16.8791 -16.8601
   -16.7966 -16.7440 -16.6440 -16.4737 -13.3383 -13.1971 -13.1032 -13.0501
   -12.9597 -12.9496 -12.6658 -12.6497 -12.5058 -12.2759 -11.6436 -11.3492
    -6.9321  -6.5996  -6.4429  -6.2606  -6.1889  -6.0636  -4.8539  -4.6294
    -2.7261  -2.5059  -2.1204  -1.5827  -1.3326  -1.1679  -0.9428  -0.6602
    -0.5876  -0.5295   0.0038   1.1258   1.6790   3.1198   3.5942   3.7997
     4.0025   4.2049   5.2469   6.5792   6.9890   7.4451   7.5503   7.6408
     7.7024   8.1038   8.4575   8.5867   8.8160   9.1248   9.3428   9.4401
     9.6704  10.0313  10.1360  10.9018  10.9554  11.4611  11.4727  11.5570
    11.7433  11.9036  12.2138  12.4263  12.4655  12.5062  12.7130  12.8470
    12.8793  13.0417  13.1360  13.1821  13.2832  13.3752  13.5396  13.7207
    13.7617  13.8420  14.0051  14.1044  14.1854  14.2458  14.2817  14.3118
    14.3215  14.4970  14.6133  14.9602  15.0070  15.0264  15.1808  15.2672
    15.3493  15.4540  15.6395  15.8703  16.0009  16.1500  16.1843  16.2949
    16.3888  16.4950  16.5757  16.6119  16.6443  16.7194  16.8884  17.1002

     the Fermi energy is    14.0518 ev

!    total energy              =   -2407.05848199 Ry
     estimated scf accuracy    <       0.00078244 Ry
     smearing contrib. (-TS)   =      -0.07923929 Ry
     internal energy E=F+TS    =   -2406.97924270 Ry

     total magnetization       =     0.02 Bohr mag/cell
     absolute magnetization    =     0.05 Bohr mag/cell

     convergence has been achieved in  11 iterations

     negative rho (up, down):  3.947E-01 3.947E-01

     Forces acting on atoms (cartesian axes, Ry/au):

     atom    1 type  1   force =    -0.00071032    8.77640375    0.00994030
     atom    2 type  1   force =    63.82237128   -0.07394200   -0.05106932
     atom    3 type  1   force =   -63.82199131   -0.07243177   -0.05064606
     atom    4 type  2   force =    -0.00049000    0.02824711    0.03683025
     atom    5 type  2   force =    -0.13484297   -0.01261904    0.02705219
     atom    6 type  2   force =   109.81584240   -0.06632161    0.06191549
     atom    7 type  2   force =  -109.81151148   -0.07473271    0.05908292
     atom    8 type  3   force =     0.12398882   -0.01502001    0.02788246
     atom    9 type  3   force =    -0.00164695   -0.07875739    0.01951126
     atom   10 type  3   force =     0.00057668   -0.04390619   -0.04065369
     atom   11 type  3   force =     0.00109829    0.05349981   -0.04251619
     atom   12 type  3   force =   118.96588537   -0.06738087    0.00449597
     atom   13 type  3   force =  -118.96297431   -0.06726019    0.00572916
     atom   14 type  3   force =   118.95192038    0.05946771    0.00007734
     atom   15 type  3   force =  -118.94968043    0.05982018    0.00212440
     atom   16 type  3   force =   118.93684817    0.07116303   -0.05041593
     atom   17 type  3   force =  -118.93671925    0.07211040   -0.05058125
     atom   18 type  4   force =     0.06901619    0.01016406   -0.02146829
     atom   19 type  4   force =     0.00016962   -0.00810309   -0.01207002
     atom   20 type  4   force =    -0.06893820    0.00936937   -0.01933489
     atom   21 type  4   force =   117.43220191    0.08491999    0.04104566
     atom   22 type  4   force =  -117.43117496    0.08805688    0.04027680
     atom   23 type  5   force =     0.00076110   -8.73274743    0.00279145
     The non-local contrib.  to forces
     atom    1 type  1   force =    -0.00822266   -1.65415574   -0.03713933
     atom    2 type  1   force =   -60.59014189    0.11422145    0.07742525
     atom    3 type  1   force =    60.58935800    0.11491106    0.07780838
     atom    4 type  2   force =     0.00123704   -0.11933021   -0.28860015
     atom    5 type  2   force =     0.46453110   -0.01602457   -0.02364587
     atom    6 type  2   force =   -42.55189368    0.09487824   -0.08973505
     atom    7 type  2   force =    42.54747247    0.08822431   -0.09432758
     atom    8 type  3   force =     0.09606423    0.01806117    0.02952087
     atom    9 type  3   force =     0.00734229   -0.01066212    0.02254844
     atom   10 type  3   force =     0.00462445    0.03689038   -0.07624488
     atom   11 type  3   force =     0.00213918   -0.07833559   -0.10443986
     atom   12 type  3   force =    -7.04209961   -0.06903642    0.04674165
     atom   13 type  3   force =     7.03910594   -0.06678756    0.05519299
     atom   14 type  3   force =    -7.05139190    0.07197917   -0.04966142
     atom   15 type  3   force =     7.04507656    0.07489875   -0.04212705
     atom   16 type  3   force =    -6.92710485    0.08339888    0.05463268
     atom   17 type  3   force =     6.92712172    0.08244648    0.05396700
     atom   18 type  4   force =     0.07892387   -0.02031091   -0.04734052
     atom   19 type  4   force =     0.00124716    0.05327712    0.02468909
     atom   20 type  4   force =    -0.07903731   -0.01851265   -0.05047049
     atom   21 type  4   force =     8.49409412    0.02826415   -0.05227605
     atom   22 type  4   force =    -8.50099595    0.03046624   -0.05717835
     atom   23 type  5   force =    -0.00040400   -0.00290509    0.00288579
     The ionic contribution  to forces
     atom    1 type  1   force =     0.00000000    5.79793926   -1.36900681
     atom    2 type  1   force =   164.18409306   -4.14304730  -23.80080536
     atom    3 type  1   force =  -164.18409306   -4.14304730  -23.80080536
     atom    4 type  2   force =     0.00000000   -1.40200389  -25.16716559
     atom    5 type  2   force =   -13.58786897   -0.57933517   16.64107117
     atom    6 type  2   force =   192.07698599   -3.38541247   27.06479493
     atom    7 type  2   force =  -192.07698599   -3.38541247   27.06479493
     atom    8 type  3   force =    13.58786897   -0.57933517   16.64107117
     atom    9 type  3   force =     0.00000000    7.36539642   -1.88427619
     atom   10 type  3   force =     0.00000000    1.64766851   26.65985580
     atom   11 type  3   force =     0.00000000   -1.56927578   26.43020887
     atom   12 type  3   force =   191.57731423    0.98213306   -1.72651707
     atom   13 type  3   force =  -191.57731423    0.98213306   -1.72651707
     atom   14 type  3   force =   191.61016792   -0.96814416   -0.83505939
     atom   15 type  3   force =  -191.61016792   -0.96814416   -0.83505939
     atom   16 type  3   force =   192.25417954    3.80188364  -25.95481243
     atom   17 type  3   force =  -192.25417954    3.80188364  -25.95481243
     atom   18 type  4   force =    13.06371347    0.58154960  -16.81698945
     atom   19 type  4   force =     0.00000000    0.90453466  -23.25622022
     atom   20 type  4   force =   -13.06371347    0.58154960  -16.81698945
     atom   21 type  4   force =   163.90530927    3.71935677   24.77132114
     atom   22 type  4   force =  -163.90530927    3.71935677   24.77132114
     atom   23 type  5   force =     0.00000000  -12.76222711   -0.09940296
     The local contribution  to forces
     atom    1 type  1   force =     0.00642150    5.00263592    1.39915372
     atom    2 type  1   force =   -30.13301413    3.95345158   23.65420881
     atom    3 type  1   force =    30.13374646    3.95407429   23.65442961
     atom    4 type  2   force =    -0.00169723    1.54696852   25.52424399
     atom    5 type  2   force =    12.94598663    0.59870682  -16.59126033
     atom    6 type  2   force =   -34.58337087    3.21192810  -26.87794972
     atom    7 type  2   force =    34.59879041    3.21182625  -26.87521607
     atom    8 type  3   force =   -13.54818652    0.56084488  -16.64676018
     atom    9 type  3   force =    -0.01050109   -7.42146729    1.85312402
     atom   10 type  3   force =    -0.00692170   -1.71950519  -26.61716202
     atom   11 type  3   force =    -0.00395916    1.68449298  -26.35936213
     atom   12 type  3   force =   -64.48197157   -0.97911611    1.65523776
     atom   13 type  3   force =    64.49458821   -0.98018368    1.64631729
     atom   14 type  3   force =   -64.52359590    0.95411867    0.84574911
     atom   15 type  3   force =    64.53822741    0.95055856    0.83842343
     atom   16 type  3   force =   -65.30484588   -3.81679349   25.84871096
     atom   17 type  3   force =    65.30489873   -3.81495856   25.84937501
     atom   18 type  4   force =   -13.05380675   -0.55129168   16.83043781
     atom   19 type  4   force =    -0.00052211   -0.95665973   23.22758770
     atom   20 type  4   force =    13.05335104   -0.55310016   16.83341007
     atom   21 type  4   force =   -53.58756007   -3.65905422  -24.65364986
     atom   22 type  4   force =    53.60128516   -3.65921703  -24.64851717
     atom   23 type  5   force =     0.00091030    4.03069598    0.09757543
     The core correction contribution to forces
     atom    1 type  1   force =    -0.00110419   -0.38890503   -0.00952016
     atom    2 type  1   force =    -9.63748678    0.00969706    0.00888105
     atom    3 type  1   force =     9.63758994    0.00983057    0.00901754
     atom    4 type  2   force =    -0.00001951   -0.00497689   -0.02418055
     atom    5 type  2   force =     0.03968931   -0.00293465   -0.00580201
     atom    6 type  2   force =    -5.12306461    0.00785962   -0.00539038
     atom    7 type  2   force =     5.12300975    0.00777803   -0.00485533
     atom    8 type  3   force =    -0.01379096   -0.00133692   -0.00166000
     atom    9 type  3   force =    -0.00064191    0.00347387   -0.00153157
     atom   10 type  3   force =    -0.00045458   -0.00013809    0.01145940
     atom   11 type  3   force =    -0.00031870    0.00203888    0.01208382
     atom   12 type  3   force =    -1.08054688    0.00214160   -0.00134756
     atom   13 type  3   force =     1.08060902    0.00203464   -0.00168545
     atom   14 type  3   force =    -1.08048769   -0.00233245    0.00135682
     atom   15 type  3   force =     1.08062830   -0.00243945    0.00106603
     atom   16 type  3   force =    -1.08288959   -0.00322780   -0.00050331
     atom   17 type  3   force =     1.08288266   -0.00315769   -0.00048563
     atom   18 type  4   force =    -0.01092949    0.00055155    0.00317909
     atom   19 type  4   force =    -0.00004252   -0.00206294   -0.00622993
     atom   20 type  4   force =     0.01096285    0.00044912    0.00323113
     atom   21 type  4   force =    -1.38061425   -0.00189169    0.00148465
     atom   22 type  4   force =     1.38084472   -0.00217906    0.00191249
     atom   23 type  5   force =     0.00000000    0.00000000    0.00000000
     The Hubbard contrib.    to forces
     atom    1 type  1   force =     0.00000000    0.00000000    0.00000000
     atom    2 type  1   force =     0.00000000    0.00000000    0.00000000
     atom    3 type  1   force =     0.00000000    0.00000000    0.00000000
     atom    4 type  2   force =     0.00000000    0.00000000    0.00000000
     atom    5 type  2   force =     0.00000000    0.00000000    0.00000000
     atom    6 type  2   force =     0.00000000    0.00000000    0.00000000
     atom    7 type  2   force =     0.00000000    0.00000000    0.00000000
     atom    8 type  3   force =     0.00000000    0.00000000    0.00000000
     atom    9 type  3   force =     0.00000000    0.00000000    0.00000000
     atom   10 type  3   force =     0.00000000    0.00000000    0.00000000
     atom   11 type  3   force =     0.00000000    0.00000000    0.00000000
     atom   12 type  3   force =     0.00000000    0.00000000    0.00000000
     atom   13 type  3   force =     0.00000000    0.00000000    0.00000000
     atom   14 type  3   force =     0.00000000    0.00000000    0.00000000
     atom   15 type  3   force =     0.00000000    0.00000000    0.00000000
     atom   16 type  3   force =     0.00000000    0.00000000    0.00000000
     atom   17 type  3   force =     0.00000000    0.00000000    0.00000000
     atom   18 type  4   force =     0.00000000    0.00000000    0.00000000
     atom   19 type  4   force =     0.00000000    0.00000000    0.00000000
     atom   20 type  4   force =     0.00000000    0.00000000    0.00000000
     atom   21 type  4   force =     0.00000000    0.00000000    0.00000000
     atom   22 type  4   force =     0.00000000    0.00000000    0.00000000
     atom   23 type  5   force =     0.00000000    0.00000000    0.00000000
     The SCF correction term to forces
     atom    1 type  1   force =     0.00000000    0.00000000    0.00000000
     atom    2 type  1   force =    -0.00000000   -0.00000000    0.00000000
     atom    3 type  1   force =     0.00000000   -0.00000000    0.00000000
     atom    4 type  2   force =    -0.00000000    0.00000000   -0.00000000
     atom    5 type  2   force =     0.00000000   -0.00000000    0.00000000
     atom    6 type  2   force =    -0.00000000    0.00000000   -0.00000000
     atom    7 type  2   force =    -0.00000000    0.00000000   -0.00000000
     atom    8 type  3   force =     0.00000000   -0.00000000    0.00000000
     atom    9 type  3   force =     0.00000000   -0.00000000    0.00000000
     atom   10 type  3   force =     0.00000000   -0.00000000   -0.00000000
     atom   11 type  3   force =     0.00000000    0.00000000   -0.00000000
     atom   12 type  3   force =    -0.00000000   -0.00000000    0.00000000
     atom   13 type  3   force =    -0.00000000   -0.00000000    0.00000000
     atom   14 type  3   force =    -0.00000000    0.00000000    0.00000000
     atom   15 type  3   force =    -0.00000000    0.00000000    0.00000000
     atom   16 type  3   force =    -0.00000000    0.00000000    0.00000000
     atom   17 type  3   force =     0.00000000    0.00000000    0.00000000
     atom   18 type  4   force =    -0.00000000   -0.00000000    0.00000000
     atom   19 type  4   force =    -0.00000000   -0.00000000   -0.00000000
     atom   20 type  4   force =     0.00000000   -0.00000000    0.00000000
     atom   21 type  4   force =     0.00000000   -0.00000000   -0.00000000
     atom   22 type  4   force =    -0.00000000   -0.00000000   -0.00000000
     atom   23 type  5   force =     0.00018922    0.00190935    0.00232535

     Total force =     8.732748     Total SCF correction =     0.003015

     Molecular Dynamics Calculation

     Starting temperature  =   300.00 K

     temperature is set once at start

     mass Hf               =   178.49
     mass Ta               =   180.95
     mass Nb               =    92.91
     mass Zr               =    91.22
     mass H                =     2.01
     Time step             =    10.50 a.u.,  0.5080 femto-seconds

     Entering Dynamics:    iteration =     1
                           time      =   0.0005 pico-seconds


ATOMIC_POSITIONS (angstrom)
Hf            3.5399999140        0.2000000000        5.3399999140    0   0   0
Hf            0.2000000000        3.5399999140        2.0000000000    0   0   0
Hf            6.8799998280        3.5399999140        2.0000000000    0   0   0
Ta            3.5399999140        0.2000000000        2.0000000000    0   0   0
Ta            5.2099998710        1.8699999570        7.0099998710    0   0   0
Ta            0.2000000000        3.5399999140        8.6799998280    0   0   0
Ta            6.8799998280        3.5399999140        8.6799998280    0   0   0
Nb            1.8699999570        1.8699999570        7.0099998710    0   0   0
Nb            3.5399999140        3.5399999140        5.3399999140    0   0   0
Nb            3.5399999140        3.5399999140        8.6799998280    0   0   0
Nb            3.5399999140        0.2000000000        8.6799998280    0   0   0
Nb            0.2000000000        3.5399999140        5.3399999140    0   0   0
Nb            6.8799998280        3.5399999140        5.3399999140    0   0   0
Nb            0.2000000000        0.2000000000        5.3399999140    0   0   0
Nb            6.8799998280        0.2000000000        5.3399999140    0   0   0
Nb            0.2000000000        0.2000000000        2.0000000000    0   0   0
Nb            6.8799998280        0.2000000000        2.0000000000    0   0   0
Zr            1.8699999570        1.8699999570        3.6699999570    0   0   0
Zr            3.5399999140        3.5399999140        2.0000000000    0   0   0
Zr            5.2099998710        1.8699999570        3.6699999570    0   0   0
Zr            0.2000000000        0.2000000000        8.6799998280    0   0   0
Zr            6.8799998280        0.2000000000        8.6799998280    0   0   0
H             3.5400120089        5.2086415070        5.3400442738


     kinetic energy (Ekin) =           1.10259671 Ry
     temperature           =      116057.50147507 K 
     Ekin + Etot (const)   =       -2405.95588528 Ry

     File outdir/pwscf.msd.dat deleted, as requested

     Writing config-only to output data dir outdir/pwscf.save/
     NEW-OLD atomic charge density approx. for the potential

     Check: negative core charge=   -0.000002

     negative rho (up, down):  3.973E-01 3.972E-01
     Generating pointlists ...

     total cpu time spent up to now is      289.8 secs

     Self-consistent Calculation

     iteration #  1     ecut=   120.00 Ry     beta= 0.70
     Davidson diagonalization with overlap
     ethr =  1.00E-06,  avg # of iterations = 16.5

     negative rho (up, down):  3.955E-01 3.955E-01

     total cpu time spent up to now is      335.7 secs

     total energy              =   -2409.76841394 Ry
     estimated scf accuracy    <       0.32429939 Ry

     total magnetization       =     0.01 Bohr mag/cell
     absolute magnetization    =     0.04 Bohr mag/cell

     iteration #  2     ecut=   120.00 Ry     beta= 0.70
     Davidson diagonalization with overlap
     ethr =  1.16E-04,  avg # of iterations =  2.0

     negative rho (up, down):  3.955E-01 3.955E-01

     total cpu time spent up to now is      356.3 secs

     total energy              =   -2409.77929266 Ry
     estimated scf accuracy    <       0.20817142 Ry

     total magnetization       =     0.01 Bohr mag/cell
     absolute magnetization    =     0.03 Bohr mag/cell

     iteration #  3     ecut=   120.00 Ry     beta= 0.70
     Davidson diagonalization with overlap
     ethr =  7.46E-05,  avg # of iterations =  1.0

     negative rho (up, down):  3.952E-01 3.951E-01

     total cpu time spent up to now is      374.5 secs

     total energy              =   -2409.78901963 Ry
     estimated scf accuracy    <       0.03271343 Ry

     total magnetization       =     0.01 Bohr mag/cell
     absolute magnetization    =     0.03 Bohr mag/cell

     iteration #  4     ecut=   120.00 Ry     beta= 0.70
     Davidson diagonalization with overlap
     ethr =  1.17E-05,  avg # of iterations =  2.0

     negative rho (up, down):  3.952E-01 3.952E-01

     total cpu time spent up to now is      394.9 secs

     total energy              =   -2409.79027333 Ry
     estimated scf accuracy    <       0.00539351 Ry

     total magnetization       =     0.01 Bohr mag/cell
     absolute magnetization    =     0.03 Bohr mag/cell

     iteration #  5     ecut=   120.00 Ry     beta= 0.70
     Davidson diagonalization with overlap
     ethr =  1.93E-06,  avg # of iterations =  9.0

     negative rho (up, down):  3.952E-01 3.952E-01

     total cpu time spent up to now is      416.3 secs

     total energy              =   -2409.79061135 Ry
     estimated scf accuracy    <       0.00174784 Ry

     total magnetization       =     0.01 Bohr mag/cell
     absolute magnetization    =     0.03 Bohr mag/cell

     iteration #  6     ecut=   120.00 Ry     beta= 0.70
     Davidson diagonalization with overlap
     ethr =  6.26E-07,  avg # of iterations =  2.0

     negative rho (up, down):  3.952E-01 3.952E-01

     Magnetic moment per site  (integrated on atomic sphere of radius R)
     atom   1 (R=0.039)  charge=  0.0381  magn=  0.0000
     atom   2 (R=0.039)  charge=  0.2776  magn=  0.0000
     atom   3 (R=0.039)  charge=  0.2774  magn=  0.0000
     atom   4 (R=0.039)  charge=  0.0861  magn= -0.0000
     atom   5 (R=0.039)  charge=  0.0821  magn=  0.0000
     atom   6 (R=0.039)  charge=  0.3907  magn=  0.0000
     atom   7 (R=0.039)  charge=  0.3910  magn=  0.0000
     atom   8 (R=0.039)  charge=  0.3668  magn=  0.0000
     atom   9 (R=0.039)  charge=  0.3668  magn=  0.0000
     atom  10 (R=0.039)  charge=  0.3660  magn=  0.0000
     atom  11 (R=0.039)  charge=  0.3671  magn=  0.0001
     atom  12 (R=0.039)  charge=  0.9020  magn=  0.0000
     atom  13 (R=0.039)  charge=  0.9027  magn=  0.0000
     atom  14 (R=0.039)  charge=  0.9016  magn=  0.0000
     atom  15 (R=0.039)  charge=  0.9028  magn=  0.0000
     atom  16 (R=0.039)  charge=  0.9011  magn=  0.0000
     atom  17 (R=0.039)  charge=  0.9024  magn=  0.0000
     atom  18 (R=0.039)  charge=  0.0937  magn= -0.0000
     atom  19 (R=0.039)  charge=  0.0955  magn= -0.0000
     atom  20 (R=0.039)  charge=  0.0938  magn= -0.0000
     atom  21 (R=0.039)  charge=  0.5229  magn=  0.0000
     atom  22 (R=0.039)  charge=  0.5243  magn=  0.0000
     atom  23 (R=0.039)  charge=  0.3221  magn=  0.0000

     total cpu time spent up to now is      437.3 secs

     End of self-consistent calculation

 ------ SPIN UP ------------


          k = 0.0000 0.0000 0.0000 ( 35675 PWs)   bands (ev):

  -153.4879-146.7121 -83.6520 -83.5232 -83.4771 -59.5243 -59.3029 -55.0917
   -54.0275 -53.8815 -50.4296 -48.9110 -48.7403 -48.6936 -48.6904 -48.6019
   -48.5368 -48.4915 -48.2145 -47.9337 -47.8703 -40.9886 -40.8170 -40.7875
   -40.6659 -38.2080 -38.0756 -38.0613 -36.9873 -36.5701 -34.8594 -34.8274
   -34.6745 -30.6139 -30.0648 -23.1191 -20.6810 -20.5904 -20.4406 -20.4357
   -20.3418 -20.2648 -19.3324 -18.9918 -18.8803 -18.8639 -17.3893 -17.1800
   -17.1016 -17.0352 -17.0196 -16.8615 -16.8453 -16.7689 -16.7472 -16.6887
   -16.5413 -16.4723 -16.1958 -15.9779 -13.2959 -13.1661 -13.0250 -12.9533
   -12.9252 -12.9210 -12.6737 -12.6403 -12.5107 -12.3227 -11.6599 -11.3786
    -7.0060  -6.6002  -6.5116  -6.3288  -6.1971  -6.1374  -4.8970  -4.6821
    -2.7406  -2.5206  -2.1862  -1.6465  -1.3352  -1.2004  -0.9404  -0.7123
    -0.6529  -0.5857  -0.0277   1.0769   1.6546   3.0495   3.5518   3.7673
     3.9574   4.1731   5.2161   6.5277   6.9252   7.4006   7.5125   7.5391
     7.6321   7.8693   8.2415   8.4302   8.5726   8.9961   9.0972   9.4052
     9.6083   9.9802  10.0334  10.8621  10.9523  11.5382  11.5733  11.6569
    11.7916  11.9466  12.2202  12.4398  12.4889  12.5447  12.7031  12.8644
    12.9025  13.1014  13.1463  13.1935  13.3136  13.4354  13.5535  13.5627
    13.8072  13.8706  13.9234  14.0595  14.2092  14.2243  14.2664  14.2945
    14.3266  14.5135  14.6693  14.9625  15.0228  15.0449  15.1761  15.3077
    15.3482  15.4593  15.6721  15.8911  16.0227  16.1944  16.2963  16.3656
    16.4372  16.5185  16.6037  16.6484  16.6649  16.9322  16.9657  17.0962

 ------ SPIN DOWN ----------


          k = 0.0000 0.0000 0.0000 ( 35675 PWs)   bands (ev):

  -153.4878-146.7120 -83.6520 -83.5232 -83.4771 -59.5242 -59.3028 -55.0916
   -54.0267 -53.8823 -50.4295 -48.9110 -48.7403 -48.6935 -48.6904 -48.6019
   -48.5368 -48.4915 -48.2144 -47.9337 -47.8702 -40.9870 -40.8160 -40.7865
   -40.6654 -38.2079 -38.0755 -38.0612 -36.9873 -36.5699 -34.8604 -34.8284
   -34.6750 -30.6138 -30.0645 -23.1190 -20.6800 -20.5893 -20.4395 -20.4372
   -20.3428 -20.2656 -19.3324 -18.9917 -18.8803 -18.8638 -17.3883 -17.1783
   -17.1000 -17.0334 -17.0180 -16.8605 -16.8440 -16.7679 -16.7463 -16.6884
   -16.5405 -16.4713 -16.1956 -15.9777 -13.2971 -13.1674 -13.0260 -12.9542
   -12.9264 -12.9222 -12.6742 -12.6413 -12.5114 -12.3225 -11.6597 -11.3785
    -7.0059  -6.6001  -6.5115  -6.3288  -6.1971  -6.1372  -4.8969  -4.6819
    -2.7405  -2.5205  -2.1861  -1.6464  -1.3352  -1.2004  -0.9403  -0.7121
    -0.6528  -0.5857  -0.0275   1.0769   1.6547   3.0496   3.5519   3.7674
     3.9575   4.1732   5.2162   6.5283   6.9253   7.4010   7.5127   7.5390
     7.6322   7.8694   8.2416   8.4307   8.5727   8.9963   9.0971   9.4057
     9.6084   9.9804  10.0337  10.8621  10.9525  11.5391  11.5738  11.6573
    11.7916  11.9471  12.2208  12.4401  12.4896  12.5450  12.7035  12.8635
    12.9025  13.1019  13.1459  13.1936  13.3140  13.4354  13.5540  13.5634
    13.8078  13.8717  13.9238  14.0608  14.2099  14.2246  14.2646  14.2948
    14.3282  14.5136  14.6697  14.9639  15.0235  15.0451  15.1760  15.3085
    15.3497  15.4603  15.6742  15.8912  16.0219  16.1940  16.2973  16.3659
    16.4375  16.5192  16.6038  16.6480  16.6650  16.9320  16.9662  17.0960

     the Fermi energy is    14.0350 ev

!    total energy              =   -2409.79046113 Ry
     estimated scf accuracy    <       0.00025675 Ry
     smearing contrib. (-TS)   =      -0.07726879 Ry
     internal energy E=F+TS    =   -2409.71319234 Ry

     total magnetization       =     0.01 Bohr mag/cell
     absolute magnetization    =     0.02 Bohr mag/cell

     convergence has been achieved in   6 iterations

     negative rho (up, down):  3.952E-01 3.952E-01

     Forces acting on atoms (cartesian axes, Ry/au):

     atom    1 type  1   force =    -0.00095349    1.89487482    0.01433474
     atom    2 type  1   force =    63.84563572   -0.07745493   -0.04740782
     atom    3 type  1   force =   -63.84538293   -0.07662155   -0.04706854
     atom    4 type  2   force =    -0.00054862    0.03135684    0.03084155
     atom    5 type  2   force =    -0.12790935   -0.00441056    0.04699800
     atom    6 type  2   force =   109.78659013   -0.06430507    0.05760508
     atom    7 type  2   force =  -109.78295558   -0.07200847    0.05675521
     atom    8 type  3   force =     0.11666374   -0.00405521    0.04647407
     atom    9 type  3   force =     0.00005366   -0.14086327    0.03731687
     atom   10 type  3   force =     0.00144440   -0.04135466   -0.03952471
     atom   11 type  3   force =     0.00266711    0.05677806   -0.04525978
     atom   12 type  3   force =   118.98386793   -0.06435128   -0.00367441
     atom   13 type  3   force =  -118.98172267   -0.06497612   -0.00261033
     atom   14 type  3   force =   118.96741875    0.05733781   -0.00980960
     atom   15 type  3   force =  -118.96558150    0.05796722   -0.00693323
     atom   16 type  3   force =   118.89665857    0.07013572   -0.05090018
     atom   17 type  3   force =  -118.89639436    0.07085803   -0.05072487
     atom   18 type  4   force =     0.05685195    0.01848651   -0.03313407
     atom   19 type  4   force =     0.00032003   -0.01066133   -0.00915520
     atom   20 type  4   force =    -0.05646731    0.01717013   -0.03206617
     atom   21 type  4   force =   117.45035982    0.08256873    0.04002432
     atom   22 type  4   force =  -117.44991531    0.08712857    0.04037905
     atom   23 type  5   force =    -0.00070070   -1.82359999    0.00754004
     The non-local contrib.  to forces
     atom    1 type  1   force =    -0.00690018   -0.76145822   -0.03825979
     atom    2 type  1   force =   -60.56333071    0.11010315    0.08031620
     atom    3 type  1   force =    60.56236471    0.11038275    0.08041614
     atom    4 type  2   force =     0.00027316   -0.12384509   -0.29915671
     atom    5 type  2   force =     0.50205289   -0.01253318    0.00783261
     atom    6 type  2   force =   -42.57520953    0.09688931   -0.09668569
     atom    7 type  2   force =    42.57112401    0.08999376   -0.10037687
     atom    8 type  3   force =     0.10409049    0.00553228    0.02970135
     atom    9 type  3   force =     0.00249987    0.08786232   -0.00603175
     atom   10 type  3   force =     0.00393396    0.03618771   -0.07522127
     atom   11 type  3   force =     0.00177098   -0.07243538   -0.10682985
     atom   12 type  3   force =    -7.02091715   -0.06949604    0.03331585
     atom   13 type  3   force =     7.01466798   -0.06950137    0.04198378
     atom   14 type  3   force =    -7.03099882    0.07756131   -0.06651322
     atom   15 type  3   force =     7.02373889    0.08165347   -0.06009508
     atom   16 type  3   force =    -6.95640082    0.06547526    0.05389280
     atom   17 type  3   force =     6.95699716    0.06547521    0.05271200
     atom   18 type  4   force =     0.07395310   -0.00199756   -0.05474946
     atom   19 type  4   force =     0.00128291    0.04681624    0.02023794
     atom   20 type  4   force =    -0.07363575   -0.00046168   -0.05756304
     atom   21 type  4   force =     8.52498994    0.02317544   -0.05175268
     atom   22 type  4   force =    -8.53290949    0.02536714   -0.05606392
     atom   23 type  5   force =    -0.00098016    0.10223983    0.00446523
     The ionic contribution  to forces
     atom    1 type  1   force =    -0.00007349   -1.65322329   -1.36928043
     atom    2 type  1   force =   164.18223225   -4.14658873  -23.80754433
     atom    3 type  1   force =  -164.18223029   -4.14658888  -23.80754481
     atom    4 type  2   force =    -0.00000161   -1.38085673  -25.13323412
     atom    5 type  2   force =   -13.61763288   -0.66558083   16.61023338
     atom    6 type  2   force =   192.07496819   -3.38925109   27.07210418
     atom    7 type  2   force =  -192.07496606   -3.38925124   27.07210471
     atom    8 type  3   force =    13.61763296   -0.66558225   16.61023024
     atom    9 type  3   force =    -0.00001862    6.48572062   -1.88434884
     atom   10 type  3   force =    -0.00000135    1.63370626   26.69468754
     atom   11 type  3   force =    -0.00000161   -1.54811863   26.39631033
     atom   12 type  3   force =   191.55788557    0.96284495   -1.72652797
     atom   13 type  3   force =  -191.55787583    0.96284341   -1.72652797
     atom   14 type  3   force =   191.63027673   -0.93806906   -0.83507164
     atom   15 type  3   force =  -191.63026381   -0.93806746   -0.83507164
     atom   16 type  3   force =   192.25596264    3.80876196  -25.94853291
     atom   17 type  3   force =  -192.25596022    3.80876211  -25.94853355
     atom   18 type  4   force =    13.09119856    0.50193191  -16.78852748
     atom   19 type  4   force =    -0.00000124    0.89165571  -23.28834990
     atom   20 type  4   force =   -13.09119848    0.50193322  -16.78853038
     atom   21 type  4   force =   163.90695305    3.72570772   24.76553353
     atom   22 type  4   force =  -163.90695082    3.72570786   24.76553412
     atom   23 type  5   force =     0.00006637   -4.14839755   -0.09911205
     The local contribution  to forces
     atom    1 type  1   force =     0.00425455    4.37452448    1.45437287
     atom    2 type  1   force =   -30.13785437    3.94947310   23.67044144
     atom    3 type  1   force =    30.13916616    3.95014615   23.67057609
     atom    4 type  2   force =    -0.00103199    1.53939189   25.48795065
     atom    5 type  2   force =    12.93701867    0.66970691  -16.56236771
     atom    6 type  2   force =   -34.58942015    3.22417897  -26.93156184
     atom    7 type  2   force =    34.60039663    3.22440881  -26.92854365
     atom    8 type  3   force =   -13.58319774    0.65053131  -16.58921315
     atom    9 type  3   force =    -0.00459519   -6.71019912    1.94979672
     atom   10 type  3   force =    -0.00453134   -1.70780741  -26.69123171
     atom   11 type  3   force =    -0.00148402    1.67818133  -26.36746904
     atom   12 type  3   force =   -64.46857030   -0.95868876    1.71416022
     atom   13 type  3   force =    64.48047501   -0.95817450    1.70619268
     atom   14 type  3   force =   -64.54806790    0.91863027    0.91718174
     atom   15 type  3   force =    64.56079581    0.91416050    0.91314976
     atom   16 type  3   force =   -65.32040350   -3.80320108   25.84260315
     atom   17 type  3   force =    65.32017958   -3.80250001   25.84383773
     atom   18 type  4   force =   -13.09383318   -0.47828405   16.82626553
     atom   19 type  4   force =    -0.00133746   -0.94678749   23.26698609
     atom   20 type  4   force =    13.09350484   -0.48114025   16.82816772
     atom   21 type  4   force =   -53.59839111   -3.66633239  -24.69382096
     atom   22 type  4   force =    53.60970001   -3.66461364  -24.68887723
     atom   23 type  5   force =     0.00008304    2.22267645    0.10392570
     The core correction contribution to forces
     atom    1 type  1   force =    -0.00039972   -0.06897371   -0.01076581
     atom    2 type  1   force =    -9.63666372    0.00929167    0.00896832
     atom    3 type  1   force =     9.63682138    0.00922748    0.00905907
     atom    4 type  2   force =    -0.00008216   -0.00449587   -0.02464833
     atom    5 type  2   force =     0.04313941   -0.00159681   -0.00481812
     atom    6 type  2   force =    -5.12366328    0.00698112   -0.00529904
     atom    7 type  2   force =     5.12364446    0.00686165   -0.00473211
     atom    8 type  3   force =    -0.01492881   -0.00060230   -0.00096617
     atom    9 type  3   force =    -0.00032061   -0.00431667    0.00038961
     atom   10 type  3   force =    -0.00041617   -0.00009608    0.01138036
     atom   11 type  3   force =    -0.00029559    0.00176486    0.01231939
     atom   12 type  3   force =    -1.08057785    0.00215405   -0.00124079
     atom   13 type  3   force =     1.08072235    0.00213268   -0.00159231
     atom   14 type  3   force =    -1.08043350   -0.00252989    0.00153354
     atom   15 type  3   force =     1.08060720   -0.00267621    0.00129906
     atom   16 type  3   force =    -1.08322483   -0.00258570   -0.00048810
     atom   17 type  3   force =     1.08320420   -0.00256064   -0.00043766
     atom   18 type  4   force =    -0.01125022   -0.00053534    0.00330338
     atom   19 type  4   force =    -0.00005247   -0.00174601   -0.00597735
     atom   20 type  4   force =     0.01126103   -0.00061786    0.00338541
     atom   21 type  4   force =    -1.38082778   -0.00161268    0.00144396
     atom   22 type  4   force =     1.38108154   -0.00182607    0.00186039
     atom   23 type  5   force =     0.00000000    0.00000000    0.00000000
     The Hubbard contrib.    to forces
     atom    1 type  1   force =     0.00000000    0.00000000    0.00000000
     atom    2 type  1   force =     0.00000000    0.00000000    0.00000000
     atom    3 type  1   force =     0.00000000    0.00000000    0.00000000
     atom    4 type  2   force =     0.00000000    0.00000000    0.00000000
     atom    5 type  2   force =     0.00000000    0.00000000    0.00000000
     atom    6 type  2   force =     0.00000000    0.00000000    0.00000000
     atom    7 type  2   force =     0.00000000    0.00000000    0.00000000
     atom    8 type  3   force =     0.00000000    0.00000000    0.00000000
     atom    9 type  3   force =     0.00000000    0.00000000    0.00000000
     atom   10 type  3   force =     0.00000000    0.00000000    0.00000000
     atom   11 type  3   force =     0.00000000    0.00000000    0.00000000
     atom   12 type  3   force =     0.00000000    0.00000000    0.00000000
     atom   13 type  3   force =     0.00000000    0.00000000    0.00000000
     atom   14 type  3   force =     0.00000000    0.00000000    0.00000000
     atom   15 type  3   force =     0.00000000    0.00000000    0.00000000
     atom   16 type  3   force =     0.00000000    0.00000000    0.00000000
     atom   17 type  3   force =     0.00000000    0.00000000    0.00000000
     atom   18 type  4   force =     0.00000000    0.00000000    0.00000000
     atom   19 type  4   force =     0.00000000    0.00000000    0.00000000
     atom   20 type  4   force =     0.00000000    0.00000000    0.00000000
     atom   21 type  4   force =     0.00000000    0.00000000    0.00000000
     atom   22 type  4   force =     0.00000000    0.00000000    0.00000000
     atom   23 type  5   force =     0.00000000    0.00000000    0.00000000
     The SCF correction term to forces
     atom    1 type  1   force =     0.00000000    0.00000000   -0.00000000
     atom    2 type  1   force =     0.00000000    0.00000000    0.00000000
     atom    3 type  1   force =    -0.00000000    0.00000000    0.00000000
     atom    4 type  2   force =     0.00000000    0.00000000   -0.00000000
     atom    5 type  2   force =     0.00000000    0.00000000   -0.00000000
     atom    6 type  2   force =    -0.00000000   -0.00000000    0.00000000
     atom    7 type  2   force =    -0.00000000   -0.00000000    0.00000000
     atom    8 type  3   force =    -0.00000000    0.00000000   -0.00000000
     atom    9 type  3   force =     0.00000000    0.00000000   -0.00000000
     atom   10 type  3   force =     0.00000000   -0.00000000    0.00000000
     atom   11 type  3   force =     0.00000000   -0.00000000    0.00000000
     atom   12 type  3   force =    -0.00000000   -0.00000000   -0.00000000
     atom   13 type  3   force =     0.00000000   -0.00000000   -0.00000000
     atom   14 type  3   force =    -0.00000000    0.00000000   -0.00000000
     atom   15 type  3   force =    -0.00000000    0.00000000   -0.00000000
     atom   16 type  3   force =     0.00000000    0.00000000    0.00000000
     atom   17 type  3   force =    -0.00000000    0.00000000    0.00000000
     atom   18 type  4   force =    -0.00000000   -0.00000000   -0.00000000
     atom   19 type  4   force =     0.00000000   -0.00000000   -0.00000000
     atom   20 type  4   force =     0.00000000   -0.00000000   -0.00000000
     atom   21 type  4   force =    -0.00000000    0.00000000    0.00000000
     atom   22 type  4   force =    -0.00000000    0.00000000    0.00000000
     atom   23 type  5   force =     0.00005378   -0.00013918   -0.00206233

     Total force =     1.823616     Total SCF correction =     0.002068

     Entering Dynamics:    iteration =     2
                           time      =   0.0010 pico-seconds


ATOMIC_POSITIONS (angstrom)
Hf            3.5399999140        0.2000000000        5.3399999140    0   0   0
Hf            0.2000000000        3.5399999140        2.0000000000    0   0   0
Hf            6.8799998280        3.5399999140        2.0000000000    0   0   0
Ta            3.5399999140        0.2000000000        2.0000000000    0   0   0
Ta            5.2099998710        1.8699999570        7.0099998710    0   0   0
Ta            0.2000000000        3.5399999140        8.6799998280    0   0   0
Ta            6.8799998280        3.5399999140        8.6799998280    0   0   0
Nb            1.8699999570        1.8699999570        7.0099998710    0   0   0
Nb            3.5399999140        3.5399999140        5.3399999140    0   0   0
Nb            3.5399999140        3.5399999140        8.6799998280    0   0   0
Nb            3.5399999140        0.2000000000        8.6799998280    0   0   0
Nb            0.2000000000        3.5399999140        5.3399999140    0   0   0
Nb            6.8799998280        3.5399999140        5.3399999140    0   0   0
Nb            0.2000000000        0.2000000000        5.3399999140    0   0   0
Nb            6.8799998280        0.2000000000        5.3399999140    0   0   0
Nb            0.2000000000        0.2000000000        2.0000000000    0   0   0
Nb            6.8799998280        0.2000000000        2.0000000000    0   0   0
Zr            1.8699999570        1.8699999570        3.6699999570    0   0   0
Zr            3.5399999140        3.5399999140        2.0000000000    0   0   0
Zr            5.2099998710        1.8699999570        3.6699999570    0   0   0
Zr            0.2000000000        0.2000000000        8.6799998280    0   0   0
Zr            6.8799998280        0.2000000000        8.6799998280    0   0   0
H             3.5400018338        4.8193242526        5.3403282759


     kinetic energy (Ekin) =           3.86009970 Ry
     temperature           =      406307.69304870 K 
     Ekin + Etot (const)   =       -2405.93036143 Ry

     Writing config-only to output data dir outdir/pwscf.save/
     NEW-OLD atomic charge density approx. for the potential

     Check: negative core charge=   -0.000002

     negative rho (up, down):  3.961E-01 3.961E-01
     Generating pointlists ...

     total cpu time spent up to now is      451.3 secs

     Self-consistent Calculation

     iteration #  1     ecut=   120.00 Ry     beta= 0.70
     Davidson diagonalization with overlap
     ethr =  1.00E-06,  avg # of iterations = 14.0

     negative rho (up, down):  3.962E-01 3.962E-01

     total cpu time spent up to now is      503.2 secs

     total energy              =   -2410.22597617 Ry
     estimated scf accuracy    <       0.45817797 Ry

     total magnetization       =     0.00 Bohr mag/cell
     absolute magnetization    =     0.02 Bohr mag/cell

     iteration #  2     ecut=   120.00 Ry     beta= 0.70
     Davidson diagonalization with overlap
     ethr =  1.64E-04,  avg # of iterations =  3.0

     negative rho (up, down):  3.966E-01 3.965E-01

     total cpu time spent up to now is      527.5 secs

     total energy              =   -2410.26972351 Ry
     estimated scf accuracy    <       0.29163157 Ry

     total magnetization       =     0.00 Bohr mag/cell
     absolute magnetization    =     0.02 Bohr mag/cell

     iteration #  3     ecut=   120.00 Ry     beta= 0.70
     Davidson diagonalization with overlap
     ethr =  1.05E-04,  avg # of iterations =  2.0

     negative rho (up, down):  3.969E-01 3.969E-01

     total cpu time spent up to now is      548.6 secs

     total energy              =   -2410.28792573 Ry
     estimated scf accuracy    <       0.02808277 Ry

     total magnetization       =     0.00 Bohr mag/cell
     absolute magnetization    =     0.02 Bohr mag/cell

     iteration #  4     ecut=   120.00 Ry     beta= 0.70
     Davidson diagonalization with overlap
     ethr =  1.01E-05,  avg # of iterations =  3.0

     negative rho (up, down):  3.970E-01 3.970E-01

     total cpu time spent up to now is      570.0 secs

     total energy              =   -2410.28984547 Ry
     estimated scf accuracy    <       0.00814413 Ry

     total magnetization       =     0.00 Bohr mag/cell
     absolute magnetization    =     0.02 Bohr mag/cell

     iteration #  5     ecut=   120.00 Ry     beta= 0.70
     Davidson diagonalization with overlap
     ethr =  2.92E-06,  avg # of iterations =  6.0

     negative rho (up, down):  3.971E-01 3.971E-01

     total cpu time spent up to now is      590.8 secs

     total energy              =   -2410.29025024 Ry
     estimated scf accuracy    <       0.00158223 Ry

     total magnetization       =     0.00 Bohr mag/cell
     absolute magnetization    =     0.02 Bohr mag/cell

     iteration #  6     ecut=   120.00 Ry     beta= 0.70
     Davidson diagonalization with overlap
     ethr =  5.67E-07,  avg # of iterations =  2.0

     negative rho (up, down):  3.972E-01 3.972E-01

     Magnetic moment per site  (integrated on atomic sphere of radius R)
     atom   1 (R=0.039)  charge=  0.0316  magn=  0.0000
     atom   2 (R=0.039)  charge=  0.2775  magn=  0.0000
     atom   3 (R=0.039)  charge=  0.2774  magn=  0.0000
     atom   4 (R=0.039)  charge=  0.0862  magn= -0.0000
     atom   5 (R=0.039)  charge=  0.0821  magn=  0.0000
     atom   6 (R=0.039)  charge=  0.3907  magn=  0.0000
     atom   7 (R=0.039)  charge=  0.3910  magn=  0.0000
     atom   8 (R=0.039)  charge=  0.3665  magn=  0.0000
     atom   9 (R=0.039)  charge=  0.3694  magn=  0.0000
     atom  10 (R=0.039)  charge=  0.3663  magn=  0.0000
     atom  11 (R=0.039)  charge=  0.3666  magn=  0.0000
     atom  12 (R=0.039)  charge=  0.9020  magn=  0.0000
     atom  13 (R=0.039)  charge=  0.9027  magn=  0.0000
     atom  14 (R=0.039)  charge=  0.9016  magn=  0.0000
     atom  15 (R=0.039)  charge=  0.9028  magn=  0.0000
     atom  16 (R=0.039)  charge=  0.9011  magn=  0.0000
     atom  17 (R=0.039)  charge=  0.9024  magn=  0.0000
     atom  18 (R=0.039)  charge=  0.0938  magn= -0.0000
     atom  19 (R=0.039)  charge=  0.0955  magn= -0.0000
     atom  20 (R=0.039)  charge=  0.0939  magn= -0.0000
     atom  21 (R=0.039)  charge=  0.5229  magn=  0.0000
     atom  22 (R=0.039)  charge=  0.5242  magn=  0.0000
     atom  23 (R=0.039)  charge=  0.2825  magn= -0.0000

     total cpu time spent up to now is      611.5 secs

     End of self-consistent calculation

 ------ SPIN UP ------------


          k = 0.0000 0.0000 0.0000 ( 35675 PWs)   bands (ev):

  -153.4822-146.6990 -83.6526 -83.5351 -83.5028 -59.5168 -59.2936 -55.0848
   -54.0103 -53.8757 -50.4248 -48.9137 -48.7405 -48.7157 -48.7017 -48.6125
   -48.5271 -48.5174 -48.2077 -47.9215 -47.4801 -40.9747 -40.8101 -40.7672
   -40.4936 -38.2071 -38.1003 -38.0760 -36.9784 -36.5666 -34.8451 -34.8130
   -34.6607 -30.6096 -30.0571 -23.1116 -20.6644 -20.5666 -20.4297 -20.4277
   -20.3384 -20.2573 -19.3367 -19.0158 -18.8758 -17.8616 -17.3794 -17.1659
   -17.0586 -17.0157 -16.9816 -16.8510 -16.7998 -16.7362 -16.5686 -16.4721
   -16.3549 -16.2826 -16.1740 -15.9987 -13.2783 -13.1515 -13.0037 -12.9319
   -12.9207 -12.9179 -12.6594 -12.6278 -12.4973 -12.3175 -11.6516 -11.3696
    -7.0110  -6.6232  -6.5116  -6.3407  -6.2208  -6.1449  -4.8954  -4.6723
    -2.7293  -2.5093  -2.1901  -1.6500  -1.3587  -1.1905  -0.9664  -0.7078
    -0.6581  -0.5873  -0.0190   1.0686   1.6381   3.0431   3.5556   3.7763
     3.9613   4.1814   5.2116   6.5195   6.9144   7.0045   7.4189   7.5212
     7.6180   7.7220   8.1609   8.4398   8.5711   8.9695   9.0959   9.4146
     9.6061   9.9577  10.0315  10.8565  10.9598  11.5464  11.5939  11.6758
    11.8008  11.9593  12.2265  12.4524  12.5041  12.5667  12.6798  12.8698
    12.9162  13.1079  13.1523  13.1953  13.3138  13.3927  13.4773  13.5782
    13.8255  13.8562  13.9191  14.0477  14.2416  14.2503  14.2764  14.3035
    14.3373  14.5114  14.6849  14.9771  15.0178  15.0503  15.1716  15.3124
    15.3577  15.4733  15.6896  15.8971  16.0272  16.1980  16.3313  16.3853
    16.4419  16.5348  16.6223  16.6662  16.6711  16.9692  17.0109  17.1012

 ------ SPIN DOWN ----------


          k = 0.0000 0.0000 0.0000 ( 35675 PWs)   bands (ev):

  -153.4822-146.6990 -83.6525 -83.5351 -83.5028 -59.5168 -59.2936 -55.0847
   -54.0097 -53.8762 -50.4248 -48.9137 -48.7405 -48.7157 -48.7017 -48.6125
   -48.5271 -48.5173 -48.2077 -47.9215 -47.4801 -40.9741 -40.8098 -40.7662
   -40.4933 -38.2071 -38.1003 -38.0760 -36.9784 -36.5666 -34.8459 -34.8138
   -34.6614 -30.6096 -30.0569 -23.1115 -20.6638 -20.5657 -20.4306 -20.4268
   -20.3391 -20.2578 -19.3367 -19.0158 -18.8758 -17.8614 -17.3790 -17.1652
   -17.0578 -17.0149 -16.9805 -16.8508 -16.7988 -16.7356 -16.5681 -16.4717
   -16.3545 -16.2824 -16.1739 -15.9984 -13.2794 -13.1526 -13.0044 -12.9326
   -12.9216 -12.9188 -12.6600 -12.6287 -12.4981 -12.3174 -11.6515 -11.3695
    -7.0109  -6.6232  -6.5116  -6.3406  -6.2208  -6.1449  -4.8953  -4.6722
    -2.7293  -2.5092  -2.1901  -1.6499  -1.3587  -1.1906  -0.9664  -0.7077
    -0.6580  -0.5872  -0.0190   1.0686   1.6381   3.0432   3.5557   3.7764
     3.9613   4.1814   5.2116   6.5198   6.9145   7.0046   7.4190   7.5211
     7.6181   7.7222   8.1610   8.4401   8.5712   8.9696   9.0959   9.4149
     9.6061   9.9577  10.0317  10.8564  10.9597  11.5469  11.5943  11.6761
    11.8007  11.9596  12.2268  12.4526  12.5045  12.5668  12.6799  12.8691
    12.9161  13.1081  13.1519  13.1951  13.3140  13.3928  13.4772  13.5787
    13.8259  13.8567  13.9185  14.0484  14.2416  14.2504  14.2759  14.3032
    14.3381  14.5114  14.6852  14.9776  15.0177  15.0506  15.1714  15.3130
    15.3582  15.4737  15.6908  15.8971  16.0265  16.1975  16.3316  16.3856
    16.4420  16.5349  16.6222  16.6660  16.6711  16.9691  17.0107  17.1010

     the Fermi energy is    14.0403 ev

!    total energy              =   -2410.28999070 Ry
     estimated scf accuracy    <       0.00039837 Ry
     smearing contrib. (-TS)   =      -0.07420767 Ry
     internal energy E=F+TS    =   -2410.21578303 Ry

     total magnetization       =     0.00 Bohr mag/cell
     absolute magnetization    =     0.02 Bohr mag/cell

     convergence has been achieved in   6 iterations

     negative rho (up, down):  3.972E-01 3.972E-01

     Forces acting on atoms (cartesian axes, Ry/au):

     atom    1 type  1   force =     0.00084178    0.37979533    0.00442150
     atom    2 type  1   force =    63.80915242   -0.07748934   -0.04584100
     atom    3 type  1   force =   -63.80950569   -0.07709167   -0.04543810
     atom    4 type  2   force =    -0.00064253    0.03287411    0.03218146
     atom    5 type  2   force =    -0.12756576   -0.00571192    0.04056117
     atom    6 type  2   force =   109.80716935   -0.06514576    0.06087544
     atom    7 type  2   force =  -109.80468525   -0.07297551    0.05997528
     atom    8 type  3   force =     0.11663732   -0.00555222    0.04283404
     atom    9 type  3   force =     0.00066331   -0.66191277    0.04090965
     atom   10 type  3   force =     0.00186346   -0.04090272   -0.03781135
     atom   11 type  3   force =     0.00262047    0.05632195   -0.04504836
     atom   12 type  3   force =   118.97677152   -0.06254870    0.00381022
     atom   13 type  3   force =  -118.97472569   -0.06389264    0.00496193
     atom   14 type  3   force =   118.96995865    0.05546543   -0.00041924
     atom   15 type  3   force =  -118.96756696    0.05589271    0.00259984
     atom   16 type  3   force =   118.93267117    0.07026434   -0.05418150
     atom   17 type  3   force =  -118.93254209    0.07068890   -0.05394478
     atom   18 type  4   force =     0.05727457    0.01609081   -0.04146721
     atom   19 type  4   force =     0.00018509   -0.01329578   -0.01098774
     atom   20 type  4   force =    -0.05710454    0.01513293   -0.03921606
     atom   21 type  4   force =   117.42864238    0.08201087    0.04114839
     atom   22 type  4   force =  -117.42916501    0.08708433    0.04154755
     atom   23 type  5   force =    -0.00094796    0.22489735   -0.00147115
     The non-local contrib.  to forces
     atom    1 type  1   force =    -0.00642270   -0.06309607   -0.04035064
     atom    2 type  1   force =   -60.59899558    0.11128271    0.08288132
     atom    3 type  1   force =    60.59806468    0.11129493    0.08297404
     atom    4 type  2   force =     0.00019424   -0.12588431   -0.29969466
     atom    5 type  2   force =     0.50911126   -0.00414350    0.00555102
     atom    6 type  2   force =   -42.55413865    0.09541279   -0.09221533
     atom    7 type  2   force =    42.54976047    0.08825618   -0.09614018
     atom    8 type  3   force =     0.10715026   -0.00229313    0.03124771
     atom    9 type  3   force =     0.00168661    0.14651110   -0.02219752
     atom   10 type  3   force =     0.00422657    0.03781151   -0.07297002
     atom   11 type  3   force =     0.00173927   -0.07400722   -0.10797612
     atom   12 type  3   force =    -7.02300535   -0.07179664    0.04411362
     atom   13 type  3   force =     7.01620873   -0.07256358    0.05207859
     atom   14 type  3   force =    -7.02951094    0.07466394   -0.05360727
     atom   15 type  3   force =     7.02503176    0.07780366   -0.04836109
     atom   16 type  3   force =    -6.91917222    0.06399250    0.05022057
     atom   17 type  3   force =     6.91980411    0.06463212    0.04908539
     atom   18 type  4   force =     0.07461764   -0.00146072   -0.05670180
     atom   19 type  4   force =     0.00132968    0.04495315    0.02121109
     atom   20 type  4   force =    -0.07417002   -0.00007671   -0.05776497
     atom   21 type  4   force =     8.50575107    0.01936379   -0.05564583
     atom   22 type  4   force =    -8.51281804    0.02176741   -0.06006128
     atom   23 type  5   force =    -0.00102051   -0.04484866    0.00159647
     The ionic contribution  to forces
     atom    1 type  1   force =    -0.00000443   -4.71213119   -1.36979422
     atom    2 type  1   force =   164.17986977   -4.14633628  -23.81600056
     atom    3 type  1   force =  -164.17986943   -4.14633631  -23.81600065
     atom    4 type  2   force =    -0.00000023   -1.37188951  -25.08725690
     atom    5 type  2   force =   -13.62649312   -0.77208377   16.60098124
     atom    6 type  2   force =   192.07239465   -3.38899082   27.08132494
     atom    7 type  2   force =  -192.07239429   -3.38899084   27.08132503
     atom    8 type  3   force =    13.62649312   -0.77208372   16.60098077
     atom    9 type  3   force =    -0.00000659    4.56785732   -1.88543544
     atom   10 type  3   force =    -0.00000024    1.63167781   26.74073663
     atom   11 type  3   force =    -0.00000023   -1.53908292   26.35050548
     atom   12 type  3   force =   191.53161784    0.96074010   -1.72660391
     atom   13 type  3   force =  -191.53161599    0.96073983   -1.72660391
     atom   14 type  3   force =   191.65692081   -0.92471309   -0.83514396
     atom   15 type  3   force =  -191.65691907   -0.92471283   -0.83514396
     atom   16 type  3   force =   192.25846411    3.81237400  -25.93962700
     atom   17 type  3   force =  -192.25846376    3.81237402  -25.93962709
     atom   18 type  4   force =    13.09944034    0.40363604  -16.78003333
     atom   19 type  4   force =    -0.00000022    0.88984645  -23.33067706
     atom   20 type  4   force =   -13.09944034    0.40363599  -16.78003376
     atom   21 type  4   force =   163.90925004    3.72905456   24.75736571
     atom   22 type  4   force =  -163.90924971    3.72905458   24.75736579
     atom   23 type  5   force =     0.00000696    1.18636059   -0.10260384
     The local contribution  to forces
     atom    1 type  1   force =     0.01149451    5.16402301    1.39658929
     atom    2 type  1   force =   -30.13359786    3.94624317   23.68657780
     atom    3 type  1   force =    30.13336187    3.94678612   23.68677942
     atom    4 type  2   force =    -0.00027267    1.54096260   25.46528273
     atom    5 type  2   force =    12.94572459    0.76951370  -16.58246470
     atom    6 type  2   force =   -34.59182742    3.22098325  -26.90460523
     atom    7 type  2   force =    34.58961358    3.21895193  -26.90389786
     atom    8 type  3   force =   -13.59808638    0.76722584  -16.60957135
     atom    9 type  3   force =     0.00411893   -5.37138714    1.91360467
     atom   10 type  3   force =     0.00326838   -1.71532529  -26.70313121
     atom   11 type  3   force =     0.00626242    1.66686015  -26.29326288
     atom   12 type  3   force =   -64.45608016   -0.95695177    1.65553937
     atom   13 type  3   force =    64.45569886   -0.95899161    1.65110354
     atom   14 type  3   force =   -64.57960192    0.91172715    0.85263798
     atom   15 type  3   force =    64.57734431    0.91061211    0.85255245
     atom   16 type  3   force =   -65.32499679   -3.80029775   25.84868362
     atom   17 type  3   force =    65.32383721   -3.80053877   25.85001775
     atom   18 type  4   force =   -13.10058077   -0.38922773   16.78078318
     atom   19 type  4   force =    -0.00058076   -0.95574100   23.31879448
     atom   20 type  4   force =    13.10100085   -0.39157105   16.78756749
     atom   21 type  4   force =   -53.61257389   -3.66536598  -24.64774607
     atom   22 type  4   force =    53.61061878   -3.66123335  -24.64494854
     atom   23 type  5   force =     0.00034631   -0.91549364    0.09781487
     The core correction contribution to forces
     atom    1 type  1   force =    -0.00034927   -0.00026221   -0.00903335
     atom    2 type  1   force =    -9.63695826    0.00936805    0.00896987
     atom    3 type  1   force =     9.63709535    0.00924353    0.00905827
     atom    4 type  2   force =    -0.00008992   -0.00425671   -0.02479000
     atom    5 type  2   force =     0.04406668   -0.00048365   -0.00463288
     atom    6 type  2   force =    -5.12356503    0.00682626   -0.00532509
     atom    7 type  2   force =     5.12353567    0.00672755   -0.00474775
     atom    8 type  3   force =    -0.01524921   -0.00003556   -0.00099280
     atom    9 type  3   force =    -0.00023531   -0.01039980    0.00132106
     atom   10 type  3   force =    -0.00042199   -0.00018056    0.01132035
     atom   11 type  3   force =    -0.00029243    0.00176504    0.01242985
     atom   12 type  3   force =    -1.08065352    0.00227908   -0.00124230
     atom   13 type  3   force =     1.08082139    0.00229602   -0.00157005
     atom   14 type  3   force =    -1.08036606   -0.00248232    0.00150916
     atom   15 type  3   force =     1.08047832   -0.00260240    0.00130897
     atom   16 type  3   force =    -1.08330351   -0.00254611   -0.00046183
     atom   17 type  3   force =     1.08328449   -0.00255528   -0.00041345
     atom   18 type  4   force =    -0.01147860   -0.00047407    0.00302434
     atom   19 type  4   force =    -0.00005200   -0.00173917   -0.00600340
     atom   20 type  4   force =     0.01147703   -0.00054101    0.00307808
     atom   21 type  4   force =    -1.38078428   -0.00141935    0.00163484
     atom   22 type  4   force =     1.38097974   -0.00163244    0.00206740
     atom   23 type  5   force =     0.00000000    0.00000000    0.00000000
     The Hubbard contrib.    to forces
     atom    1 type  1   force =     0.00000000    0.00000000    0.00000000
     atom    2 type  1   force =     0.00000000    0.00000000    0.00000000
     atom    3 type  1   force =     0.00000000    0.00000000    0.00000000
     atom    4 type  2   force =     0.00000000    0.00000000    0.00000000
     atom    5 type  2   force =     0.00000000    0.00000000    0.00000000
     atom    6 type  2   force =     0.00000000    0.00000000    0.00000000
     atom    7 type  2   force =     0.00000000    0.00000000    0.00000000
     atom    8 type  3   force =     0.00000000    0.00000000    0.00000000
     atom    9 type  3   force =     0.00000000    0.00000000    0.00000000
     atom   10 type  3   force =     0.00000000    0.00000000    0.00000000
     atom   11 type  3   force =     0.00000000    0.00000000    0.00000000
     atom   12 type  3   force =     0.00000000    0.00000000    0.00000000
     atom   13 type  3   force =     0.00000000    0.00000000    0.00000000
     atom   14 type  3   force =     0.00000000    0.00000000    0.00000000
     atom   15 type  3   force =     0.00000000    0.00000000    0.00000000
     atom   16 type  3   force =     0.00000000    0.00000000    0.00000000
     atom   17 type  3   force =     0.00000000    0.00000000    0.00000000
     atom   18 type  4   force =     0.00000000    0.00000000    0.00000000
     atom   19 type  4   force =     0.00000000    0.00000000    0.00000000
     atom   20 type  4   force =     0.00000000    0.00000000    0.00000000
     atom   21 type  4   force =     0.00000000    0.00000000    0.00000000
     atom   22 type  4   force =     0.00000000    0.00000000    0.00000000
     atom   23 type  5   force =     0.00000000    0.00000000    0.00000000
     The SCF correction term to forces
     atom    1 type  1   force =    -0.00000000   -0.00000000    0.00000000
     atom    2 type  1   force =    -0.00000000    0.00000000   -0.00000000
     atom    3 type  1   force =     0.00000000    0.00000000   -0.00000000
     atom    4 type  2   force =    -0.00000000   -0.00000000   -0.00000000
     atom    5 type  2   force =     0.00000000    0.00000000    0.00000000
     atom    6 type  2   force =     0.00000000    0.00000000   -0.00000000
     atom    7 type  2   force =     0.00000000    0.00000000   -0.00000000
     atom    8 type  3   force =    -0.00000000    0.00000000    0.00000000
     atom    9 type  3   force =    -0.00000000    0.00000000    0.00000000
     atom   10 type  3   force =    -0.00000000    0.00000000   -0.00000000
     atom   11 type  3   force =    -0.00000000    0.00000000   -0.00000000
     atom   12 type  3   force =     0.00000000    0.00000000    0.00000000
     atom   13 type  3   force =     0.00000000    0.00000000    0.00000000
     atom   14 type  3   force =     0.00000000   -0.00000000    0.00000000
     atom   15 type  3   force =     0.00000000   -0.00000000    0.00000000
     atom   16 type  3   force =     0.00000000   -0.00000000   -0.00000000
     atom   17 type  3   force =    -0.00000000   -0.00000000   -0.00000000
     atom   18 type  4   force =    -0.00000000    0.00000000    0.00000000
     atom   19 type  4   force =    -0.00000000    0.00000000   -0.00000000
     atom   20 type  4   force =     0.00000000    0.00000000    0.00000000
     atom   21 type  4   force =     0.00000000    0.00000000   -0.00000000
     atom   22 type  4   force =     0.00000000   -0.00000000   -0.00000000
     atom   23 type  5   force =    -0.00021958   -0.00132220    0.00250214

     Total force =     0.224904     Total SCF correction =     0.002839

     Entering Dynamics:    iteration =     3
                           time      =   0.0015 pico-seconds


ATOMIC_POSITIONS (angstrom)
Hf            3.5399999140        0.2000000000        5.3399999140    0   0   0
Hf            0.2000000000        3.5399999140        2.0000000000    0   0   0
Hf            6.8799998280        3.5399999140        2.0000000000    0   0   0
Ta            3.5399999140        0.2000000000        2.0000000000    0   0   0
Ta            5.2099998710        1.8699999570        7.0099998710    0   0   0
Ta            0.2000000000        3.5399999140        8.6799998280    0   0   0
Ta            6.8799998280        3.5399999140        8.6799998280    0   0   0
Nb            1.8699999570        1.8699999570        7.0099998710    0   0   0
[...]
     7.6213   7.9928   8.3325   8.4367   8.5699   8.9949   9.1157   9.4098
     9.6065   9.9263  10.0369  10.8593  10.9530  11.4809  11.5525  11.6280
    11.7843  11.9609  12.2303  12.4581  12.4926  12.5566  12.6928  12.8671
    12.8946  13.0460  13.1418  13.1705  13.3000  13.4673  13.5710  13.5837
    13.8239  13.8704  13.9203  14.0708  14.1976  14.2620  14.2899  14.3120
    14.3478  14.5029  14.6855  14.9750  15.0042  15.0386  15.1865  15.2905
    15.3577  15.4806  15.6832  15.8844  16.0215  16.2035  16.2895  16.3417
    16.4180  16.5327  16.6154  16.6489  16.6642  16.9881  17.0098  17.1087

 ------ SPIN DOWN ----------


          k = 0.0000 0.0000 0.0000 ( 35675 PWs)   bands (ev):

  -153.4829-146.6785 -83.6283 -83.5378 -83.4559 -59.5203 -59.2975 -55.0813
   -54.0260 -53.8792 -50.4358 -48.8991 -48.7203 -48.6950 -48.6718 -48.6191
   -48.5057 -48.4690 -48.1873 -47.8970 -47.7572 -41.5477 -40.9917 -40.7891
   -40.7573 -38.1816 -38.0825 -38.0533 -36.9894 -36.5790 -34.8595 -34.8289
   -34.6526 -30.6176 -30.0512 -23.0899 -20.6825 -20.5990 -20.4372 -20.4342
   -20.3445 -20.2528 -19.8110 -19.3250 -18.9729 -18.8705 -17.3791 -17.1795
   -17.0776 -17.0125 -17.0059 -16.8249 -16.8078 -16.7220 -16.5640 -16.4840
   -16.4780 -16.4254 -16.3451 -16.2184 -13.2853 -13.1512 -13.0274 -12.9627
   -12.9350 -12.9300 -12.6474 -12.6224 -12.4916 -12.3257 -11.6509 -11.3700
    -7.0032  -6.5812  -6.4882  -6.3482  -6.1751  -6.1390  -4.8733  -4.6475
    -2.7371  -2.5159  -2.1835  -1.6416  -1.3163  -1.2007  -0.9232  -0.7182
    -0.6518  -0.5832  -0.0219   1.0841   1.6684   3.0516   3.5786   3.7641
     3.9834   4.1707   5.2389   6.5298   6.9243   7.4168   7.5552   7.5900
     7.6214   7.9928   8.3325   8.4369   8.5700   8.9950   9.1157   9.4099
     9.6065   9.9263  10.0370  10.8593  10.9529  11.4811  11.5527  11.6282
    11.7843  11.9611  12.2304  12.4583  12.4928  12.5566  12.6927  12.8666
    12.8946  13.0460  13.1413  13.1703  13.3001  13.4670  13.5712  13.5840
    13.8243  13.8705  13.9198  14.0710  14.1975  14.2618  14.2901  14.3116
    14.3482  14.5028  14.6857  14.9751  15.0041  15.0387  15.1863  15.2909
    15.3577  15.4808  15.6840  15.8843  16.0210  16.2030  16.2897  16.3418
    16.4180  16.5326  16.6153  16.6488  16.6642  16.9880  17.0095  17.1085

     the Fermi energy is    14.0452 ev

!    total energy              =   -2409.30619780 Ry
     estimated scf accuracy    <       0.00061940 Ry
     smearing contrib. (-TS)   =      -0.07593963 Ry
     internal energy E=F+TS    =   -2409.23025817 Ry

     total magnetization       =     0.00 Bohr mag/cell
     absolute magnetization    =     0.01 Bohr mag/cell

     convergence has been achieved in   6 iterations

     negative rho (up, down):  3.974E-01 3.974E-01

     Forces acting on atoms (cartesian axes, Ry/au):

     atom    1 type  1   force =     0.00049076    0.04848644    0.03064091
     atom    2 type  1   force =    63.86370725   -0.07931762   -0.04784371
     atom    3 type  1   force =   -63.86372912   -0.07855616   -0.04753270
     atom    4 type  2   force =    -0.00101744    0.03366030    0.03568501
     atom    5 type  2   force =    -0.12340402   -0.01103910    0.03996847
     atom    6 type  2   force =   109.78821552   -0.06393841    0.05745876
     atom    7 type  2   force =  -109.78541328   -0.07225539    0.05633215
     atom    8 type  3   force =     0.11312023   -0.01141107    0.03916504
     atom    9 type  3   force =     0.00032081   -3.18213454    0.03068088
     atom   10 type  3   force =     0.00177180   -0.03943723   -0.03891670
     atom   11 type  3   force =     0.00222940    0.05802411   -0.04621343
     atom   12 type  3   force =   118.98146266   -0.06375152   -0.00411386
     atom   13 type  3   force =  -118.97988393   -0.06454460   -0.00319882
     atom   14 type  3   force =   118.97817198    0.05557427   -0.00976411
     atom   15 type  3   force =  -118.97558952    0.05543916   -0.00677195
     atom   16 type  3   force =   118.88930989    0.06982402   -0.04992642
     atom   17 type  3   force =  -118.88935499    0.07050789   -0.04978264
     atom   18 type  4   force =     0.05678697    0.02148490   -0.03250728
     atom   19 type  4   force =     0.00000914   -0.01148607   -0.00924247
     atom   20 type  4   force =    -0.05646815    0.02073126   -0.02998571
     atom   21 type  4   force =   117.45290448    0.08197606    0.04098524
     atom   22 type  4   force =  -117.45302641    0.08663889    0.04122564
     atom   23 type  5   force =    -0.00061402    3.07552443    0.00365768
     The non-local contrib.  to forces
     atom    1 type  1   force =    -0.00799419   -0.07600219   -0.02871431
     atom    2 type  1   force =   -60.54383162    0.10779010    0.08001367
     atom    3 type  1   force =    60.54301375    0.10787434    0.08011104
     atom    4 type  2   force =     0.00000096   -0.12554068   -0.30269720
     atom    5 type  2   force =     0.49435580    0.00347840   -0.00687225
     atom    6 type  2   force =   -42.57612171    0.09985900   -0.09654191
     atom    7 type  2   force =    42.57236575    0.09249685   -0.10062728
     atom    8 type  3   force =     0.11586566   -0.00751147    0.03001754
     atom    9 type  3   force =     0.00442722    0.13507724   -0.01255712
     atom   10 type  3   force =     0.00559472    0.03712651   -0.07349442
     atom   11 type  3   force =     0.00194360   -0.07684612   -0.10810998
     atom   12 type  3   force =    -7.01431318   -0.07829777    0.03467942
     atom   13 type  3   force =     7.00585909   -0.07942354    0.04284630
     atom   14 type  3   force =    -7.02674685    0.07469967   -0.06660165
     atom   15 type  3   force =     7.02277051    0.07717053   -0.06205177
     atom   16 type  3   force =    -6.96262707    0.06739515    0.05514518
     atom   17 type  3   force =     6.96326567    0.06758302    0.05456272
     atom   18 type  4   force =     0.07364248   -0.01333458   -0.04681437
     atom   19 type  4   force =     0.00113361    0.04344213    0.02065044
     atom   20 type  4   force =    -0.07363745   -0.01128768   -0.04808882
     atom   21 type  4   force =     8.52544787    0.02022330   -0.05342118
     atom   22 type  4   force =    -8.53167411    0.02277840   -0.05830524
     atom   23 type  5   force =    -0.00117210   -0.47588306    0.00241214
     The ionic contribution  to forces
     atom    1 type  1   force =     0.00004335   -6.05536261   -1.36969651
     atom    2 type  1   force =   164.17771379   -4.14143153  -23.82362560
     atom    3 type  1   force =  -164.17772102   -4.14143114  -23.82362367
     atom    4 type  2   force =     0.00000410   -1.37956089  -25.04336266
     atom    5 type  2   force =   -13.60798810   -0.87546711   16.62010918
     atom    6 type  2   force =   192.07004434   -3.38368411   27.08964145
     atom    7 type  2   force =  -192.07005217   -3.38368369   27.08963936
     atom    8 type  3   force =    13.60798758   -0.87547356   16.62011983
     atom    9 type  3   force =     0.00038480   -0.10087960   -1.89000286
     atom   10 type  3   force =     0.00000529    1.64657081   26.78445890
     atom   11 type  3   force =     0.00000410   -1.54671150   26.30669958
     atom   12 type  3   force =   191.50605912    0.98231427   -1.72667665
     atom   13 type  3   force =  -191.50610217    0.98231905   -1.72667664
     atom   14 type  3   force =   191.68174073   -0.93485713   -0.83519490
     atom   15 type  3   force =  -191.68176970   -0.93486173   -0.83519489
     atom   16 type  3   force =   192.26094873    3.81079954  -25.93067213
     atom   17 type  3   force =  -192.26095530    3.81079907  -25.93067054
     atom   18 type  4   force =    13.08242928    0.30828185  -16.79773061
     atom   19 type  4   force =     0.00000487    0.90363120  -23.37083068
     atom   20 type  4   force =   -13.08242976    0.30828779  -16.79772078
     atom   21 type  4   force =   163.91153616    3.72761024   24.74913800
     atom   22 type  4   force =  -163.91154223    3.72760980   24.74913654
     atom   23 type  5   force =    -0.00034580    7.54518099   -0.10726372
     The local contribution  to forces
     atom    1 type  1   force =     0.01339910    6.18907738    1.46702503
     atom    2 type  1   force =   -30.13290927    3.94422477   23.68436126
     atom    3 type  1   force =    30.13452074    3.94500009   23.68402787
     atom    4 type  2   force =    -0.00175337    1.54685964   25.40591980
     atom    5 type  2   force =    12.94713417    0.85593018  -16.56637445
     atom    6 type  2   force =   -34.59024576    3.21354570  -26.95243416
     atom    7 type  2   force =    34.58961406    3.21063061  -26.95183071
     atom    8 type  3   force =   -13.59450230    0.86709534  -16.60663739
     atom    9 type  3   force =     0.00054588   -3.23868267    1.95954900
     atom   10 type  3   force =     0.00136503   -1.72461312  -26.79222209
     atom   11 type  3   force =     0.00556053    1.69073679  -26.28299183
     atom   12 type  3   force =   -64.43047152   -0.97143054    1.71997252
     atom   13 type  3   force =    64.43365788   -0.97326881    1.71530904
     atom   14 type  3   force =   -64.60060539    0.91802225    0.92339356
     atom   15 type  3   force =    64.59988667    0.91776204    0.92439660
     atom   16 type  3   force =   -65.32658974   -3.80505229   25.82285848
     atom   17 type  3   force =    65.32757509   -3.80471325   25.82329682
     atom   18 type  4   force =   -13.08467847   -0.26617489   16.83532351
     atom   19 type  4   force =    -0.00173328   -0.96437688   23.35562181
     atom   20 type  4   force =    13.08521261   -0.26920475   16.84427884
     atom   21 type  4   force =   -53.60584364   -3.66467899  -24.67700881
     atom   22 type  4   force =    53.60507751   -3.66062316  -24.67387585
     atom   23 type  5   force =     0.00109091   -3.99830924    0.11058477
     The core correction contribution to forces
     atom    1 type  1   force =    -0.00084485    0.00095981   -0.00926871
     atom    2 type  1   force =    -9.63695690    0.00909043    0.00906667
     atom    3 type  1   force =     9.63710912    0.00904318    0.00921128
     atom    4 type  2   force =    -0.00009847   -0.00401860   -0.02477758
     atom    5 type  2   force =     0.04383177    0.00039098   -0.00496328
     atom    6 type  2   force =    -5.12314575    0.00723271   -0.00526166
     atom    7 type  2   force =     5.12310579    0.00711959   -0.00468016
     atom    8 type  3   force =    -0.01531012    0.00040740   -0.00127759
     atom    9 type  3   force =    -0.00037852    0.00512586    0.00068393
     atom   10 type  3   force =    -0.00050947   -0.00015040    0.01129282
     atom   11 type  3   force =    -0.00031317    0.00191156    0.01241098
     atom   12 type  3   force =    -1.08079645    0.00252663   -0.00133309
     atom   13 type  3   force =     1.08100871    0.00256363   -0.00166751
     atom   14 type  3   force =    -1.08023581   -0.00250584    0.00153660
     atom   15 type  3   force =     1.08033522   -0.00260159    0.00136407
     atom   16 type  3   force =    -1.08334134   -0.00268516   -0.00053626
     atom   17 type  3   force =     1.08331954   -0.00266688   -0.00051278
     atom   18 type  4   force =    -0.01115852    0.00048076    0.00299013
     atom   19 type  4   force =    -0.00004589   -0.00166245   -0.00595244
     atom   20 type  4   force =     0.01118559    0.00037424    0.00304199
     atom   21 type  4   force =    -1.38069160   -0.00142235    0.00156825
     atom   22 type  4   force =     1.38087362   -0.00166873    0.00204866
     atom   23 type  5   force =     0.00000000    0.00000000    0.00000000
     The Hubbard contrib.    to forces
     atom    1 type  1   force =     0.00000000    0.00000000    0.00000000
     atom    2 type  1   force =     0.00000000    0.00000000    0.00000000
     atom    3 type  1   force =     0.00000000    0.00000000    0.00000000
     atom    4 type  2   force =     0.00000000    0.00000000    0.00000000
     atom    5 type  2   force =     0.00000000    0.00000000    0.00000000
     atom    6 type  2   force =     0.00000000    0.00000000    0.00000000
     atom    7 type  2   force =     0.00000000    0.00000000    0.00000000
     atom    8 type  3   force =     0.00000000    0.00000000    0.00000000
     atom    9 type  3   force =     0.00000000    0.00000000    0.00000000
     atom   10 type  3   force =     0.00000000    0.00000000    0.00000000
     atom   11 type  3   force =     0.00000000    0.00000000    0.00000000
     atom   12 type  3   force =     0.00000000    0.00000000    0.00000000
     atom   13 type  3   force =     0.00000000    0.00000000    0.00000000
     atom   14 type  3   force =     0.00000000    0.00000000    0.00000000
     atom   15 type  3   force =     0.00000000    0.00000000    0.00000000
     atom   16 type  3   force =     0.00000000    0.00000000    0.00000000
     atom   17 type  3   force =     0.00000000    0.00000000    0.00000000
     atom   18 type  4   force =     0.00000000    0.00000000    0.00000000
     atom   19 type  4   force =     0.00000000    0.00000000    0.00000000
     atom   20 type  4   force =     0.00000000    0.00000000    0.00000000
     atom   21 type  4   force =     0.00000000    0.00000000    0.00000000
     atom   22 type  4   force =     0.00000000    0.00000000    0.00000000
     atom   23 type  5   force =     0.00000000    0.00000000    0.00000000
     The SCF correction term to forces
     atom    1 type  1   force =    -0.00000000   -0.00000000   -0.00000000
     atom    2 type  1   force =    -0.00000000    0.00000000    0.00000000
     atom    3 type  1   force =    -0.00000000    0.00000000    0.00000000
     atom    4 type  2   force =     0.00000000   -0.00000000    0.00000000
     atom    5 type  2   force =    -0.00000000    0.00000000   -0.00000000
     atom    6 type  2   force =     0.00000000   -0.00000000    0.00000000
     atom    7 type  2   force =    -0.00000000    0.00000000    0.00000000
     atom    8 type  3   force =    -0.00000000    0.00000000   -0.00000000
     atom    9 type  3   force =    -0.00000000    0.00000000   -0.00000000
     atom   10 type  3   force =    -0.00000000    0.00000000    0.00000000
     atom   11 type  3   force =    -0.00000000   -0.00000000    0.00000000
     atom   12 type  3   force =     0.00000000    0.00000000   -0.00000000
     atom   13 type  3   force =     0.00000000    0.00000000   -0.00000000
     atom   14 type  3   force =     0.00000000    0.00000000   -0.00000000
     atom   15 type  3   force =     0.00000000   -0.00000000   -0.00000000
     atom   16 type  3   force =     0.00000000   -0.00000000    0.00000000
     atom   17 type  3   force =    -0.00000000   -0.00000000    0.00000000
     atom   18 type  4   force =    -0.00000000   -0.00000000   -0.00000000
     atom   19 type  4   force =     0.00000000    0.00000000   -0.00000000
     atom   20 type  4   force =     0.00000000   -0.00000000   -0.00000000
     atom   21 type  4   force =     0.00000000    0.00000000    0.00000000
     atom   22 type  4   force =     0.00000000   -0.00000000    0.00000000
     atom   23 type  5   force =    -0.00008105    0.00442824   -0.00242561

     Total force =     3.075527     Total SCF correction =     0.005050

     Entering Dynamics:    iteration =     4
                           time      =   0.0020 pico-seconds


ATOMIC_POSITIONS (angstrom)
Hf            3.5399999140        0.2000000000        5.3399999140    0   0   0
Hf            0.2000000000        3.5399999140        2.0000000000    0   0   0
Hf            6.8799998280        3.5399999140        2.0000000000    0   0   0
Ta            3.5399999140        0.2000000000        2.0000000000    0   0   0
Ta            5.2099998710        1.8699999570        7.0099998710    0   0   0
Ta            0.2000000000        3.5399999140        8.6799998280    0   0   0
Ta            6.8799998280        3.5399999140        8.6799998280    0   0   0
Nb            1.8699999570        1.8699999570        7.0099998710    0   0   0
Nb            3.5399999140        3.5399999140        5.3399999140    0   0   0
Nb            3.5399999140        3.5399999140        8.6799998280    0   0   0
Nb            3.5399999140        0.2000000000        8.6799998280    0   0   0
Nb            0.2000000000        3.5399999140        5.3399999140    0   0   0
Nb            6.8799998280        3.5399999140        5.3399999140    0   0   0
Nb            0.2000000000        0.2000000000        5.3399999140    0   0   0
Nb            6.8799998280        0.2000000000        5.3399999140    0   0   0
Nb            0.2000000000        0.2000000000        2.0000000000    0   0   0
Nb            6.8799998280        0.2000000000        2.0000000000    0   0   0
Zr            1.8699999570        1.8699999570        3.6699999570    0   0   0
Zr            3.5399999140        3.5399999140        2.0000000000    0   0   0
Zr            5.2099998710        1.8699999570        3.6699999570    0   0   0
Zr            0.2000000000        0.2000000000        8.6799998280    0   0   0
Zr            6.8799998280        0.2000000000        8.6799998280    0   0   0
H             3.5399017108        4.1527337417        5.3409190169


     kinetic energy (Ekin) =           3.30245818 Ry
     temperature           =      347611.27094243 K 
     Ekin + Etot (const)   =       -2406.00373963 Ry

     Writing config-only to output data dir outdir/pwscf.save/
     NEW-OLD atomic charge density approx. for the potential

     Check: negative core charge=   -0.000002

     negative rho (up, down):  3.974E-01 3.974E-01
     Generating pointlists ...
     new r_m :   0.0342 (alat units)  0.4776 (a.u.) for type    3
     new r_m :   0.0342 (alat units)  0.4776 (a.u.) for type    5

     total cpu time spent up to now is      806.8 secs

     Self-consistent Calculation

     iteration #  1     ecut=   120.00 Ry     beta= 0.70
     Davidson diagonalization with overlap
     ethr =  1.00E-06,  avg # of iterations = 18.0

     negative rho (up, down):  3.967E-01 3.967E-01

     total cpu time spent up to now is      857.3 secs

     total energy              =   -2405.70356706 Ry
     estimated scf accuracy    <       0.70804746 Ry

     total magnetization       =    -0.00 Bohr mag/cell
     absolute magnetization    =     0.01 Bohr mag/cell

     iteration #  2     ecut=   120.00 Ry     beta= 0.70
     Davidson diagonalization with overlap
     ethr =  2.54E-04,  avg # of iterations =  3.0

     negative rho (up, down):  3.971E-01 3.971E-01

     total cpu time spent up to now is      882.3 secs

     total energy              =   -2405.77322853 Ry
     estimated scf accuracy    <       0.73939648 Ry

     total magnetization       =    -0.00 Bohr mag/cell
     absolute magnetization    =     0.01 Bohr mag/cell

     iteration #  3     ecut=   120.00 Ry     beta= 0.70
     Davidson diagonalization with overlap
     ethr =  2.54E-04,  avg # of iterations =  1.0

     negative rho (up, down):  3.971E-01 3.971E-01

     total cpu time spent up to now is      900.6 secs

     total energy              =   -2405.81357291 Ry
     estimated scf accuracy    <       0.02432325 Ry

     total magnetization       =    -0.00 Bohr mag/cell
     absolute magnetization    =     0.01 Bohr mag/cell

     iteration #  4     ecut=   120.00 Ry     beta= 0.70
     Davidson diagonalization with overlap
     ethr =  8.72E-06,  avg # of iterations =  5.0

     negative rho (up, down):  3.969E-01 3.969E-01

     total cpu time spent up to now is      923.6 secs

     total energy              =   -2405.81623849 Ry
     estimated scf accuracy    <       0.01527444 Ry

     total magnetization       =    -0.00 Bohr mag/cell
     absolute magnetization    =     0.01 Bohr mag/cell

     iteration #  5     ecut=   120.00 Ry     beta= 0.70
     Davidson diagonalization with overlap
