
     Program PWSCF v.7.2 starts on 15Jun2023 at 18:38:21 

     This program is part of the open-source Quantum ESPRESSO suite
     for quantum simulation of materials; please cite
         "P. Giannozzi et al., J. Phys.:Condens. Matter 21 395502 (2009);
         "P. Giannozzi et al., J. Phys.:Condens. Matter 29 465901 (2017);
         "P. Giannozzi et al., J. Chem. Phys. 152 154105 (2020);
          URL http://www.quantum-espresso.org", 
     in publications or presentations arising from this work. More details at
     http://www.quantum-espresso.org/quote

     Parallel version (MPI), running on    42 processors

     MPI processes distributed on     1 nodes
     173153 MiB available memory on the printing compute node when the environment starts

     Reading input from md_data/md_Hf5Nb2Ta10Zr5H_20steps_50eV_incident75_polar60.in
Warning: card &CELL ignored
Warning: card / ignored

     Current dimensions of program PWSCF are:
     Max number of different atomic species (ntypx) = 10
     Max number of k-points (npk) =  40000
     Max angular momentum in pseudopotentials (lmaxx) =  4

     File outdir/pwscf.md deleted, as requested

     gamma-point specific algorithms are used

     R & G space division:  proc/nbgrp/npool/nimage =      42
     Subspace diagonalization in iterative solution of the eigenvalue problem:
     one sub-group per band group will be used
     custom distributed-memory algorithm (size of sub-group:  2*  2 procs)


     Parallelization info
     --------------------
     sticks:   dense  smooth     PW     G-vecs:    dense   smooth      PW
     Min         262     262     63                23470    23470    2920
     Max         265     265     66                23484    23484    2942
     Sum       11057   11057   2753               986005   986005  123175

     Using Slab Decomposition



     bravais-lattice index     =            0
     lattice parameter (alat)  =      17.6500  a.u.
     unit-cell volume          =    5552.8853 (a.u.)^3
     number of atoms/cell      =           23
     number of atomic types    =            5
     number of electrons       =       277.00
     number of Kohn-Sham states=          167
     kinetic-energy cutoff     =     120.0000  Ry
     charge density cutoff     =     480.0000  Ry
     scf convergence threshold =      1.0E-03
     mixing beta               =       0.7000
     number of iterations used =            8  TF        mixing
     energy convergence thresh.=      0.0E+00
     force convergence thresh. =      0.0E+00
     Exchange-correlation=  SLA  PW   PBX  PBC
                           (   1   4   3   4   0   0   0)
     nstep                     =           20


     celldm(1)=  17.650041  celldm(2)=   0.000000  celldm(3)=   0.000000
     celldm(4)=   0.000000  celldm(5)=   0.000000  celldm(6)=   0.000000

     crystal axes: (cart. coord. in units of alat)
               a(1) = (   1.000000   0.000000   0.000000 )  
               a(2) = (   0.000000   0.929336   0.000000 )  
               a(3) = (   0.000000   0.000000   1.086698 )  

     reciprocal axes: (cart. coord. in units 2 pi/alat)
               b(1) = (  1.000000  0.000000  0.000000 )  
               b(2) = (  0.000000  1.076037  0.000000 )  
               b(3) = (  0.000000  0.000000  0.920219 )  


     PseudoPot. # 1 for Hf read from file:
     q-e/pseudo/hf_pbe_v1.uspp.F.UPF
     MD5 check sum: 8ee9378dfe14276e333edf04c5e4aa26
     Pseudo is Ultrasoft + core correction, Zval = 12.0
     Generated by new atomic code, or converted to UPF format
     Using radial grid of  921 points,  8 beta functions with: 
                l(1) =   0
                l(2) =   0
                l(3) =   0
                l(4) =   1
                l(5) =   1
                l(6) =   2
                l(7) =   2
                l(8) =   3
     Q(r) pseudized with  6 coefficients,  rinner =    1.200   1.200   1.200
                                                       1.200   1.200   1.200
                                                       1.200

     PseudoPot. # 2 for Nb read from file:
     q-e/pseudo/nb_pbe_v1.uspp.F.UPF
     MD5 check sum: 573aab8a2fa660278ed4a62cd769473f
     Pseudo is Ultrasoft + core correction, Zval = 13.0
     Generated by new atomic code, or converted to UPF format
     Using radial grid of  887 points,  6 beta functions with: 
                l(1) =   0
                l(2) =   0
                l(3) =   1
                l(4) =   1
                l(5) =   2
                l(6) =   2
     Q(r) pseudized with  6 coefficients,  rinner =    1.000   1.000   1.000
                                                       1.000   1.000

     PseudoPot. # 3 for Ta read from file:
     q-e/pseudo/ta_pbe_v1.uspp.F.UPF
     MD5 check sum: f8bbe9446314a3b8ea5d9f3e3836c939
     Pseudo is Ultrasoft + core correction, Zval = 13.0
     Generated by new atomic code, or converted to UPF format
     Using radial grid of  921 points,  7 beta functions with: 
                l(1) =   0
                l(2) =   0
                l(3) =   1
                l(4) =   1
                l(5) =   2
                l(6) =   2
                l(7) =   3
     Q(r) pseudized with  6 coefficients,  rinner =    1.300   1.300   1.300
                                                       1.300   1.300   1.300
                                                       1.300

     PseudoPot. # 4 for Zr read from file:
     q-e/pseudo/zr_pbe_v1.uspp.F.UPF
     MD5 check sum: 5db81b1e868ab7776c4564c113de050b
     Pseudo is Ultrasoft + core correction, Zval = 12.0
     Generated by new atomic code, or converted to UPF format
     Using radial grid of  887 points,  6 beta functions with: 
                l(1) =   0
                l(2) =   0
                l(3) =   1
                l(4) =   1
                l(5) =   2
                l(6) =   2
     Q(r) pseudized with  6 coefficients,  rinner =    1.200   1.200   1.200
                                                       1.200   1.200

     PseudoPot. # 5 for H  read from file:
     q-e/pseudo/h_pbe_v1.4.uspp.F.UPF
     MD5 check sum: 761ae9a214b05c3daf00ab9f6b793d6f
     Pseudo is Ultrasoft, Zval =  1.0
     Generated by new atomic code, or converted to UPF format
     Using radial grid of  615 points,  2 beta functions with: 
                l(1) =   0
                l(2) =   0
     Q(r) pseudized with  8 coefficients,  rinner =    0.700

     atomic species   valence    mass     pseudopotential
        Hf            12.00   178.49000     Hf( 1.00)
        Nb            13.00    92.90637     Nb( 1.00)
        Ta            13.00   180.94788     Ta( 1.00)
        Zr            12.00    91.22400     Zr( 1.00)
        H              1.00     2.01400     H ( 1.00)

     Starting magnetic structure 
     atomic species   magnetization
        Hf           0.000
        Nb           0.000
        Ta           0.000
        Zr           0.000
        H            0.000

     No symmetry found



   Cartesian axes

     site n.     atom                  positions (alat units)
         1           Hf  tau(   1) = (   0.2858672   0.3026898   0.7070626  )
         2           Hf  tau(   2) = (   0.1341532   0.1377178   0.5415917  )
         3           Hf  tau(   3) = (   0.1344204   0.7911996   0.5447610  )
         4           Hf  tau(   4) = (   0.4375813   0.1377178   0.5415917  )
         5           Hf  tau(   5) = (   0.4373140   0.7911996   0.5447610  )
         6           Nb  tau(   6) = (   0.2858672   0.2994572   0.3764008  )
         7           Nb  tau(   7) = (   0.2858672   0.6291626   0.7103852  )
         8           Ta  tau(   8) = (   0.1294832   0.4647675   0.5429471  )
         9           Ta  tau(   9) = (   0.4422513   0.4647675   0.5429471  )
        10           Ta  tau(  10) = (   0.1399628   0.1406984   0.2204260  )
        11           Ta  tau(  11) = (   0.1394848   0.1400847   0.8666573  )
        12           Ta  tau(  12) = (   0.1396156   0.7897030   0.2190832  )
        13           Ta  tau(  13) = (   0.1400119   0.7885528   0.8657390  )
        14           Ta  tau(  14) = (   0.4317717   0.1406984   0.2204260  )
        15           Ta  tau(  15) = (   0.4322496   0.1400847   0.8666573  )
        16           Ta  tau(  16) = (   0.4321189   0.7897030   0.2190832  )
        17           Ta  tau(  17) = (   0.4317226   0.7885528   0.8657390  )
        18           Zr  tau(  18) = (   0.2858672   0.6280820   0.3776642  )
        19           Zr  tau(  19) = (   0.1331729   0.4627493   0.2141328  )
        20           Zr  tau(  20) = (   0.1328036   0.4661802   0.8725649  )
        21           Zr  tau(  21) = (   0.4385616   0.4627493   0.2141328  )
        22           Zr  tau(  22) = (   0.4389309   0.4661802   0.8725649  )
        23           H   tau(  23) = (   0.4976729   0.5680863   0.7221855  )

     number of k points=     1  Gaussian smearing, width (Ry)=  0.0220
                       cart. coord. in units 2pi/alat
        k(    1) = (   0.0000000   0.0000000   0.0000000), wk =   1.0000000

     Dense  grid:   493003 G-vectors     FFT dimensions: ( 125, 120, 135)

     Estimated max dynamical RAM per process >     133.03 MB

     Estimated total dynamical RAM >       5.46 GB

     Check: negative core charge=   -0.000002
     Generating pointlists ...
     new r_m :   0.1117 (alat units)  1.9717 (a.u.) for type    1
     new r_m :   0.0911 (alat units)  1.6072 (a.u.) for type    2
     new r_m :   0.0883 (alat units)  1.5594 (a.u.) for type    3
     new r_m :   0.0788 (alat units)  1.3900 (a.u.) for type    4
     new r_m :   0.0788 (alat units)  1.3900 (a.u.) for type    5

     Initial potential from superposition of free atoms

     starting charge     266.9726, renormalised to     277.0000

     negative rho (up, down):  9.216E-01 9.216E-01
     Starting wfcs are  287 randomized atomic wfcs

     total cpu time spent up to now is       12.3 secs

     Self-consistent Calculation

     iteration #  1     ecut=   120.00 Ry     beta= 0.70
     Davidson diagonalization with overlap
     ethr =  1.00E-02,  avg # of iterations =  2.0

     negative rho (up, down):  9.977E-01 9.973E-01

     total cpu time spent up to now is       31.8 secs

     total energy              =   -2930.48586107 Ry
     estimated scf accuracy    <     276.77796815 Ry

     total magnetization       =    -0.00 Bohr mag/cell
     absolute magnetization    =     0.09 Bohr mag/cell

     iteration #  2     ecut=   120.00 Ry     beta= 0.70
     Davidson diagonalization with overlap
     ethr =  1.00E-02,  avg # of iterations =  5.0

     negative rho (up, down):  9.660E-01 9.671E-01

     total cpu time spent up to now is       69.4 secs

     total energy              =   -2942.19735374 Ry
     estimated scf accuracy    <      29.77674899 Ry

     total magnetization       =    -0.05 Bohr mag/cell
     absolute magnetization    =     0.28 Bohr mag/cell

     iteration #  3     ecut=   120.00 Ry     beta= 0.70
     Davidson diagonalization with overlap
     ethr =  1.00E-02,  avg # of iterations =  2.0

     negative rho (up, down):  9.958E-01 1.005E+00

     total cpu time spent up to now is      108.1 secs

     total energy              =   -2942.67579649 Ry
     estimated scf accuracy    <      12.62999693 Ry

     total magnetization       =    -0.02 Bohr mag/cell
     absolute magnetization    =     0.42 Bohr mag/cell

     iteration #  4     ecut=   120.00 Ry     beta= 0.70
     Davidson diagonalization with overlap
     ethr =  4.56E-03,  avg # of iterations =  4.5

     negative rho (up, down):  1.000E+00 1.009E+00

     total cpu time spent up to now is      131.4 secs

     total energy              =   -2942.93573495 Ry
     estimated scf accuracy    <       2.92957913 Ry

     total magnetization       =    -0.13 Bohr mag/cell
     absolute magnetization    =     0.44 Bohr mag/cell

     iteration #  5     ecut=   120.00 Ry     beta= 0.70
     Davidson diagonalization with overlap
     ethr =  1.06E-03,  avg # of iterations =  7.5

     negative rho (up, down):  9.779E-01 9.824E-01

     total cpu time spent up to now is      154.8 secs

     total energy              =   -2943.08854239 Ry
     estimated scf accuracy    <       1.42339660 Ry

     total magnetization       =    -0.07 Bohr mag/cell
     absolute magnetization    =     0.23 Bohr mag/cell

     iteration #  6     ecut=   120.00 Ry     beta= 0.70
     Davidson diagonalization with overlap
     ethr =  5.14E-04,  avg # of iterations =  2.0

     negative rho (up, down):  9.672E-01 9.702E-01

     total cpu time spent up to now is      171.6 secs

     total energy              =   -2943.11281834 Ry
     estimated scf accuracy    <       1.03529926 Ry

     total magnetization       =    -0.05 Bohr mag/cell
     absolute magnetization    =     0.17 Bohr mag/cell

     iteration #  7     ecut=   120.00 Ry     beta= 0.70
     Davidson diagonalization with overlap
     ethr =  3.74E-04,  avg # of iterations =  2.0

     negative rho (up, down):  9.396E-01 9.409E-01

     total cpu time spent up to now is      188.2 secs

     total energy              =   -2943.06866695 Ry
     estimated scf accuracy    <       0.33773236 Ry

     total magnetization       =    -0.05 Bohr mag/cell
     absolute magnetization    =     0.15 Bohr mag/cell

     iteration #  8     ecut=   120.00 Ry     beta= 0.70
     Davidson diagonalization with overlap
     ethr =  1.22E-04,  avg # of iterations =  3.0

     negative rho (up, down):  9.184E-01 9.185E-01

     total cpu time spent up to now is      206.2 secs

     total energy              =   -2943.06529430 Ry
     estimated scf accuracy    <       0.22539210 Ry

     total magnetization       =    -0.05 Bohr mag/cell
     absolute magnetization    =     0.11 Bohr mag/cell

     iteration #  9     ecut=   120.00 Ry     beta= 0.70
     Davidson diagonalization with overlap
     ethr =  8.14E-05,  avg # of iterations =  4.5

     negative rho (up, down):  9.081E-01 9.081E-01

     total cpu time spent up to now is      223.6 secs

     total energy              =   -2943.06609898 Ry
     estimated scf accuracy    <       0.06060793 Ry

     total magnetization       =    -0.04 Bohr mag/cell
     absolute magnetization    =     0.08 Bohr mag/cell

     iteration # 10     ecut=   120.00 Ry     beta= 0.70
     Davidson diagonalization with overlap
     ethr =  2.19E-05,  avg # of iterations = 12.5

     negative rho (up, down):  9.082E-01 9.081E-01

     total cpu time spent up to now is      246.6 secs

     total energy              =   -2943.06879362 Ry
     estimated scf accuracy    <       0.04725917 Ry

     total magnetization       =    -0.03 Bohr mag/cell
     absolute magnetization    =     0.06 Bohr mag/cell

     iteration # 11     ecut=   120.00 Ry     beta= 0.70
     Davidson diagonalization with overlap
     ethr =  1.71E-05,  avg # of iterations =  2.0

     negative rho (up, down):  9.090E-01 9.090E-01

     total cpu time spent up to now is      263.3 secs

     total energy              =   -2943.07285363 Ry
     estimated scf accuracy    <       0.00896467 Ry

     total magnetization       =    -0.03 Bohr mag/cell
     absolute magnetization    =     0.05 Bohr mag/cell

     iteration # 12     ecut=   120.00 Ry     beta= 0.70
     Davidson diagonalization with overlap
     ethr =  3.24E-06,  avg # of iterations =  8.5

     negative rho (up, down):  9.091E-01 9.091E-01

     total cpu time spent up to now is      288.1 secs

     total energy              =   -2943.07560578 Ry
     estimated scf accuracy    <       0.00215327 Ry

     total magnetization       =    -0.02 Bohr mag/cell
     absolute magnetization    =     0.04 Bohr mag/cell

     iteration # 13     ecut=   120.00 Ry     beta= 0.70
     Davidson diagonalization with overlap
     ethr =  7.77E-07,  avg # of iterations =  4.0

     negative rho (up, down):  9.089E-01 9.089E-01

     Magnetic moment per site  (integrated on atomic sphere of radius R)
     atom   1 (R=0.112)  charge=  9.4620    0.0000
     atom   2 (R=0.112)  charge=  9.0571   -0.0002
     atom   3 (R=0.112)  charge=  9.0561   -0.0002
     atom   4 (R=0.112)  charge=  9.0578    0.0001
     atom   5 (R=0.112)  charge=  9.0688   -0.0001
     atom   6 (R=0.091)  charge=  8.6978    0.0000
     atom   7 (R=0.091)  charge=  8.7033   -0.0001
     atom   8 (R=0.088)  charge=  8.1269    0.0001
     atom   9 (R=0.088)  charge=  8.1343   -0.0001
     atom  10 (R=0.088)  charge=  8.1071   -0.0004
     atom  11 (R=0.088)  charge=  8.1055   -0.0006
     atom  12 (R=0.088)  charge=  8.1066   -0.0006
     atom  13 (R=0.088)  charge=  8.1070    0.0006
     atom  14 (R=0.088)  charge=  8.1067   -0.0002
     atom  15 (R=0.088)  charge=  8.1026   -0.0002
     atom  16 (R=0.088)  charge=  8.1064   -0.0008
     atom  17 (R=0.088)  charge=  8.1123   -0.0000
     atom  18 (R=0.079)  charge=  6.3497    0.0001
     atom  19 (R=0.079)  charge=  6.2514   -0.0007
     atom  20 (R=0.079)  charge=  6.2491   -0.0001
     atom  21 (R=0.079)  charge=  6.2505   -0.0007
     atom  22 (R=0.079)  charge=  6.2630   -0.0000
     atom  23 (R=0.079)  charge=  1.0717    0.0000

     total cpu time spent up to now is      326.8 secs

     End of self-consistent calculation

 ------ SPIN UP ------------


          k = 0.0000 0.0000 0.0000 ( 61588 PWs)   bands (ev):

   -60.7911 -60.7553 -60.7458 -60.7109 -60.6776 -60.6710 -60.6305 -60.6244
   -60.5686 -60.5466 -54.3961 -54.3421 -54.2509 -54.2053 -52.6835 -46.3821
   -46.2398 -41.5917 -41.5845 -41.4895 -41.4178 -39.7843 -27.7796 -27.7507
   -27.6876 -27.6657 -27.6016 -27.5690 -27.4605 -27.4374 -27.4232 -27.3527
   -27.3082 -27.2826 -27.2513 -27.2373 -27.2082 -27.1977 -27.1668 -27.1580
   -27.1407 -27.1227 -27.1068 -27.0749 -26.9635 -26.9381 -26.9312 -26.9085
   -26.8735 -26.8538 -26.8283 -26.8245 -24.1742 -23.9684 -23.6683 -23.5759
   -23.3102 -23.2293 -23.1766 -23.0725 -22.9321 -22.8759 -22.8430 -22.6236
   -22.5755 -22.4649 -22.4494 -22.4219 -22.2671 -22.2418 -21.7446 -21.6793
   -21.6122 -20.1619 -19.8638 -19.8007 -19.7859 -19.5959 -19.5798 -19.5612
   -19.5313 -19.5295 -19.4311 -19.3318 -19.2593 -18.1289 -17.9285 -17.7955
     0.4745   1.8319   2.9634   3.1322   3.2553   3.3475   3.4827   3.5928
     3.6824   3.7437   3.9184   4.0179   4.1907   4.5013   4.5501   4.7210
     4.7611   4.9403   5.0515   5.1216   5.2063   5.2791   5.3052   5.3692
     5.4394   5.5367   5.5774   5.7030   5.7401   5.7620   5.7925   5.8324
     5.9673   6.0623   6.1619   6.2000   6.2809   6.3559   6.3647   6.3973
     6.4625   6.5841   6.6793   6.7167   6.9243   6.9966   7.0428   7.1252
     7.1307   7.1680   7.2775   7.3142   7.4138   7.5133   7.5526   7.5934
     7.6530   7.8270   7.9006   8.0417   8.0579   8.1081   8.1347   8.1732
     8.2509   8.2654   8.3348   8.3734   8.4956   8.5433   8.6007   8.7343
     8.8409   8.9389   8.9858   9.0738   9.1542   9.2599   9.2848

 ------ SPIN DOWN ----------


          k = 0.0000 0.0000 0.0000 ( 61588 PWs)   bands (ev):

   -60.7908 -60.7558 -60.7455 -60.7115 -60.6782 -60.6712 -60.6311 -60.6248
   -60.5687 -60.5467 -54.3961 -54.3422 -54.2509 -54.2053 -52.6834 -46.3822
   -46.2398 -41.5933 -41.5846 -41.4911 -41.4178 -39.7842 -27.7795 -27.7514
   -27.6875 -27.6664 -27.6013 -27.5696 -27.4606 -27.4382 -27.4236 -27.3526
   -27.3087 -27.2823 -27.2519 -27.2376 -27.2086 -27.1980 -27.1669 -27.1582
   -27.1413 -27.1230 -27.1068 -27.0749 -26.9632 -26.9383 -26.9319 -26.9093
   -26.8738 -26.8546 -26.8291 -26.8247 -24.1742 -23.9684 -23.6684 -23.5758
   -23.3102 -23.2295 -23.1767 -23.0725 -22.9321 -22.8759 -22.8430 -22.6236
   -22.5756 -22.4650 -22.4496 -22.4220 -22.2672 -22.2419 -21.7446 -21.6793
   -21.6123 -20.1635 -19.8637 -19.8025 -19.7875 -19.5963 -19.5797 -19.5626
   -19.5328 -19.5299 -19.4313 -19.3338 -19.2593 -18.1287 -17.9285 -17.7957
     0.4745   1.8315   2.9627   3.1320   3.2550   3.3472   3.4821   3.5926
     3.6823   3.7433   3.9176   4.0172   4.1903   4.5008   4.5499   4.7205
     4.7605   4.9398   5.0507   5.1213   5.2059   5.2789   5.3047   5.3686
     5.4388   5.5363   5.5770   5.7025   5.7400   5.7610   5.7920   5.8318
     5.9671   6.0618   6.1613   6.1995   6.2806   6.3555   6.3640   6.3965
     6.4617   6.5838   6.6788   6.7161   6.9234   6.9957   7.0413   7.1229
     7.1294   7.1669   7.2756   7.3138   7.4115   7.5108   7.5508   7.5926
     7.6517   7.8266   7.9000   8.0408   8.0571   8.1072   8.1340   8.1721
     8.2489   8.2647   8.3337   8.3725   8.4946   8.5424   8.5998   8.7337
     8.8401   8.9371   8.9849   9.0730   9.1535   9.2603   9.2835

     the Fermi energy is     7.2787 ev

!    total energy              =   -2943.07684084 Ry
     estimated scf accuracy    <       0.00044198 Ry
     smearing contrib. (-TS)   =      -0.09980191 Ry
     internal energy E=F+TS    =   -2942.97703893 Ry

     total magnetization       =    -0.02 Bohr mag/cell
     absolute magnetization    =     0.03 Bohr mag/cell

     convergence has been achieved in  13 iterations

     negative rho (up, down):  9.089E-01 9.089E-01

     Forces acting on atoms (cartesian axes, Ry/au):

     atom    1 type  1   force =    -0.00177813   -0.03183500   -0.00161029
     atom    2 type  1   force =    -0.11594628   -0.01365274   -0.00219813
     atom    3 type  1   force =    -0.10520521    0.01289805    0.00171363
     atom    4 type  1   force =     0.11656127   -0.01291196   -0.00726899
     atom    5 type  1   force =     0.10676189    0.01921002   -0.00744902
     atom    6 type  2   force =    -0.00300682   -0.01561975    0.00935505
     atom    7 type  2   force =    -0.01604145    0.00864091   -0.01271494
     atom    8 type  3   force =    -0.10488557    0.00517862   -0.00634624
     atom    9 type  3   force =     0.10568380   -0.01422232   -0.00850969
     atom   10 type  3   force =    -0.02229559   -0.03186220   -0.05824882
     atom   11 type  3   force =    -0.01948870   -0.03663762    0.05410541
     atom   12 type  3   force =    -0.02106049    0.03658544   -0.05466143
     atom   13 type  3   force =    -0.00446644    0.03293566    0.06413598
     atom   14 type  3   force =     0.02166169   -0.03115741   -0.05701045
     atom   15 type  3   force =     0.02430246   -0.03987035    0.05859112
     atom   16 type  3   force =     0.01815166    0.03700499   -0.05205872
     atom   17 type  3   force =     0.00575337    0.04204710    0.06726341
     atom   18 type  4   force =     0.00186260    0.02585062   -0.00642242
     atom   19 type  4   force =    -0.13050440   -0.00546520   -0.11666356
     atom   20 type  4   force =    -0.12811762    0.00929637    0.11813375
     atom   21 type  4   force =     0.13129107   -0.00684474   -0.11478000
     atom   22 type  4   force =     0.10256711   -0.04690854    0.19117529
     atom   23 type  5   force =     0.03819977    0.05734004   -0.05853093
     The non-local contrib.  to forces
     atom    1 type  1   force =     0.00408751   -0.01410256    0.02594906
     atom    2 type  1   force =    -0.24500925   -0.16469161    0.01484572
     atom    3 type  1   force =    -0.23475357    0.15637507   -0.01965694
     atom    4 type  1   force =     0.24472603   -0.15875633    0.02161591
     atom    5 type  1   force =     0.26758289    0.11609612    0.01876230
     atom    6 type  2   force =     0.00739505   -0.04408296   -0.05976730
     atom    7 type  2   force =     0.00338375    0.09431838    0.04944298
     atom    8 type  3   force =    -0.25675153    0.00879076    0.00210771
     atom    9 type  3   force =     0.25750796    0.03762055    0.04017710
     atom   10 type  3   force =    -0.20881782    0.00777134   -0.20246440
     atom   11 type  3   force =    -0.21530242    0.00295890    0.19302145
     atom   12 type  3   force =    -0.20672675   -0.02248551   -0.17381631
     atom   13 type  3   force =    -0.20000049   -0.00601623    0.20014649
     atom   14 type  3   force =     0.21329690    0.00491249   -0.20720951
     atom   15 type  3   force =     0.22410859    0.01005968    0.18397706
     atom   16 type  3   force =     0.20290690   -0.02226344   -0.18025450
     atom   17 type  3   force =     0.23628701   -0.04630324    0.14492680
     atom   18 type  4   force =     0.00190564    0.05553410   -0.05991400
     atom   19 type  4   force =     0.05799517    0.01132863    0.07533394
     atom   20 type  4   force =     0.04903123   -0.01623989   -0.06947113
     atom   21 type  4   force =    -0.06269160    0.02439565    0.07358064
     atom   22 type  4   force =    -0.03962238   -0.03098812   -0.05141350
     atom   23 type  5   force =    -0.03442417   -0.02299772    0.00764909
     The ionic contribution  to forces
     atom    1 type  1   force =    -0.36622675   -4.97216707   13.92139096
     atom    2 type  1   force =   -39.74098463   -6.13692441    0.69683088
     atom    3 type  1   force =   -39.79630789    6.22303605   -0.84783074
     atom    4 type  1   force =    39.60505891   -6.18510108    0.61847605
     atom    5 type  1   force =    39.45285071    6.69845549   -1.24031728
     atom    6 type  2   force =    -0.11936554   -3.63653627  -14.02724328
     atom    7 type  2   force =    -1.56138839    4.00650558   13.78471495
     atom    8 type  3   force =   -52.32806066   -0.02226407   -0.25437613
     atom    9 type  3   force =    51.61896029   -0.76205049   -1.54586134
     atom   10 type  3   force =   -36.08106162   -2.09066133  -23.03914949
     atom   11 type  3   force =   -35.21508262   -0.86405454   22.10121739
     atom   12 type  3   force =   -35.28017439    0.82699989  -22.10046831
     atom   13 type  3   force =   -36.22458272    2.31914692   23.13292453
     atom   14 type  3   force =    36.01475515   -2.09884796  -23.05328401
     atom   15 type  3   force =    35.04665039   -0.92820800   22.17727089
     atom   16 type  3   force =    35.18918460    0.86435325  -22.13080042
     atom   17 type  3   force =    35.75172276    2.98217200   23.57824686
     atom   18 type  4   force =    -0.19310453    4.38597503  -14.11033219
     atom   19 type  4   force =   -35.93797704    0.93026294  -25.49968993
     atom   20 type  4   force =   -36.13046679   -1.05010310   25.61458746
     atom   21 type  4   force =    35.84367548    0.90526602  -25.53677185
     atom   22 type  4   force =    35.22671915   -2.04043194   27.08310347
     atom   23 type  5   force =     5.22520613    0.64517711    0.67736153
     The local contribution  to forces
     atom    1 type  1   force =     0.36101798    4.95108819  -13.95379919
     atom    2 type  1   force =    39.89058635    6.28584778   -0.71344958
     atom    3 type  1   force =    39.94554590   -6.36450938    0.87373260
     atom    4 type  1   force =   -39.75389105    6.32815512   -0.64939964
     atom    5 type  1   force =   -39.63594728   -6.79023203    1.21407269
     atom    6 type  2   force =     0.11196820    3.66334581   14.09163786
     atom    7 type  2   force =     1.54210800   -4.08222244  -13.84869043
     atom    8 type  3   force =    52.51067991    0.01774211    0.24277380
     atom    9 type  3   force =   -51.79743419    0.71034319    1.49385698
     atom   10 type  3   force =    36.29187146    2.04833747   23.20223763
     atom   11 type  3   force =    35.43654256    0.81003076  -22.26191646
     atom   12 type  3   force =    35.48820995   -0.75871489   22.23783831
     atom   13 type  3   force =    36.44436390   -2.26848518  -23.28957083
     atom   14 type  3   force =   -36.22814372    2.05842790   23.22293916
     atom   15 type  3   force =   -35.27499039    0.86615337  -22.32453734
     atom   16 type  3   force =   -35.39199831   -0.79711460   22.27892387
     atom   17 type  3   force =   -36.00885016   -2.88292061  -23.67261785
     atom   18 type  4   force =     0.19646935   -4.41737364   14.16345407
     atom   19 type  4   force =    35.75799782   -0.95135018   25.32292457
     atom   20 type  4   force =    35.95901162    1.07614862  -25.43974505
     atom   21 type  4   force =   -35.65658236   -0.93906455   25.36440612
     atom   22 type  4   force =   -35.08792113    2.02493161  -26.85387748
     atom   23 type  5   force =    -5.15233755   -0.56486234   -0.74403540
     The core correction contribution to forces
     atom    1 type  1   force =     0.00015052    0.00126405   -0.00060239
     atom    2 type  1   force =    -0.01169869   -0.00201540    0.00025929
     atom    3 type  1   force =    -0.01173210    0.00228602   -0.00096289
     atom    4 type  1   force =     0.01249585   -0.00118710    0.00127970
     atom    5 type  1   force =     0.01539207   -0.00152901    0.00136157
     atom    6 type  2   force =    -0.00052042    0.00204330    0.00242163
     atom    7 type  2   force =     0.00083615   -0.00491669   -0.00194065
     atom    8 type  3   force =    -0.03137243    0.00102296   -0.00009680
     atom    9 type  3   force =     0.02897881    0.00017184    0.00025402
     atom   10 type  3   force =    -0.02216619    0.00932935   -0.01592730
     atom   11 type  3   force =    -0.02269549    0.00919418    0.01713638
     atom   12 type  3   force =    -0.02128046   -0.00921677   -0.01520721
     atom   13 type  3   force =    -0.02079546   -0.00952872    0.01576439
     atom   14 type  3   force =     0.02134813    0.00960289   -0.01580636
     atom   15 type  3   force =     0.02484397    0.00920795    0.01764667
     atom   16 type  3   force =     0.02066873   -0.00868237   -0.01626477
     atom   17 type  3   force =     0.02284826   -0.01084772    0.01272203
     atom   18 type  4   force =     0.00000473   -0.00295611    0.00290382
     atom   19 type  4   force =    -0.00956783   -0.00010359   -0.00971652
     atom   20 type  4   force =    -0.00906549    0.00061243    0.00935141
     atom   21 type  4   force =     0.00977251   -0.00076582   -0.00967375
     atom   22 type  4   force =     0.00768964    0.00036481    0.00979286
     atom   23 type  5   force =     0.00000000    0.00000000    0.00000000
     The Hubbard contrib.    to forces
     atom    1 type  1   force =     0.00000000    0.00000000    0.00000000
     atom    2 type  1   force =     0.00000000    0.00000000    0.00000000
     atom    3 type  1   force =     0.00000000    0.00000000    0.00000000
     atom    4 type  1   force =     0.00000000    0.00000000    0.00000000
     atom    5 type  1   force =     0.00000000    0.00000000    0.00000000
     atom    6 type  2   force =     0.00000000    0.00000000    0.00000000
     atom    7 type  2   force =     0.00000000    0.00000000    0.00000000
     atom    8 type  3   force =     0.00000000    0.00000000    0.00000000
     atom    9 type  3   force =     0.00000000    0.00000000    0.00000000
     atom   10 type  3   force =     0.00000000    0.00000000    0.00000000
     atom   11 type  3   force =     0.00000000    0.00000000    0.00000000
     atom   12 type  3   force =     0.00000000    0.00000000    0.00000000
     atom   13 type  3   force =     0.00000000    0.00000000    0.00000000
     atom   14 type  3   force =     0.00000000    0.00000000    0.00000000
     atom   15 type  3   force =     0.00000000    0.00000000    0.00000000
     atom   16 type  3   force =     0.00000000    0.00000000    0.00000000
     atom   17 type  3   force =     0.00000000    0.00000000    0.00000000
     atom   18 type  4   force =     0.00000000    0.00000000    0.00000000
     atom   19 type  4   force =     0.00000000    0.00000000    0.00000000
     atom   20 type  4   force =     0.00000000    0.00000000    0.00000000
     atom   21 type  4   force =     0.00000000    0.00000000    0.00000000
     atom   22 type  4   force =     0.00000000    0.00000000    0.00000000
     atom   23 type  5   force =     0.00000000    0.00000000    0.00000000
     The SCF correction term to forces
     atom    1 type  1   force =    -0.00066213    0.00201841    0.00536673
     atom    2 type  1   force =    -0.00869481    0.00406692   -0.00076899
     atom    3 type  1   force =    -0.00781230   -0.00435369   -0.00365295
     atom    4 type  1   force =     0.00831678    0.00391345    0.00067442
     atom    5 type  1   force =     0.00702875   -0.00364453   -0.00141285
     atom    6 type  2   force =    -0.00233886   -0.00045361    0.00222158
     atom    7 type  2   force =    -0.00083571   -0.00510790    0.00367365
     atom    8 type  3   force =     0.00076440   -0.00017712    0.00316063
     atom    9 type  3   force =    -0.00218382   -0.00037140    0.00297900
     atom   10 type  3   force =    -0.00197617   -0.00670301   -0.00302981
     atom   11 type  3   force =    -0.00280548    0.00516910    0.00456209
     atom   12 type  3   force =    -0.00094359   -0.00006127   -0.00309247
     atom   13 type  3   force =    -0.00330642   -0.00224511    0.00478685
     atom   14 type  3   force =     0.00055048   -0.00531671   -0.00373428
     atom   15 type  3   force =     0.00383515    0.00285266    0.00414929
     atom   16 type  3   force =    -0.00246500    0.00064817   -0.00374745
     atom   17 type  3   force =     0.00389075   -0.00011732    0.00390101
     atom   18 type  4   force =    -0.00326735    0.00460727   -0.00261868
     atom   19 type  4   force =     0.00119274    0.00433302   -0.00560018
     atom   20 type  4   force =     0.00351706   -0.00118567    0.00332651
     atom   21 type  4   force =    -0.00273771    0.00325998   -0.00640571
     atom   22 type  4   force =    -0.00415293   -0.00084888    0.00348538
     atom   23 type  5   force =    -0.00009940   -0.00004100    0.00040930

     Total force =     0.514964     Total SCF correction =     0.030743


     Computing stress (Cartesian axis) and pressure


     negative rho (up, down):  9.089E-01 9.089E-01
          total   stress  (Ry/bohr**3)                   (kbar)     P=       86.60
   0.00063355   0.00000738  -0.00000504           93.20        1.09       -0.74
   0.00000738   0.00068576  -0.00002572            1.09      100.88       -3.78
  -0.00000504  -0.00002572   0.00044675           -0.74       -3.78       65.72


     Molecular Dynamics Calculation

     Starting temperature  =   300.00 K

     temperature is set once at start

     mass Hf               =   178.49
     mass Nb               =    92.91
     mass Ta               =   180.95
     mass Zr               =    91.22
     mass H                =     2.01
     Time step             =     4.20 a.u.,  0.2032 femto-seconds

     Entering Dynamics:    iteration =     1
                           time      =   0.0002 pico-seconds


ATOMIC_POSITIONS (angstrom)
Hf            2.6700229166        2.8271650467        6.6040385289
Hf            1.2530103644        1.2863267206        5.0585405195
Hf            1.2555068909        7.3898475957        5.0881421730
Hf            4.0870355885        1.2863267418        5.0585403740
Hf            4.0845390890        7.3898477768        5.0881419101
Nb            2.6700228019        2.7969726755        3.5156580888
Nb            2.6700220835        5.8764220835        6.6350715988
Ta            1.2093930984        4.3409709290        5.0712000092
Ta            4.1306528595        4.3409703800        5.0711999479
Ta            1.3072750638        1.3141646186        2.0588518181
Ta            1.3028107733        1.3084330300        8.0946550900
Ta            1.3040320367        7.3758700904        2.0463099893
Ta            1.3077336826        7.3651268114        8.0860783923
Ta            4.0327708536        1.3141646385        2.0588518532
Ta            4.0372352982        1.3084329386        8.0946552170
Ta            4.0360138162        7.3758701022        2.0463100630
Ta            4.0323122891        7.3651270692        8.0860784808
Zr            2.6700230722        5.8663302254        3.5274579263
Zr            1.2438503038        4.3221205886        2.0000678076
Zr            1.2404012315        4.3541667372        8.1498365371
Zr            4.0961956756        4.3221205112        2.0000679133
Zr            4.0996432695        4.3541635822        8.1498406373
H             4.6101573243        5.2347930547        6.6216089259


     kinetic energy (Ekin) =           4.04952100 Ry
     temperature           =       19374.81201685 K 
     Ekin + Etot (const)   =       -2939.02731984 Ry
     Ions kinetic stress =           71.52 (kbar)
                                     14.38          26.82          46.46
                                     26.82          50.05          86.68
                                     46.46          86.68         150.13



     Linear momentum :    0.0000000000    0.0000000000    0.0000000000

     File outdir/pwscf.msd.dat deleted, as requested

     Writing config-only to output data dir outdir/pwscf.save/
     NEW-OLD atomic charge density approx. for the potential

     Check: negative core charge=   -0.000002

     negative rho (up, down):  9.089E-01 9.089E-01
     Generating pointlists ...
     new r_m :   0.0818 (alat units)  1.4442 (a.u.) for type    3

     total cpu time spent up to now is      372.6 secs

     Self-consistent Calculation

     iteration #  1     ecut=   120.00 Ry     beta= 0.70
     Davidson diagonalization with overlap
     ethr =  1.00E-06,  avg # of iterations = 15.5

     negative rho (up, down):  9.088E-01 9.088E-01

     total cpu time spent up to now is      405.1 secs

     total energy              =   -2943.07545706 Ry
     estimated scf accuracy    <       0.00984795 Ry

     total magnetization       =    -0.02 Bohr mag/cell
     absolute magnetization    =     0.03 Bohr mag/cell

     iteration #  2     ecut=   120.00 Ry     beta= 0.70
     Davidson diagonalization with overlap
     ethr =  3.56E-06,  avg # of iterations =  2.0

     negative rho (up, down):  9.088E-01 9.088E-01

     total cpu time spent up to now is      423.4 secs

     total energy              =   -2943.07623099 Ry
     estimated scf accuracy    <       0.00218067 Ry

     total magnetization       =    -0.02 Bohr mag/cell
     absolute magnetization    =     0.03 Bohr mag/cell

     iteration #  3     ecut=   120.00 Ry     beta= 0.70
     Davidson diagonalization with overlap
     ethr =  7.87E-07,  avg # of iterations =  2.0

     negative rho (up, down):  9.089E-01 9.089E-01

     Magnetic moment per site  (integrated on atomic sphere of radius R)
     atom   1 (R=0.112)  charge=  9.4623   -0.0000
     atom   2 (R=0.112)  charge=  9.0553   -0.0001
     atom   3 (R=0.112)  charge=  9.0551   -0.0001
     atom   4 (R=0.112)  charge=  9.0572    0.0000
     atom   5 (R=0.112)  charge=  9.0656   -0.0001
     atom   6 (R=0.091)  charge=  8.6990   -0.0000
     atom   7 (R=0.091)  charge=  8.7035   -0.0001
     atom   8 (R=0.082)  charge=  7.4381    0.0000
     atom   9 (R=0.082)  charge=  7.4464    0.0000
     atom  10 (R=0.082)  charge=  7.4215   -0.0003
     atom  11 (R=0.082)  charge=  7.4207   -0.0004
     atom  12 (R=0.082)  charge=  7.4247   -0.0004
     atom  13 (R=0.082)  charge=  7.4200    0.0002
     atom  14 (R=0.082)  charge=  7.4207   -0.0002
     atom  15 (R=0.082)  charge=  7.4197   -0.0002
     atom  16 (R=0.082)  charge=  7.4218   -0.0006
     atom  17 (R=0.082)  charge=  7.4251   -0.0001
     atom  18 (R=0.079)  charge=  6.3501    0.0000
     atom  19 (R=0.079)  charge=  6.2502   -0.0005
     atom  20 (R=0.079)  charge=  6.2481   -0.0000
     atom  21 (R=0.079)  charge=  6.2494   -0.0005
     atom  22 (R=0.079)  charge=  6.2606   -0.0000
     atom  23 (R=0.079)  charge=  1.0997   -0.0000

     total cpu time spent up to now is      440.4 secs

     End of self-consistent calculation

 ------ SPIN UP ------------


          k = 0.0000 0.0000 0.0000 ( 61588 PWs)   bands (ev):

   -60.7676 -60.7406 -60.7224 -60.6960 -60.6672 -60.6598 -60.6232 -60.6106
   -60.5426 -60.4898 -54.3804 -54.3290 -54.2379 -54.1927 -52.6747 -46.3695
   -46.2310 -41.5763 -41.5696 -41.4726 -41.4484 -39.7767 -27.7618 -27.7380
   -27.6689 -27.6538 -27.5799 -27.5519 -27.4355 -27.4258 -27.4079 -27.3296
   -27.2931 -27.2607 -27.2339 -27.2202 -27.1981 -27.1661 -27.1523 -27.1332
   -27.1278 -27.0999 -27.0843 -27.0358 -26.9428 -26.9223 -26.9177 -26.8964
   -26.8569 -26.8424 -26.8192 -26.8114 -24.1602 -23.9535 -23.6560 -23.5622
   -23.2970 -23.2149 -23.1639 -23.0608 -22.9187 -22.8619 -22.8291 -22.6101
   -22.5659 -22.4552 -22.4358 -22.4110 -22.2564 -22.2298 -21.7352 -21.6699
   -21.6049 -20.1460 -19.8632 -19.7870 -19.7671 -19.5871 -19.5750 -19.5483
   -19.5176 -19.5125 -19.4567 -19.3147 -19.2716 -18.1217 -17.9191 -17.7864
     0.3685   1.8275   2.9713   3.1444   3.2983   3.3569   3.4913   3.6026
     3.6945   3.7586   3.9337   4.0262   4.2094   4.5156   4.5624   4.7321
     4.7714   4.9536   5.0627   5.1284   5.2272   5.2892   5.3162   5.3808
     5.4442   5.5482   5.5859   5.7129   5.7533   5.7748   5.8025   5.8613
     5.9824   6.0743   6.1751   6.2164   6.2935   6.3689   6.3842   6.4079
     6.4788   6.5981   6.6923   6.7269   6.9357   7.0094   7.0543   7.1251
     7.1438   7.1777   7.2832   7.3216   7.4281   7.5222   7.5666   7.6008
     7.6619   7.8289   7.9135   8.0377   8.0668   8.1181   8.1454   8.1786
     8.2664   8.2879   8.3467   8.3853   8.5111   8.5572   8.6052   8.7530
     8.8516   8.9426   8.9764   9.0843   9.1668   9.2820   9.3018

 ------ SPIN DOWN ----------


          k = 0.0000 0.0000 0.0000 ( 61588 PWs)   bands (ev):

   -60.7676 -60.7411 -60.7223 -60.6965 -60.6677 -60.6600 -60.6237 -60.6109
   -60.5426 -60.4898 -54.3804 -54.3291 -54.2379 -54.1928 -52.6747 -46.3696
   -46.2311 -41.5774 -41.5697 -41.4736 -41.4485 -39.7765 -27.7619 -27.7387
   -27.6690 -27.6546 -27.5799 -27.5525 -27.4358 -27.4264 -27.4082 -27.3296
   -27.2936 -27.2606 -27.2345 -27.2205 -27.1985 -27.1663 -27.1524 -27.1337
   -27.1279 -27.1000 -27.0844 -27.0358 -26.9428 -26.9226 -26.9184 -26.8972
   -26.8572 -26.8432 -26.8199 -26.8116 -24.1603 -23.9535 -23.6561 -23.5622
   -23.2970 -23.2150 -23.1640 -23.0608 -22.9187 -22.8619 -22.8291 -22.6101
   -22.5660 -22.4553 -22.4359 -22.4111 -22.2565 -22.2299 -21.7352 -21.6699
   -21.6050 -20.1471 -19.8631 -19.7883 -19.7682 -19.5872 -19.5753 -19.5493
   -19.5178 -19.5134 -19.4568 -19.3162 -19.2716 -18.1215 -17.9190 -17.7864
     0.3684   1.8271   2.9707   3.1442   3.2981   3.3566   3.4907   3.6024
     3.6943   3.7583   3.9329   4.0257   4.2090   4.5153   4.5621   4.7315
     4.7709   4.9532   5.0621   5.1281   5.2268   5.2888   5.3158   5.3804
     5.4436   5.5479   5.5855   5.7125   5.7532   5.7741   5.8020   5.8608
     5.9821   6.0739   6.1745   6.2160   6.2932   6.3686   6.3837   6.4073
     6.4783   6.5978   6.6918   6.7264   6.9349   7.0084   7.0528   7.1229
     7.1426   7.1768   7.2814   7.3211   7.4260   7.5203   7.5652   7.6001
     7.6608   7.8286   7.9130   8.0370   8.0662   8.1172   8.1449   8.1777
     8.2645   8.2874   8.3458   8.3842   8.5103   8.5564   8.6045   8.7525
     8.8509   8.9411   8.9757   9.0837   9.1664   9.2817   9.3010

     the Fermi energy is     7.2880 ev

!    total energy              =   -2943.07621685 Ry
     estimated scf accuracy    <       0.00037765 Ry
     smearing contrib. (-TS)   =      -0.09969094 Ry
     internal energy E=F+TS    =   -2942.97652592 Ry

     total magnetization       =    -0.02 Bohr mag/cell
     absolute magnetization    =     0.03 Bohr mag/cell

     convergence has been achieved in   3 iterations

     negative rho (up, down):  9.089E-01 9.089E-01

     Forces acting on atoms (cartesian axes, Ry/au):

     atom    1 type  1   force =    -0.00099363   -0.03261788    0.00443634
     atom    2 type  1   force =    -0.12126233   -0.01295949   -0.00300941
     atom    3 type  1   force =    -0.11161407    0.01136211   -0.00290953
     atom    4 type  1   force =     0.12220950   -0.01127580   -0.00567529
     atom    5 type  1   force =     0.11297942    0.01639100   -0.00893233
     atom    6 type  2   force =    -0.00392310   -0.01789884    0.00827297
     atom    7 type  2   force =    -0.01773765    0.00989078   -0.01468658
     atom    8 type  3   force =    -0.10577002    0.00569719   -0.00484737
     atom    9 type  3   force =     0.10262506   -0.02650592   -0.02415197
     atom   10 type  3   force =    -0.02401677   -0.03389401   -0.05975813
     atom   11 type  3   force =    -0.02130613   -0.03528242    0.05583653
     atom   12 type  3   force =    -0.02030813    0.03626319   -0.05535069
     atom   13 type  3   force =    -0.00566893    0.03328360    0.06747391
     atom   14 type  3   force =     0.02207153   -0.03180843   -0.05898392
     atom   15 type  3   force =     0.02464850   -0.03718953    0.06063373
     atom   16 type  3   force =     0.01678091    0.03630320   -0.05357498
     atom   17 type  3   force =     0.00687933    0.04451446    0.06987605
     atom   18 type  4   force =    -0.00084251    0.02956655   -0.00994909
     atom   19 type  4   force =    -0.13038995   -0.00350408   -0.11886163
     atom   20 type  4   force =    -0.12657705    0.00770809    0.12011741
     atom   21 type  4   force =     0.13162726   -0.00548411   -0.11972606
     atom   22 type  4   force =     0.11139378   -0.03458696    0.17203589
     atom   23 type  5   force =     0.03919498    0.05202731   -0.01826584
     The non-local contrib.  to forces
     atom    1 type  1   force =     0.00436935   -0.01534246    0.02886719
     atom    2 type  1   force =    -0.24774910   -0.16306591    0.01471941
     atom    3 type  1   force =    -0.23863079    0.15469436   -0.02230135
     atom    4 type  1   force =     0.24763473   -0.15776751    0.02242382
     atom    5 type  1   force =     0.26872446    0.11679209    0.01502689
     atom    6 type  2   force =     0.00805156   -0.04585642   -0.06172062
     atom    7 type  2   force =     0.00704528    0.09806884    0.05713073
     atom    8 type  3   force =    -0.25716547    0.00884873    0.00371688
     atom    9 type  3   force =     0.24832518    0.03038214    0.03331007
     atom   10 type  3   force =    -0.20854681    0.00501419   -0.20400464
     atom   11 type  3   force =    -0.21512326    0.00389797    0.19437383
     atom   12 type  3   force =    -0.20313158   -0.02250988   -0.17409334
     atom   13 type  3   force =    -0.19833485   -0.00645644    0.20296263
     atom   14 type  3   force =     0.21119154    0.00419311   -0.20926548
     atom   15 type  3   force =     0.22249951    0.00954825    0.18548766
     atom   16 type  3   force =     0.19958481   -0.02338525   -0.18221202
     atom   17 type  3   force =     0.23443537   -0.04078178    0.15131585
     atom   18 type  4   force =    -0.00018913    0.05916156   -0.06176365
     atom   19 type  4   force =     0.05763202    0.01344547    0.07394233
     atom   20 type  4   force =     0.05114885   -0.01781097   -0.06928135
     atom   21 type  4   force =    -0.06543551    0.02604751    0.07100061
     atom   22 type  4   force =    -0.03923474   -0.02804313   -0.05178688
     atom   23 type  5   force =    -0.03510918   -0.02555959   -0.00273974
     The ionic contribution  to forces
     atom    1 type  1   force =    -0.39141948   -5.00195326   13.94636679
     atom    2 type  1   force =   -39.74642851   -6.14368118    0.69904786
     atom    3 type  1   force =   -39.80329157    6.22998702   -0.84233623
     atom    4 type  1   force =    39.60565609   -6.20662324    0.62091628
     atom    5 type  1   force =    39.45957665    6.73604755   -1.21703768
     atom    6 type  2   force =    -0.13022901   -3.64958053  -14.04524783
     atom    7 type  2   force =    -1.57568218    4.07663989   13.88566167
     atom    8 type  3   force =   -52.35514229   -0.02343089   -0.25552270
     atom    9 type  3   force =    51.53985635   -0.91023153   -1.80151521
     atom   10 type  3   force =   -36.08272932   -2.09310577  -23.04638525
     atom   11 type  3   force =   -35.21585571   -0.86987149   22.10742808
     atom   12 type  3   force =   -35.28177464    0.82829171  -22.10993521
     atom   13 type  3   force =   -36.21566919    2.31587100   23.13907903
     atom   14 type  3   force =    36.01554772   -2.10332718  -23.06518156
     atom   15 type  3   force =    35.05123964   -0.94356802   22.18888207
     atom   16 type  3   force =    35.19071042    0.86728228  -22.14914237
     atom   17 type  3   force =    35.79958087    2.89122471   23.54945891
     atom   18 type  4   force =    -0.20964974    4.39900721  -14.13579170
     atom   19 type  4   force =   -35.94113160    0.93114658  -25.51092336
     atom   20 type  4   force =   -36.13081815   -1.04298637   25.62760729
     atom   21 type  4   force =    35.84440305    0.90637478  -25.56324315
     atom   22 type  4   force =    35.32136897   -1.87190519   27.07316999
     atom   23 type  5   force =     5.25188162    0.67839194    0.90464428
     The local contribution  to forces
     atom    1 type  1   force =     0.38927917    4.98054172  -13.95950980
     atom    2 type  1   force =    39.87473999    6.29395781   -0.71771590
     atom    3 type  1   force =    39.93155489   -6.37438389    0.85325095
     atom    4 type  1   force =   -39.73616267    6.35548121   -0.64647761
     atom    5 type  1   force =   -39.62088180   -6.83827857    1.19127314
     atom    6 type  2   force =     0.11311564    3.66770718   14.10733059
     atom    7 type  2   force =     1.55448715   -4.16381208  -13.95191695
     atom    8 type  3   force =    52.53205926    0.01969357    0.24739329
     atom    9 type  3   force =   -51.69795715    0.86657315    1.77198845
     atom   10 type  3   force =    36.27813363    2.02975943   23.19878918
     atom   11 type  3   force =    35.42524889    0.82408503  -22.25453001
     atom   12 type  3   force =    35.47581337   -0.75763756   22.23754653
     atom   13 type  3   force =    36.41736663   -2.26294254  -23.27880678
     atom   14 type  3   force =   -36.22216959    2.05105750   23.22264407
     atom   15 type  3   force =   -35.26514040    0.89633812  -22.32327357
     atom   16 type  3   force =   -35.39784857   -0.79779324   22.28636293
     atom   17 type  3   force =   -36.04224002   -2.79181002  -23.63313241
     atom   18 type  4   force =     0.20122518   -4.41220311   14.17309828
     atom   19 type  4   force =    35.75633672   -0.93965848   25.31871310
     atom   20 type  4   force =    35.96269084    1.06385462  -25.43843592
     atom   21 type  4   force =   -35.65496238   -0.93330945   25.36990524
     atom   22 type  4   force =   -35.18003999    1.84968080  -26.84957225
     atom   23 type  5   force =    -5.17765568   -0.60242729   -0.92309057
     The core correction contribution to forces
     atom    1 type  1   force =     0.00029854    0.00119672   -0.00064207
     atom    2 type  1   force =    -0.01165784   -0.00186837    0.00022196
     atom    3 type  1   force =    -0.01184793    0.00221629   -0.00091150
     atom    4 type  1   force =     0.01263992   -0.00127047    0.00131788
     atom    5 type  1   force =     0.01512414   -0.00163830    0.00087977
     atom    6 type  2   force =    -0.00052254    0.00216686    0.00254435
     atom    7 type  2   force =     0.00064639   -0.00506229   -0.00230152
     atom    8 type  3   force =    -0.03115136    0.00091975    0.00002522
     atom    9 type  3   force =     0.02740674   -0.00075110   -0.00114120
     atom   10 type  3   force =    -0.02199441    0.00944335   -0.01590835
     atom   11 type  3   force =    -0.02280566    0.00918811    0.01710219
     atom   12 type  3   force =    -0.02099268   -0.00928826   -0.01505966
     atom   13 type  3   force =    -0.02047884   -0.00976820    0.01577976
     atom   14 type  3   force =     0.02116739    0.00962221   -0.01591991
     atom   15 type  3   force =     0.02441894    0.00916489    0.01705861
     atom   16 type  3   force =     0.02048832   -0.00861166   -0.01627161
     atom   17 type  3   force =     0.02335799   -0.01092692    0.01296191
     atom   18 type  4   force =     0.00004677   -0.00300592    0.00291858
     atom   19 type  4   force =    -0.00953327   -0.00014694   -0.00975530
     atom   20 type  4   force =    -0.00915464    0.00067517    0.00944616
     atom   21 type  4   force =     0.00988171   -0.00079349   -0.00968829
     atom   22 type  4   force =     0.00788896    0.00049223    0.00961077
     atom   23 type  5   force =     0.00000000    0.00000000    0.00000000
     The Hubbard contrib.    to forces
     atom    1 type  1   force =     0.00000000    0.00000000    0.00000000
     atom    2 type  1   force =     0.00000000    0.00000000    0.00000000
     atom    3 type  1   force =     0.00000000    0.00000000    0.00000000
     atom    4 type  1   force =     0.00000000    0.00000000    0.00000000
     atom    5 type  1   force =     0.00000000    0.00000000    0.00000000
     atom    6 type  2   force =     0.00000000    0.00000000    0.00000000
     atom    7 type  2   force =     0.00000000    0.00000000    0.00000000
     atom    8 type  3   force =     0.00000000    0.00000000    0.00000000
     atom    9 type  3   force =     0.00000000    0.00000000    0.00000000
     atom   10 type  3   force =     0.00000000    0.00000000    0.00000000
     atom   11 type  3   force =     0.00000000    0.00000000    0.00000000
     atom   12 type  3   force =     0.00000000    0.00000000    0.00000000
     atom   13 type  3   force =     0.00000000    0.00000000    0.00000000
     atom   14 type  3   force =     0.00000000    0.00000000    0.00000000
     atom   15 type  3   force =     0.00000000    0.00000000    0.00000000
     atom   16 type  3   force =     0.00000000    0.00000000    0.00000000
     atom   17 type  3   force =     0.00000000    0.00000000    0.00000000
     atom   18 type  4   force =     0.00000000    0.00000000    0.00000000
     atom   19 type  4   force =     0.00000000    0.00000000    0.00000000
     atom   20 type  4   force =     0.00000000    0.00000000    0.00000000
     atom   21 type  4   force =     0.00000000    0.00000000    0.00000000
     atom   22 type  4   force =     0.00000000    0.00000000    0.00000000
     atom   23 type  5   force =     0.00000000    0.00000000    0.00000000
     The SCF correction term to forces
     atom    1 type  1   force =    -0.00357302    0.00297120   -0.01052858
     atom    2 type  1   force =     0.00978132    0.00172994    0.00083443
     atom    3 type  1   force =     0.01054952   -0.00111988    0.00950576
     atom    4 type  1   force =    -0.00761038   -0.00106401   -0.00373849
     atom    5 type  1   force =    -0.00961584    0.00350002    0.00104273
     atom    6 type  2   force =     0.00560946    0.00769587    0.00548365
     atom    7 type  2   force =    -0.00428610    0.00408821   -0.00314333
     atom    8 type  3   force =     0.00557804   -0.00030217   -0.00034288
     atom    9 type  3   force =    -0.01505787   -0.01244679   -0.02667691
     atom   10 type  3   force =     0.01106833    0.01502658    0.00786811
     atom   11 type  3   force =     0.00717780   -0.00255026   -0.00842039
     atom   12 type  3   force =     0.00972558   -0.00256103    0.00630816
     atom   13 type  3   force =     0.01139551   -0.00338843   -0.01142355
     atom   14 type  3   force =    -0.00371734    0.00667771    0.00885614
     atom   15 type  3   force =    -0.00842100   -0.00864097   -0.00740386
     atom   16 type  3   force =     0.00379412   -0.00115714    0.00780525
     atom   17 type  3   force =    -0.00830669   -0.00315974   -0.01061104
     atom   18 type  4   force =     0.00767260   -0.01336140    0.01170657
     atom   19 type  4   force =     0.00625436   -0.00825891    0.00927878
     atom   20 type  4   force =    -0.00049575    0.00400745   -0.00910159
     atom   21 type  4   force =    -0.00231142   -0.00377167    0.01241671
     atom   22 type  4   force =     0.00135878    0.01522012   -0.00926855
     atom   23 type  5   force =     0.00002641    0.00165404    0.00303736

     Total force =     0.515343     Total SCF correction =     0.068069
     SCF correction compared to forces is large: reduce conv_thr to get better values


     Computing stress (Cartesian axis) and pressure


     negative rho (up, down):  9.089E-01 9.089E-01
          total   stress  (Ry/bohr**3)                   (kbar)     P=       86.30
   0.00062084   0.00000584  -0.00000191           91.33        0.86       -0.28
   0.00000584   0.00069316  -0.00001021            0.86      101.97       -1.50
  -0.00000191  -0.00001021   0.00044591           -0.28       -1.50       65.59


     Entering Dynamics:    iteration =     2
                           time      =   0.0004 pico-seconds


ATOMIC_POSITIONS (angstrom)
Hf            2.6700458192        2.8272051927        6.6041130937
Hf            1.2530230906        1.2863685162        5.0586146402
Hf            1.2555204789        7.3898915486        5.0882164117
Hf            4.0870689556        1.2863686553        5.0586141963
Hf            4.0845716453        7.3898921993        5.0882155403
Nb            2.6700452143        2.7970127723        3.5157338728
Nb            2.6700422546        5.8764665809        6.6351436355
Ta            1.2094071542        4.3410143289        5.0712739116
Ta            4.1306846695        4.3410114082        5.0712726966
Ta            1.3072960841        1.3142047294        2.0589211438
Ta            1.3028320265        1.3084729271        8.0947341380
Ta            1.3040533019        7.3759161091        2.0463796660
Ta            1.3077562460        7.3651725582        8.0861583828
Ta            4.0327957265        1.3142048873        2.0589212577
Ta            4.0372603917        1.3084726362        8.0947346634
Ta            4.0360382903        7.3759161351        2.0463799138
Ta            4.0323358519        7.3651737095        8.0861586958
Zr            2.6700460928        5.8663779268        3.5275308053
Zr            1.2438513499        4.3221628193        2.0001222707
Zr            1.2404028396        4.3542110553        8.1499310105
Zr            4.0962408339        4.3221624421        2.0001223851
Zr            4.0996845438        4.3541999968        8.1499450396
H             4.5722490157        5.1639249035        6.4979125635


     kinetic energy (Ekin) =           4.04836881 Ry
     temperature           =       19369.29939954 K 
     Ekin + Etot (const)   =       -2939.02784805 Ry
     Ions kinetic stress =           71.50 (kbar)
                                     14.23          26.58          46.29
                                     26.58          49.66          86.48
                                     46.29          86.48         150.61



     Linear momentum :    0.0000000000    0.0000000000    0.0000000000

     Writing config-only to output data dir outdir/pwscf.save/
     NEW-OLD atomic charge density approx. for the potential

     Check: negative core charge=   -0.000002

     negative rho (up, down):  9.089E-01 9.089E-01
     Generating pointlists ...
     new r_m :   0.0899 (alat units)  1.5870 (a.u.) for type    2
     new r_m :   0.0753 (alat units)  1.3292 (a.u.) for type    3
     new r_m :   0.0753 (alat units)  1.3292 (a.u.) for type    5

     total cpu time spent up to now is      500.5 secs

     Self-consistent Calculation

     iteration #  1     ecut=   120.00 Ry     beta= 0.70
     Davidson diagonalization with overlap
     ethr =  1.00E-06,  avg # of iterations =  6.5

     negative rho (up, down):  9.091E-01 9.090E-01

     total cpu time spent up to now is      545.6 secs

     total energy              =   -2943.05760139 Ry
     estimated scf accuracy    <       0.03970660 Ry

     total magnetization       =    -0.02 Bohr mag/cell
     absolute magnetization    =     0.02 Bohr mag/cell

     iteration #  2     ecut=   120.00 Ry     beta= 0.70
     Davidson diagonalization with overlap
     ethr =  1.43E-05,  avg # of iterations =  2.5

     negative rho (up, down):  9.091E-01 9.091E-01

     total cpu time spent up to now is      564.2 secs

     total energy              =   -2943.06138807 Ry
     estimated scf accuracy    <       0.01088286 Ry

     total magnetization       =    -0.02 Bohr mag/cell
     absolute magnetization    =     0.02 Bohr mag/cell

     iteration #  3     ecut=   120.00 Ry     beta= 0.70
     Davidson diagonalization with overlap
     ethr =  3.93E-06,  avg # of iterations =  2.0

     negative rho (up, down):  9.089E-01 9.089E-01

     Magnetic moment per site  (integrated on atomic sphere of radius R)
     atom   1 (R=0.112)  charge=  9.4624   -0.0001
     atom   2 (R=0.112)  charge=  9.0571   -0.0001
     atom   3 (R=0.112)  charge=  9.0558   -0.0001
     atom   4 (R=0.112)  charge=  9.0591   -0.0000
     atom   5 (R=0.112)  charge=  9.0672   -0.0001
     atom   6 (R=0.090)  charge=  8.5800   -0.0000
     atom   7 (R=0.090)  charge=  8.5848   -0.0001
     atom   8 (R=0.075)  charge=  6.6188   -0.0000
     atom   9 (R=0.075)  charge=  6.6291    0.0002
     atom  10 (R=0.075)  charge=  6.6031   -0.0002
     atom  11 (R=0.075)  charge=  6.6060   -0.0003
     atom  12 (R=0.075)  charge=  6.6019   -0.0003
     atom  13 (R=0.075)  charge=  6.6059    0.0001
     atom  14 (R=0.075)  charge=  6.6022   -0.0002
     atom  15 (R=0.075)  charge=  6.6039   -0.0002
     atom  16 (R=0.075)  charge=  6.6021   -0.0004
     atom  17 (R=0.075)  charge=  6.6084   -0.0001
     atom  18 (R=0.079)  charge=  6.3498    0.0000
     atom  19 (R=0.079)  charge=  6.2520   -0.0004
     atom  20 (R=0.079)  charge=  6.2499   -0.0000
     atom  21 (R=0.079)  charge=  6.2511   -0.0004
     atom  22 (R=0.079)  charge=  6.2623   -0.0001
     atom  23 (R=0.075)  charge=  1.0638   -0.0000

     total cpu time spent up to now is      581.1 secs

     End of self-consistent calculation

 ------ SPIN UP ------------


          k = 0.0000 0.0000 0.0000 ( 61588 PWs)   bands (ev):

   -60.7897 -60.7510 -60.7447 -60.7058 -60.6833 -60.6739 -60.6357 -60.6242
   -60.5466 -60.4204 -54.3891 -54.3407 -54.2478 -54.2027 -52.6861 -46.3736
   -46.2291 -41.5993 -41.5984 -41.5119 -41.4924 -39.7889 -27.7826 -27.7465
   -27.6915 -27.6608 -27.6004 -27.5607 -27.4457 -27.4294 -27.4087 -27.3469
   -27.3034 -27.2825 -27.2445 -27.2318 -27.2091 -27.1633 -27.1576 -27.1405
   -27.1323 -27.0992 -27.0513 -27.0040 -26.9646 -26.9446 -26.9252 -26.9051
   -26.8806 -26.8489 -26.8329 -26.8229 -24.1696 -23.9639 -23.6643 -23.5735
   -23.3071 -23.2221 -23.1733 -23.0698 -22.9278 -22.8724 -22.8398 -22.6217
   -22.5747 -22.4587 -22.4414 -22.4178 -22.2621 -22.2344 -21.7486 -21.6831
   -21.6167 -20.1663 -19.9006 -19.8108 -19.7845 -19.6375 -19.5898 -19.5708
   -19.5460 -19.5292 -19.5110 -19.3361 -19.3182 -18.1329 -17.9326 -17.8007
     0.2524   1.7986   2.9547   3.1284   3.3095   3.3462   3.4770   3.5867
     3.6827   3.7488   3.9209   4.0091   4.2031   4.5032   4.5490   4.7187
     4.7542   4.9425   5.0530   5.1109   5.2238   5.2756   5.3022   5.3636
     5.4220   5.5358   5.5726   5.6954   5.7390   5.7638   5.7878   5.8648
     5.9716   6.0677   6.1659   6.2048   6.2798   6.3558   6.3712   6.3964
     6.4746   6.5887   6.6825   6.7120   6.9234   6.9980   7.0414   7.1122
     7.1404   7.1664   7.2676   7.3062   7.4204   7.5121   7.5578   7.5820
     7.6494   7.8064   7.9027   8.0100   8.0580   8.1030   8.1340   8.1649
     8.2562   8.2869   8.3363   8.3724   8.5028   8.5434   8.5868   8.7415
     8.8384   8.9354   8.9399   9.0734   9.1480   9.2708   9.2937

 ------ SPIN DOWN ----------


          k = 0.0000 0.0000 0.0000 ( 61588 PWs)   bands (ev):

   -60.7897 -60.7514 -60.7447 -60.7062 -60.6836 -60.6744 -60.6360 -60.6247
   -60.5466 -60.4203 -54.3891 -54.3408 -54.2478 -54.2028 -52.6862 -46.3738
   -46.2291 -41.5999 -41.5987 -41.5120 -41.4933 -39.7889 -27.7828 -27.7472
   -27.6917 -27.6614 -27.6004 -27.5612 -27.4460 -27.4301 -27.4087 -27.3470
   -27.3038 -27.2825 -27.2450 -27.2320 -27.2095 -27.1635 -27.1577 -27.1408
   -27.1326 -27.0993 -27.0513 -27.0038 -26.9647 -26.9449 -26.9258 -26.9057
   -26.8810 -26.8496 -26.8331 -26.8236 -24.1697 -23.9639 -23.6644 -23.5735
   -23.3071 -23.2222 -23.1733 -23.0699 -22.9278 -22.8725 -22.8398 -22.6217
   -22.5748 -22.4588 -22.4415 -22.4179 -22.2622 -22.2345 -21.7486 -21.6832
   -21.6168 -20.1672 -19.9005 -19.8118 -19.7853 -19.6377 -19.5901 -19.5715
   -19.5461 -19.5299 -19.5112 -19.3373 -19.3183 -18.1329 -17.9327 -17.8008
     0.2524   1.7983   2.9540   3.1282   3.3094   3.3459   3.4765   3.5866
     3.6826   3.7485   3.9202   4.0087   4.2028   4.5029   4.5487   4.7182
     4.7538   4.9421   5.0524   5.1106   5.2235   5.2752   5.3019   5.3632
     5.4215   5.5355   5.5722   5.6951   5.7389   5.7632   5.7873   5.8644
     5.9713   6.0673   6.1654   6.2044   6.2795   6.3554   6.3707   6.3958
     6.4741   6.5884   6.6821   6.7116   6.9227   6.9972   7.0400   7.1104
     7.1394   7.1657   7.2660   7.3057   7.4184   7.5104   7.5567   7.5814
     7.6485   7.8061   7.9023   8.0093   8.0575   8.1021   8.1336   8.1640
     8.2546   8.2864   8.3357   8.3713   8.5022   8.5428   8.5862   8.7410
     8.8378   8.9341   8.9394   9.0729   9.1476   9.2707   9.2932

     the Fermi energy is     7.2764 ev

!    total energy              =   -2943.06162154 Ry
     estimated scf accuracy    <       0.00097860 Ry
     smearing contrib. (-TS)   =      -0.09991342 Ry
     internal energy E=F+TS    =   -2942.96170811 Ry

     total magnetization       =    -0.02 Bohr mag/cell
     absolute magnetization    =     0.02 Bohr mag/cell

     convergence has been achieved in   3 iterations

     negative rho (up, down):  9.089E-01 9.089E-01

     Forces acting on atoms (cartesian axes, Ry/au):

     atom    1 type  1   force =    -0.00292548   -0.03509129    0.00661157
     atom    2 type  1   force =    -0.11345180   -0.01205716    0.00269323
     atom    3 type  1   force =    -0.10402617    0.01173401    0.00845891
     atom    4 type  1   force =     0.11543051   -0.01421344   -0.00216781
     atom    5 type  1   force =     0.10772141    0.01882372   -0.00157441
     atom    6 type  2   force =    -0.00462018   -0.01924900    0.00752516
     atom    7 type  2   force =    -0.02041067    0.01346276   -0.01693402
     atom    8 type  3   force =    -0.10645908    0.00646534   -0.00382056
     atom    9 type  3   force =     0.08689668   -0.05612641   -0.07285822
     atom   10 type  3   force =    -0.02099452   -0.02723147   -0.05803260
     atom   11 type  3   force =    -0.01765417   -0.03719124    0.04946713
     atom   12 type  3   force =    -0.01977587    0.03379052   -0.05566890
     atom   13 type  3   force =     0.00065393    0.03530210    0.06092755
     atom   14 type  3   force =     0.01977640   -0.02878934   -0.05780466
     atom   15 type  3   force =     0.01841711   -0.03847401    0.05592392
     atom   16 type  3   force =     0.01709708    0.03492088   -0.05229305
     atom   17 type  3   force =     0.00120938    0.04531424    0.06376149
     atom   18 type  4   force =    -0.00087947    0.02710343   -0.00967827
     atom   19 type  4   force =    -0.12752953   -0.00620142   -0.11666245
     atom   20 type  4   force =    -0.12374592    0.00720487    0.11582943
     atom   21 type  4   force =     0.13073676   -0.00579812   -0.12170209
     atom   22 type  4   force =     0.11671015   -0.01892837    0.14936315
     atom   23 type  5   force =     0.04782345    0.06522941    0.04863549
     The non-local contrib.  to forces
     atom    1 type  1   force =     0.00322944   -0.01550900    0.02929542
     atom    2 type  1   force =    -0.24211593   -0.16324826    0.01888468
     atom    3 type  1   force =    -0.23415661    0.15547596   -0.01573538
     atom    4 type  1   force =     0.24383982   -0.16108669    0.02400570
     atom    5 type  1   force =     0.26279119    0.12281525    0.01492194
     atom    6 type  2   force =     0.00765105   -0.04391147   -0.06316102
     atom    7 type  2   force =     0.01043145    0.09911035    0.06407875
     atom    8 type  3   force =    -0.25672895    0.00874051    0.00632185
     atom    9 type  3   force =     0.23550382    0.01894491    0.01751813
     atom   10 type  3   force =    -0.20795368    0.00822646   -0.20347763
     atom   11 type  3   force =    -0.21237937    0.00354659    0.19005987
     atom   12 type  3   force =    -0.20348457   -0.02430369   -0.17317650
     atom   13 type  3   force =    -0.19174033   -0.00624417    0.19836697
     atom   14 type  3   force =     0.21099516    0.00663577   -0.20773943
     atom   15 type  3   force =     0.21874979    0.00688467    0.18251111
     atom   16 type  3   force =     0.20133044   -0.02498702   -0.18100352
     atom   17 type  3   force =     0.22674963   -0.03356758    0.15333090
     atom   18 type  4   force =     0.00210077    0.05656015   -0.05709250
     atom   19 type  4   force =     0.06055705    0.00991939    0.07543644
     atom   20 type  4   force =     0.05485574   -0.01741682   -0.07261869
     atom   21 type  4   force =    -0.06819417    0.02567144    0.06976410
     atom   22 type  4   force =    -0.04003378   -0.02096223   -0.05584202
     atom   23 type  5   force =    -0.03596228   -0.02937101   -0.01559914
     The ionic contribution  to forces
     atom    1 type  1   force =    -0.41668711   -5.03067177   13.97545865
     atom    2 type  1   force =   -39.75206070   -6.15084838    0.70176249
     atom    3 type  1   force =   -39.80953278    6.23652514   -0.83580304
     atom    4 type  1   force =    39.60624221   -6.23012915    0.62415855
     atom    5 type  1   force =    39.46810119    6.76861189   -1.18735785
     atom    6 type  2   force =    -0.14264513   -3.66392989  -14.06435891
     atom    7 type  2   force =    -1.56393590    4.14021555   13.99043940
     atom    8 type  3   force =   -52.38390693   -0.02392482   -0.25519661
     atom    9 type  3   force =    51.43899953   -1.09815231   -2.12490998
     atom   10 type  3   force =   -36.08448686   -2.09558756  -23.05350304
     atom   11 type  3   force =   -35.21633030   -0.87521016   22.11313291
     atom   12 type  3   force =   -35.28350913    0.82963298  -22.11900008
     atom   13 type  3   force =   -36.20622247    2.31169011   23.14376847
     atom   14 type  3   force =    36.01612161   -2.10809381  -23.07708496
     atom   15 type  3   force =    35.05563297   -0.95692557   22.19964372
     atom   16 type  3   force =    35.19198561    0.87065760  -22.16657983
     atom   17 type  3   force =    35.83873195    2.80964562   23.51912271
     atom   18 type  4   force =    -0.22772308    4.41393488  -14.16163788
     atom   19 type  4   force =   -35.94449714    0.93200154  -25.52203190
     atom   20 type  4   force =   -36.12906556   -1.03542184   25.63894553
     atom   21 type  4   force =    35.84464671    0.90726479  -25.59051155
     atom   22 type  4   force =    35.41029179   -1.71342548   27.02927400
     atom   23 type  5   force =     5.28984952    0.76214063    1.22226918
     The local contribution  to forces
     atom    1 type  1   force =     0.41225810    5.00250688  -13.97552321
     atom    2 type  1   force =    39.90520100    6.30345682   -0.69629789
     atom    3 type  1   force =    39.96771056   -6.37940393    0.89032842
     atom    4 type  1   force =   -39.75583346    6.36993384   -0.63389609
     atom    5 type  1   force =   -39.64272000   -6.86791667    1.19579565
     atom    6 type  2   force =     0.12833776    3.68499928   14.13798045
     atom    7 type  2   force =     1.54380878   -4.21088108  -14.04351560
     atom    8 type  3   force =    52.56594161    0.01877007    0.26133248
     atom    9 type  3   force =   -51.60647729    1.04013757    2.07761119
     atom   10 type  3   force =    36.30888997    2.08007461   23.22547222
     atom   11 type  3   force =    35.45770362    0.81951079  -22.28963872
     atom   12 type  3   force =    35.50511983   -0.77538157   22.26051011
     atom   13 type  3   force =    36.44491960   -2.25294350  -23.31746143
     atom   14 type  3   force =   -36.22549366    2.07518046   23.24906779
     atom   15 type  3   force =   -35.29498319    0.89865633  -22.35390517
     atom   16 type  3   force =   -35.38624720   -0.81047135   22.31914385
     atom   17 type  3   force =   -36.09706806   -2.72391961  -23.63757830
     atom   18 type  4   force =     0.23182280   -4.44772806   14.21960804
     atom   19 type  4   force =    35.77991875   -0.95874232   25.34509667
     atom   20 type  4   force =    35.98263022    1.05837140  -25.46909000
     atom   21 type  4   force =   -35.65716505   -0.94059852   25.40096725
     atom   22 type  4   force =   -35.27478713    1.71348991  -26.82869417
     atom   23 type  5   force =    -5.20655944   -0.66777796   -1.15626139
     The core correction contribution to forces
     atom    1 type  1   force =     0.00028419    0.00115806   -0.00074199
     atom    2 type  1   force =    -0.01137304   -0.00188945    0.00025842
     atom    3 type  1   force =    -0.01181895    0.00229772   -0.00080759
     atom    4 type  1   force =     0.01259222   -0.00147197    0.00115952
     atom    5 type  1   force =     0.01466117   -0.00130251    0.00037700
     atom    6 type  2   force =    -0.00041134    0.00217322    0.00271273
     atom    7 type  2   force =     0.00046784   -0.00512929   -0.00264020
     atom    8 type  3   force =    -0.03094645    0.00081293    0.00012892
     atom    9 type  3   force =     0.02589806   -0.00170710   -0.00283014
     atom   10 type  3   force =    -0.02214242    0.00906947   -0.01599296
     atom   11 type  3   force =    -0.02303007    0.00932801    0.01714963
     atom   12 type  3   force =    -0.02147880   -0.00939664   -0.01516656
     atom   13 type  3   force =    -0.02006661   -0.01004746    0.01558244
     atom   14 type  3   force =     0.02103684    0.00958376   -0.01598582
     atom   15 type  3   force =     0.02408595    0.00925047    0.01649785
     atom   16 type  3   force =     0.02036268   -0.00854099   -0.01637183
     atom   17 type  3   force =     0.02328376   -0.01057713    0.01338047
     atom   18 type  4   force =    -0.00001888   -0.00302448    0.00278613
     atom   19 type  4   force =    -0.00959127   -0.00004286   -0.00971651
     atom   20 type  4   force =    -0.00925953    0.00063760    0.00951340
     atom   21 type  4   force =     0.01002727   -0.00079525   -0.00954523
     atom   22 type  4   force =     0.00811554    0.00051769    0.00940817
     atom   23 type  5   force =     0.00000000    0.00000000    0.00000000
     The Hubbard contrib.    to forces
     atom    1 type  1   force =     0.00000000    0.00000000    0.00000000
     atom    2 type  1   force =     0.00000000    0.00000000    0.00000000
     atom    3 type  1   force =     0.00000000    0.00000000    0.00000000
     atom    4 type  1   force =     0.00000000    0.00000000    0.00000000
     atom    5 type  1   force =     0.00000000    0.00000000    0.00000000
     atom    6 type  2   force =     0.00000000    0.00000000    0.00000000
     atom    7 type  2   force =     0.00000000    0.00000000    0.00000000
     atom    8 type  3   force =     0.00000000    0.00000000    0.00000000
     atom    9 type  3   force =     0.00000000    0.00000000    0.00000000
     atom   10 type  3   force =     0.00000000    0.00000000    0.00000000
     atom   11 type  3   force =     0.00000000    0.00000000    0.00000000
     atom   12 type  3   force =     0.00000000    0.00000000    0.00000000
     atom   13 type  3   force =     0.00000000    0.00000000    0.00000000
     atom   14 type  3   force =     0.00000000    0.00000000    0.00000000
     atom   15 type  3   force =     0.00000000    0.00000000    0.00000000
     atom   16 type  3   force =     0.00000000    0.00000000    0.00000000
     atom   17 type  3   force =     0.00000000    0.00000000    0.00000000
     atom   18 type  4   force =     0.00000000    0.00000000    0.00000000
     atom   19 type  4   force =     0.00000000    0.00000000    0.00000000
     atom   20 type  4   force =     0.00000000    0.00000000    0.00000000
     atom   21 type  4   force =     0.00000000    0.00000000    0.00000000
     atom   22 type  4   force =     0.00000000    0.00000000    0.00000000
     atom   23 type  5   force =     0.00000000    0.00000000    0.00000000
     The SCF correction term to forces
     atom    1 type  1   force =    -0.00128849    0.00733392   -0.02025281
     atom    2 type  1   force =    -0.01238153    0.00038149   -0.02028998
     atom    3 type  1   force =    -0.01550677   -0.00325150   -0.02789899
     atom    4 type  1   force =     0.00931134    0.00844991   -0.01597100
     atom    5 type  1   force =     0.00560947   -0.00347487   -0.02368666
     atom    6 type  2   force =     0.00316908    0.00132923   -0.00402360
     atom    7 type  2   force =    -0.01046123   -0.00994339   -0.02367188
     atom    8 type  3   force =    -0.00009675    0.00197603   -0.01478270
     atom    9 type  3   force =    -0.00630582   -0.01544010   -0.03862292
     atom   10 type  3   force =    -0.01457991   -0.02910508   -0.00890669
     atom   11 type  3   force =    -0.02289644    0.00554292    0.02038793
     atom   12 type  3   force =    -0.01570160    0.01314882   -0.00721137
     atom   13 type  3   force =    -0.02551464   -0.00724350    0.02229559
     atom   14 type  3   force =    -0.00216193   -0.01218613   -0.00443775
     atom   15 type  3   force =     0.01565320    0.00356946    0.01280090
     atom   16 type  3   force =    -0.00961284    0.00817200   -0.00585722
     atom   17 type  3   force =     0.01023371    0.00364231    0.01713021
     atom   18 type  4   force =    -0.00633947    0.00727031   -0.01171757
     atom   19 type  4   force =    -0.01319531    0.01057221   -0.00382264
     atom   20 type  4   force =    -0.02218518    0.00094391    0.01070368
     atom   21 type  4   force =     0.00214361    0.00256879    0.00924785
     atom   22 type  4   force =     0.01384535    0.00136113   -0.00315834
     atom   23 type  5   force =     0.00121726    0.00014713   -0.00014866

     Total force =     0.504357     Total SCF correction =     0.110852
     SCF correction compared to forces is large: reduce conv_thr to get better values


     Computing stress (Cartesian axis) and pressure


     negative rho (up, down):  9.089E-01 9.089E-01
          total   stress  (Ry/bohr**3)                   (kbar)     P=       88.49
   0.00063996   0.00000361   0.00000880           94.14        0.53        1.30
   0.00000361   0.00069530   0.00000777            0.53      102.28        1.14
   0.00000880   0.00000777   0.00046937            1.30        1.14       69.05


     Entering Dynamics:    iteration =     3
                           time      =   0.0006 pico-seconds


ATOMIC_POSITIONS (angstrom)
Hf            2.6700685540        2.8272433251        6.6041880378
Hf            1.2530293070        1.2864096199        5.0586889154
Hf            1.2555280979        7.3899361748        5.0882911357
Hf            4.0871089460        1.2864097532        5.0586878941
Hf            4.0846103826        7.3899377019        5.0882890802
Nb            2.6700671175        2.7970507472        3.5158104865
Nb            2.6700601757        5.8765125625        6.6352138054
Ta            1.2094151844        4.3410580948        5.0713475979
Ta            4.1307213979        4.3410492596        5.0713413214
Ta            1.3073159161        1.3142432989        2.0589871849
Ta            1.3028522804        1.3085107191        8.0948159858
Ta            1.3040734478        7.3759640404        2.0464461918
Ta            1.3077788464        7.3652203031        8.0862418218
Ta            4.0328217187        1.3142435066        2.0589873906
Ta            4.0372865276        1.3085101562        8.0948172752
Ta            4.0360637322        7.3759641445        2.0464468049
Ta            4.0323594831        7.3652229147        8.0862425197
[...]
     3.6872   3.7572   3.9290   4.0165   4.2149   4.5032   4.5611   4.7223
     4.7575   4.9527   5.0561   5.1185   5.2348   5.2776   5.3072   5.3637
     5.4173   5.5425   5.5776   5.7008   5.7500   5.7704   5.7936   5.8806
     5.9826   6.0718   6.1693   6.2135   6.2917   6.3649   6.3796   6.3999
     6.4868   6.5952   6.6858   6.7167   6.9254   7.0032   7.0442   7.1100
     7.1420   7.1692   7.2607   7.3048   7.4236   7.5126   7.5702   7.5860
     7.6483   7.8014   7.9090   8.0053   8.0623   8.1124   8.1420   8.1643
     8.2603   8.3042   8.3427   8.3792   8.5118   8.5454   8.5891   8.7429
     8.8332   8.9213   8.9356   9.0796   9.1372   9.2833   9.2911

     the Fermi energy is     7.2778 ev

!    total energy              =   -2943.04649568 Ry
     estimated scf accuracy    <       0.00019359 Ry
     smearing contrib. (-TS)   =      -0.09968827 Ry
     internal energy E=F+TS    =   -2942.94680741 Ry

     total magnetization       =    -0.00 Bohr mag/cell
     absolute magnetization    =     0.00 Bohr mag/cell

     convergence has been achieved in   5 iterations

     negative rho (up, down):  9.090E-01 9.090E-01

     Forces acting on atoms (cartesian axes, Ry/au):

     atom    1 type  1   force =    -0.00140679   -0.03072898    0.00183073
     atom    2 type  1   force =    -0.11588051   -0.01231644   -0.00725274
     atom    3 type  1   force =    -0.10821983    0.01050943   -0.00286615
     atom    4 type  1   force =     0.11822462   -0.01178020   -0.01009444
     atom    5 type  1   force =     0.11002282    0.01585524   -0.01145357
     atom    6 type  2   force =    -0.00723256   -0.02233674    0.00587055
     atom    7 type  2   force =    -0.01546158    0.01029445   -0.01665951
     atom    8 type  3   force =    -0.10514991    0.00693196   -0.00456592
     atom    9 type  3   force =     0.06743033   -0.09164910   -0.12543937
     atom   10 type  3   force =    -0.02255359   -0.03104472   -0.05669310
     atom   11 type  3   force =    -0.02140239   -0.03465043    0.05692784
     atom   12 type  3   force =    -0.01889602    0.03680126   -0.05307817
     atom   13 type  3   force =    -0.00176759    0.03322463    0.06902450
     atom   14 type  3   force =     0.02043119   -0.03058648   -0.05583335
     atom   15 type  3   force =     0.02030783   -0.03666250    0.06249263
     atom   16 type  3   force =     0.01678235    0.03593556   -0.05076582
     atom   17 type  3   force =     0.00326810    0.04413240    0.07030373
     atom   18 type  4   force =    -0.00188717    0.02836761   -0.01294359
     atom   19 type  4   force =    -0.12825947   -0.00478184   -0.11511955
     atom   20 type  4   force =    -0.12414443    0.00684480    0.12009675
     atom   21 type  4   force =     0.13092970   -0.00524828   -0.12028779
     atom   22 type  4   force =     0.12348579   -0.00808417    0.12870958
     atom   23 type  5   force =     0.06137910    0.09097254    0.12779677
     The non-local contrib.  to forces
     atom    1 type  1   force =     0.00314499   -0.01599358    0.02456914
     atom    2 type  1   force =    -0.24448686   -0.16297061    0.01350573
     atom    3 type  1   force =    -0.23868900    0.15482900   -0.02284338
     atom    4 type  1   force =     0.24480740   -0.16184750    0.01919957
     atom    5 type  1   force =     0.26319414    0.12209782    0.00519973
     atom    6 type  2   force =     0.00759769   -0.04259594   -0.06035553
     atom    7 type  2   force =     0.01277809    0.10148787    0.07246049
     atom    8 type  3   force =    -0.25700645    0.00896439    0.00414702
     atom    9 type  3   force =     0.22051200    0.00684944   -0.00354682
     atom   10 type  3   force =    -0.20950934    0.00326098   -0.20541488
     atom   11 type  3   force =    -0.21744474    0.00472647    0.19467111
     atom   12 type  3   force =    -0.20173621   -0.02143718   -0.17247345
     atom   13 type  3   force =    -0.19445991   -0.00683146    0.20397013
     atom   14 type  3   force =     0.20950958    0.00536503   -0.20795049
     atom   15 type  3   force =     0.22146795    0.00704129    0.18712528
     atom   16 type  3   force =     0.19807695   -0.02297220   -0.18206596
     atom   17 type  3   force =     0.22474403   -0.02521829    0.16515273
     atom   18 type  4   force =    -0.00033053    0.06020343   -0.05909253
     atom   19 type  4   force =     0.05823573    0.01166020    0.07448236
     atom   20 type  4   force =     0.05315793   -0.01799184   -0.07036189
     atom   21 type  4   force =    -0.06758642    0.02575537    0.07182129
     atom   22 type  4   force =    -0.04066640   -0.01803593   -0.06153774
     atom   23 type  5   force =    -0.03711688   -0.03306829   -0.02800134
     The ionic contribution  to forces
     atom    1 type  1   force =    -0.38336550   -4.91954342   14.09023460
     atom    2 type  1   force =   -39.75507994   -6.15938599    0.73294063
     atom    3 type  1   force =   -39.77924531    6.21025712   -0.80036808
     atom    4 type  1   force =    39.59884005   -6.32364875    0.70010435
     atom    5 type  1   force =    39.46057248    6.68202527   -1.08857300
     atom    6 type  2   force =    -0.33247546   -3.78984020  -14.19485656
     atom    7 type  2   force =    -1.32206740    4.00184503   14.03781230
     atom    8 type  3   force =   -52.40913745    0.01820643   -0.16804119
     atom    9 type  3   force =    51.23563663   -1.03116286   -2.07734593
     atom   10 type  3   force =   -36.07616234   -2.09008469  -23.04166196
     atom   11 type  3   force =   -35.18553285   -0.85315405   22.07890141
     atom   12 type  3   force =   -35.27009257    0.81382224  -22.10188463
     atom   13 type  3   force =   -36.15207788    2.26788412   23.09953484
     atom   14 type  3   force =    35.99180922   -2.13709989  -23.09732433
     atom   15 type  3   force =    35.03961854   -0.92757363   22.16242099
     atom   16 type  3   force =    35.17472396    0.86609295  -22.16015714
     atom   17 type  3   force =    35.84076309    2.66337266   23.41325634
     atom   18 type  4   force =    -0.29159953    4.50448304  -14.15560749
     atom   19 type  4   force =   -35.92658479    0.93978351  -25.48019126
     atom   20 type  4   force =   -36.03321435   -1.01518436   25.53924946
     atom   21 type  4   force =    35.80099321    0.93821910  -25.67962951
     atom   22 type  4   force =    35.43588537   -1.52600281   26.66902474
     atom   23 type  5   force =     5.33779283    0.86668919    1.52216144
     The local contribution  to forces
     atom    1 type  1   force =     0.37859126    4.90362327  -14.11640630
     atom    2 type  1   force =    39.89741496    6.31139109   -0.76828758
     atom    3 type  1   force =    39.92365557   -6.35500000    0.80631259
     atom    4 type  1   force =   -39.73999969    6.47409355   -0.74529935
     atom    5 type  1   force =   -39.62958672   -6.78523770    1.05705468
     atom    6 type  2   force =     0.31811883    3.80187132   14.24346167
     atom    7 type  2   force =     1.29590732   -4.08837382  -14.12933636
     atom    8 type  3   force =    52.59309103   -0.02226812    0.14468222
     atom    9 type  3   force =   -51.41284355    0.93454356    1.94640821
     atom   10 type  3   force =    36.28684479    2.04235341   23.20682067
     atom   11 type  3   force =    35.40816748    0.80713078  -22.22805932
     atom   12 type  3   force =    35.47617056   -0.74141232   22.23632705
     atom   13 type  3   force =    36.36873924   -2.21865002  -23.24288899
     atom   14 type  3   force =   -36.20309656    2.08729251   23.26601814
     atom   15 type  3   force =   -35.26804571    0.87738375  -22.29706710
     atom   16 type  3   force =   -35.37694092   -0.79490662   22.30791501
     atom   17 type  3   force =   -36.08930934   -2.58615221  -23.51460183
     atom   18 type  4   force =     0.29035895   -4.52752438   14.18394957
     atom   19 type  4   force =    35.74973896   -0.95654877   25.29917164
     atom   20 type  4   force =    35.87043586    1.03819474  -25.35187185
     atom   21 type  4   force =   -35.61169094   -0.96819439   25.49596984
     atom   22 type  4   force =   -35.28355727    1.53592183  -26.48377127
     atom   23 type  5   force =    -5.23949045   -0.74259602   -1.36737177
     The core correction contribution to forces
     atom    1 type  1   force =     0.00030688    0.00108820   -0.00099392
     atom    2 type  1   force =    -0.01153083   -0.00190289    0.00034148
     atom    3 type  1   force =    -0.01207777    0.00231450   -0.00070311
     atom    4 type  1   force =     0.01268267   -0.00150436    0.00112218
     atom    5 type  1   force =     0.01434394   -0.00124521   -0.00004669
     atom    6 type  2   force =    -0.00036356    0.00218863    0.00259814
     atom    7 type  2   force =     0.00049040   -0.00528657   -0.00310486
     atom    8 type  3   force =    -0.03088078    0.00074113    0.00025252
     atom    9 type  3   force =     0.02448836   -0.00256016   -0.00387029
     atom   10 type  3   force =    -0.02201218    0.00930662   -0.01609646
     atom   11 type  3   force =    -0.02344619    0.00932982    0.01731132
     atom   12 type  3   force =    -0.02109681   -0.00957496   -0.01504038
     atom   13 type  3   force =    -0.01995781   -0.01020514    0.01562868
     atom   14 type  3   force =     0.02086441    0.00954296   -0.01608927
     atom   15 type  3   force =     0.02397319    0.00923565    0.01640045
     atom   16 type  3   force =     0.02034553   -0.00852274   -0.01641708
     atom   17 type  3   force =     0.02345013   -0.01038439    0.01406541
     atom   18 type  4   force =     0.00008277   -0.00313366    0.00273793
     atom   19 type  4   force =    -0.00953811   -0.00009762   -0.00973144
     atom   20 type  4   force =    -0.00931174    0.00066119    0.00949924
     atom   21 type  4   force =     0.00998455   -0.00078709   -0.00967849
     atom   22 type  4   force =     0.00840882    0.00062801    0.00916012
     atom   23 type  5   force =     0.00000000    0.00000000    0.00000000
     The Hubbard contrib.    to forces
     atom    1 type  1   force =     0.00000000    0.00000000    0.00000000
     atom    2 type  1   force =     0.00000000    0.00000000    0.00000000
     atom    3 type  1   force =     0.00000000    0.00000000    0.00000000
     atom    4 type  1   force =     0.00000000    0.00000000    0.00000000
     atom    5 type  1   force =     0.00000000    0.00000000    0.00000000
     atom    6 type  2   force =     0.00000000    0.00000000    0.00000000
     atom    7 type  2   force =     0.00000000    0.00000000    0.00000000
     atom    8 type  3   force =     0.00000000    0.00000000    0.00000000
     atom    9 type  3   force =     0.00000000    0.00000000    0.00000000
     atom   10 type  3   force =     0.00000000    0.00000000    0.00000000
     atom   11 type  3   force =     0.00000000    0.00000000    0.00000000
     atom   12 type  3   force =     0.00000000    0.00000000    0.00000000
     atom   13 type  3   force =     0.00000000    0.00000000    0.00000000
     atom   14 type  3   force =     0.00000000    0.00000000    0.00000000
     atom   15 type  3   force =     0.00000000    0.00000000    0.00000000
     atom   16 type  3   force =     0.00000000    0.00000000    0.00000000
     atom   17 type  3   force =     0.00000000    0.00000000    0.00000000
     atom   18 type  4   force =     0.00000000    0.00000000    0.00000000
     atom   19 type  4   force =     0.00000000    0.00000000    0.00000000
     atom   20 type  4   force =     0.00000000    0.00000000    0.00000000
     atom   21 type  4   force =     0.00000000    0.00000000    0.00000000
     atom   22 type  4   force =     0.00000000    0.00000000    0.00000000
     atom   23 type  5   force =     0.00000000    0.00000000    0.00000000
     The SCF correction term to forces
     atom    1 type  1   force =     0.00000041    0.00013859    0.00351479
     atom    2 type  1   force =    -0.00211301    0.00059400    0.01333460
     atom    3 type  1   force =    -0.00177850   -0.00184915    0.01382343
     atom    4 type  1   force =     0.00197900    0.00116891    0.01386640
     atom    5 type  1   force =     0.00158382   -0.00174289    0.01399929
     atom    6 type  2   force =    -0.00002523    0.00608149    0.01411042
     atom    7 type  2   force =    -0.00248515    0.00066398    0.00459652
     atom    8 type  3   force =    -0.00113143    0.00133018    0.01348110
     atom    9 type  3   force =    -0.00027829    0.00072296    0.01200305
     atom   10 type  3   force =    -0.00162969    0.00416099   -0.00125288
     atom   11 type  3   force =    -0.00306126   -0.00264141   -0.00680908
     atom   12 type  3   force =    -0.00205616   -0.00455447   -0.00091916
     atom   13 type  3   force =    -0.00392641    0.00106916   -0.00813258
     atom   14 type  3   force =     0.00142936    0.00435496   -0.00139980
     atom   15 type  3   force =     0.00337869   -0.00270752   -0.00729939
     atom   16 type  3   force =     0.00066166   -0.00371378   -0.00095305
     atom   17 type  3   force =     0.00370502    0.00255668   -0.00848133
     atom   18 type  4   force =    -0.00031401   -0.00561878    0.01415652
     atom   19 type  4   force =    -0.00002644    0.00046289    0.00023675
     atom   20 type  4   force =    -0.00512731    0.00120712   -0.00733062
     atom   21 type  4   force =    -0.00068587   -0.00019922    0.00031666
     atom   22 type  4   force =     0.00350012   -0.00055322   -0.00507867
     atom   23 type  5   force =     0.00027843   -0.00001030    0.00009604

     Total force =     0.536452     Total SCF correction =     0.046185


     Computing stress (Cartesian axis) and pressure


     negative rho (up, down):  9.090E-01 9.090E-01
          total   stress  (Ry/bohr**3)                   (kbar)     P=       88.61
   0.00063238   0.00000936   0.00002309           93.03        1.38        3.40
   0.00000936   0.00070105   0.00003078            1.38      103.13        4.53
   0.00002309   0.00003078   0.00047372            3.40        4.53       69.69


     Entering Dynamics:    iteration =    20
                           time      =   0.0041 pico-seconds


ATOMIC_POSITIONS (angstrom)
Hf            2.6705110302        2.8276824757        6.6054837277
Hf            1.2521041463        1.2869911474        5.0598926325
Hf            1.2546674492        7.3907728204        5.0895787684
Hf            4.0888404123        1.2869879188        5.0599162404
Hf            4.0862827773        7.3908542004        5.0895125099
Nb            2.6706721084        2.7975299447        3.5174744958
Nb            2.6700417886        5.8776362912        6.6361983808
Ta            1.2086147240        4.3418975557        5.0726052031
Ta            4.1242409779        4.3270328687        5.0478791756
Ta            1.3074152184        1.3145926257        2.0595999795
Ta            1.3030003914        1.3088258845        8.0966867321
Ta            1.3042593250        7.3771177165        2.0471053957
Ta            1.3081235489        7.3663158269        8.0882211159
Ta            4.0334235119        1.3146725624        2.0596037607
Ta            4.0378883578        1.3088649678        8.0967276475
Ta            4.0366257696        7.3770558299        2.0471361993
Ta            4.0328227160        7.3663523278        8.0882047474
Zr            2.6704957524        5.8677319985        3.5286606957
Zr            1.2413920449        4.3228350892        1.9988396849
Zr            1.2379726392        4.3551070036        8.1539009699
Zr            4.0995857391        4.3228328037        1.9987349371
Zr            4.1029243947        4.3548328535        8.1541094053
H             4.6168076558        5.1927485813        6.4875458695


     kinetic energy (Ekin) =           4.01887533 Ry
     temperature           =       19228.18871886 K 
     Ekin + Etot (const)   =       -2939.02762036 Ry
     Ions kinetic stress =           70.98 (kbar)
                                     17.69          30.24          49.91
                                     30.24          52.39          86.46
                                     49.91          86.46         142.85



     Linear momentum :   -0.0000000000    0.0000000000   -0.0000000000

     The maximum number of steps has been reached.

     End of molecular dynamics calculation

     diffusion coefficients :
     atom     1   D =       0.00000001 cm^2/s
     atom     2   D =       0.00000001 cm^2/s
     atom     3   D =       0.00000002 cm^2/s
     atom     4   D =       0.00000002 cm^2/s
     atom     5   D =       0.00000003 cm^2/s
     atom     6   D =       0.00000002 cm^2/s
     atom     7   D =       0.00000001 cm^2/s
     atom     8   D =       0.00000002 cm^2/s
     atom     9   D =       0.00000318 cm^2/s
     atom    10   D =       0.00000000 cm^2/s
     atom    11   D =       0.00000002 cm^2/s
     atom    12   D =       0.00000001 cm^2/s
     atom    13   D =       0.00000003 cm^2/s
     atom    14   D =       0.00000001 cm^2/s
     atom    15   D =       0.00000002 cm^2/s
     atom    16   D =       0.00000001 cm^2/s
     atom    17   D =       0.00000003 cm^2/s
     atom    18   D =       0.00000002 cm^2/s
     atom    19   D =       0.00000003 cm^2/s
     atom    20   D =       0.00000010 cm^2/s
     atom    21   D =       0.00000006 cm^2/s
     atom    22   D =       0.00000012 cm^2/s
     atom    23   D =       0.00032889 cm^2/s

     < D > =       0.00001446 cm^2/s

     Writing all to output data dir outdir/pwscf.save/

     init_run     :      8.73s CPU     11.49s WALL (       1 calls)
     electrons    :   2328.47s CPU   2861.24s WALL (      20 calls)
     update_pot   :     19.14s CPU     22.62s WALL (      19 calls)
     forces       :    246.14s CPU    283.39s WALL (      20 calls)
     stress       :    382.79s CPU    414.69s WALL (      20 calls)

     Called by init_run:
     wfcinit      :      6.33s CPU      8.61s WALL (       1 calls)
     potinit      :      0.47s CPU      0.49s WALL (       1 calls)
     hinit0       :      0.93s CPU      1.04s WALL (       1 calls)

     Called by electrons:
     c_bands      :   1871.55s CPU   2316.95s WALL (     100 calls)
     sum_band     :    300.57s CPU    360.43s WALL (     100 calls)
     v_of_rho     :     10.43s CPU     12.52s WALL (     120 calls)
     newd         :    176.05s CPU    206.85s WALL (     120 calls)
     mix_rho      :      0.93s CPU      1.24s WALL (     100 calls)

     Called by c_bands:
     init_us_2    :      3.71s CPU      3.80s WALL (     482 calls)
     init_us_2:cp :      3.70s CPU      3.80s WALL (     482 calls)
     regterg      :   1857.97s CPU   2300.58s WALL (     200 calls)

     Called by *egterg:
     rdiaghg      :     66.69s CPU     83.30s WALL (    1545 calls)
     h_psi        :    943.35s CPU   1081.18s WALL (    1585 calls)
     s_psi        :    319.22s CPU    319.76s WALL (    1585 calls)
     g_psi        :      0.70s CPU      0.76s WALL (    1383 calls)

     Called by h_psi:
     h_psi:calbec :    456.05s CPU    558.48s WALL (    1585 calls)
     vloc_psi     :    102.86s CPU    137.27s WALL (    1585 calls)
     add_vuspsi   :    383.20s CPU    384.08s WALL (    1585 calls)

     General routines
     calbec       :    802.44s CPU    978.00s WALL (    1985 calls)
     fft          :      9.12s CPU     27.06s WALL (    2499 calls)
     ffts         :      0.21s CPU      0.30s WALL (     100 calls)
     fftw         :    111.40s CPU    149.78s WALL (  104878 calls)

     Parallel routines

     PWSCF        :  50m16.66s CPU      1h 0m WALL


   This run was terminated on:  19:38:52  15Jun2023            

=------------------------------------------------------------------------------=
   JOB DONE.
=------------------------------------------------------------------------------=
