
     Program PWSCF v.7.2 starts on 13Jun2023 at 15:12:40 

     This program is part of the open-source Quantum ESPRESSO suite
     for quantum simulation of materials; please cite
         "P. Giannozzi et al., J. Phys.:Condens. Matter 21 395502 (2009);
         "P. Giannozzi et al., J. Phys.:Condens. Matter 29 465901 (2017);
         "P. Giannozzi et al., J. Chem. Phys. 152 154105 (2020);
          URL http://www.quantum-espresso.org", 
     in publications or presentations arising from this work. More details at
     http://www.quantum-espresso.org/quote

     Parallel version (MPI), running on    42 processors

     MPI processes distributed on     1 nodes
     179511 MiB available memory on the printing compute node when the environment starts

     Reading input from md_data/md_Hf5Nb2Ta10Zr5H_20steps_100eV_incident60_polar30.in
Warning: card &CELL ignored
Warning: card / ignored

     Current dimensions of program PWSCF are:
     Max number of different atomic species (ntypx) = 10
     Max number of k-points (npk) =  40000
     Max angular momentum in pseudopotentials (lmaxx) =  4

     File outdir/pwscf.md deleted, as requested

     gamma-point specific algorithms are used

     R & G space division:  proc/nbgrp/npool/nimage =      42
     Subspace diagonalization in iterative solution of the eigenvalue problem:
     one sub-group per band group will be used
     custom distributed-memory algorithm (size of sub-group:  2*  2 procs)


     Parallelization info
     --------------------
     sticks:   dense  smooth     PW     G-vecs:    dense   smooth      PW
     Min         262     262     63                23470    23470    2920
     Max         265     265     66                23484    23484    2942
     Sum       11057   11057   2753               986005   986005  123175

     Using Slab Decomposition



     bravais-lattice index     =            0
     lattice parameter (alat)  =      17.6500  a.u.
     unit-cell volume          =    5552.8853 (a.u.)^3
     number of atoms/cell      =           23
     number of atomic types    =            5
     number of electrons       =       277.00
     number of Kohn-Sham states=          167
     kinetic-energy cutoff     =     120.0000  Ry
     charge density cutoff     =     480.0000  Ry
     scf convergence threshold =      1.0E-03
     mixing beta               =       0.7000
     number of iterations used =            8  TF        mixing
     energy convergence thresh.=      0.0E+00
     force convergence thresh. =      0.0E+00
     Exchange-correlation=  SLA  PW   PBX  PBC
                           (   1   4   3   4   0   0   0)
     nstep                     =           20


     celldm(1)=  17.650041  celldm(2)=   0.000000  celldm(3)=   0.000000
     celldm(4)=   0.000000  celldm(5)=   0.000000  celldm(6)=   0.000000

     crystal axes: (cart. coord. in units of alat)
               a(1) = (   1.000000   0.000000   0.000000 )  
               a(2) = (   0.000000   0.929336   0.000000 )  
               a(3) = (   0.000000   0.000000   1.086698 )  

     reciprocal axes: (cart. coord. in units 2 pi/alat)
               b(1) = (  1.000000  0.000000  0.000000 )  
               b(2) = (  0.000000  1.076037  0.000000 )  
               b(3) = (  0.000000  0.000000  0.920219 )  


     PseudoPot. # 1 for Hf read from file:
     q-e/pseudo/hf_pbe_v1.uspp.F.UPF
     MD5 check sum: 8ee9378dfe14276e333edf04c5e4aa26
     Pseudo is Ultrasoft + core correction, Zval = 12.0
     Generated by new atomic code, or converted to UPF format
     Using radial grid of  921 points,  8 beta functions with: 
                l(1) =   0
                l(2) =   0
                l(3) =   0
                l(4) =   1
                l(5) =   1
                l(6) =   2
                l(7) =   2
                l(8) =   3
     Q(r) pseudized with  6 coefficients,  rinner =    1.200   1.200   1.200
                                                       1.200   1.200   1.200
                                                       1.200

     PseudoPot. # 2 for Nb read from file:
     q-e/pseudo/nb_pbe_v1.uspp.F.UPF
     MD5 check sum: 573aab8a2fa660278ed4a62cd769473f
     Pseudo is Ultrasoft + core correction, Zval = 13.0
     Generated by new atomic code, or converted to UPF format
     Using radial grid of  887 points,  6 beta functions with: 
                l(1) =   0
                l(2) =   0
                l(3) =   1
                l(4) =   1
                l(5) =   2
                l(6) =   2
     Q(r) pseudized with  6 coefficients,  rinner =    1.000   1.000   1.000
                                                       1.000   1.000

     PseudoPot. # 3 for Ta read from file:
     q-e/pseudo/ta_pbe_v1.uspp.F.UPF
     MD5 check sum: f8bbe9446314a3b8ea5d9f3e3836c939
     Pseudo is Ultrasoft + core correction, Zval = 13.0
     Generated by new atomic code, or converted to UPF format
     Using radial grid of  921 points,  7 beta functions with: 
                l(1) =   0
                l(2) =   0
                l(3) =   1
                l(4) =   1
                l(5) =   2
                l(6) =   2
                l(7) =   3
     Q(r) pseudized with  6 coefficients,  rinner =    1.300   1.300   1.300
                                                       1.300   1.300   1.300
                                                       1.300

     PseudoPot. # 4 for Zr read from file:
     q-e/pseudo/zr_pbe_v1.uspp.F.UPF
     MD5 check sum: 5db81b1e868ab7776c4564c113de050b
     Pseudo is Ultrasoft + core correction, Zval = 12.0
     Generated by new atomic code, or converted to UPF format
     Using radial grid of  887 points,  6 beta functions with: 
                l(1) =   0
                l(2) =   0
                l(3) =   1
                l(4) =   1
                l(5) =   2
                l(6) =   2
     Q(r) pseudized with  6 coefficients,  rinner =    1.200   1.200   1.200
                                                       1.200   1.200

     PseudoPot. # 5 for H  read from file:
     q-e/pseudo/h_pbe_v1.4.uspp.F.UPF
     MD5 check sum: 761ae9a214b05c3daf00ab9f6b793d6f
     Pseudo is Ultrasoft, Zval =  1.0
     Generated by new atomic code, or converted to UPF format
     Using radial grid of  615 points,  2 beta functions with: 
                l(1) =   0
                l(2) =   0
     Q(r) pseudized with  8 coefficients,  rinner =    0.700

     atomic species   valence    mass     pseudopotential
        Hf            12.00   178.49000     Hf( 1.00)
        Nb            13.00    92.90637     Nb( 1.00)
        Ta            13.00   180.94788     Ta( 1.00)
        Zr            12.00    91.22400     Zr( 1.00)
        H              1.00     2.01400     H ( 1.00)

     Starting magnetic structure 
     atomic species   magnetization
        Hf           0.000
        Nb           0.000
        Ta           0.000
        Zr           0.000
        H            0.000

     No symmetry found



   Cartesian axes

     site n.     atom                  positions (alat units)
         1           Hf  tau(   1) = (   0.2858672   0.3026898   0.7070626  )
         2           Hf  tau(   2) = (   0.1341532   0.1377178   0.5415917  )
         3           Hf  tau(   3) = (   0.1344204   0.7911996   0.5447610  )
         4           Hf  tau(   4) = (   0.4375813   0.1377178   0.5415917  )
         5           Hf  tau(   5) = (   0.4373140   0.7911996   0.5447610  )
         6           Nb  tau(   6) = (   0.2858672   0.2994572   0.3764008  )
         7           Nb  tau(   7) = (   0.2858672   0.6291626   0.7103852  )
         8           Ta  tau(   8) = (   0.1294832   0.4647675   0.5429471  )
         9           Ta  tau(   9) = (   0.4422513   0.4647675   0.5429471  )
        10           Ta  tau(  10) = (   0.1399628   0.1406984   0.2204260  )
        11           Ta  tau(  11) = (   0.1394848   0.1400847   0.8666573  )
        12           Ta  tau(  12) = (   0.1396156   0.7897030   0.2190832  )
        13           Ta  tau(  13) = (   0.1400119   0.7885528   0.8657390  )
        14           Ta  tau(  14) = (   0.4317717   0.1406984   0.2204260  )
        15           Ta  tau(  15) = (   0.4322496   0.1400847   0.8666573  )
        16           Ta  tau(  16) = (   0.4321189   0.7897030   0.2190832  )
        17           Ta  tau(  17) = (   0.4317226   0.7885528   0.8657390  )
        18           Zr  tau(  18) = (   0.2858672   0.6280820   0.3776642  )
        19           Zr  tau(  19) = (   0.1331729   0.4627493   0.2141328  )
        20           Zr  tau(  20) = (   0.1328036   0.4661802   0.8725649  )
        21           Zr  tau(  21) = (   0.4385616   0.4627493   0.2141328  )
        22           Zr  tau(  22) = (   0.4389309   0.4661802   0.8725649  )
        23           H   tau(  23) = (   0.5493177   0.6252677   0.6357822  )

     number of k points=     1  Gaussian smearing, width (Ry)=  0.0220
                       cart. coord. in units 2pi/alat
        k(    1) = (   0.0000000   0.0000000   0.0000000), wk =   1.0000000

     Dense  grid:   493003 G-vectors     FFT dimensions: ( 125, 120, 135)

     Estimated max dynamical RAM per process >     133.03 MB

     Estimated total dynamical RAM >       5.46 GB

     Check: negative core charge=   -0.000002
     Generating pointlists ...
     new r_m :   0.0907 (alat units)  1.6011 (a.u.) for type    1
     new r_m :   0.1098 (alat units)  1.9374 (a.u.) for type    2
     new r_m :   0.0883 (alat units)  1.5588 (a.u.) for type    3
     new r_m :   0.1112 (alat units)  1.9625 (a.u.) for type    4
     new r_m :   0.0883 (alat units)  1.5588 (a.u.) for type    5

     Initial potential from superposition of free atoms

     starting charge     266.9726, renormalised to     277.0000

     negative rho (up, down):  9.216E-01 9.216E-01
     Starting wfcs are  287 randomized atomic wfcs

     total cpu time spent up to now is       26.1 secs

     Self-consistent Calculation

     iteration #  1     ecut=   120.00 Ry     beta= 0.70
     Davidson diagonalization with overlap
     ethr =  1.00E-02,  avg # of iterations =  2.0

     negative rho (up, down):  9.947E-01 9.943E-01

     total cpu time spent up to now is       57.8 secs

     total energy              =   -2930.58010997 Ry
     estimated scf accuracy    <     276.71264984 Ry

     total magnetization       =    -0.00 Bohr mag/cell
     absolute magnetization    =     0.09 Bohr mag/cell

     iteration #  2     ecut=   120.00 Ry     beta= 0.70
     Davidson diagonalization with overlap
     ethr =  1.00E-02,  avg # of iterations =  5.0

     negative rho (up, down):  9.696E-01 9.685E-01

     total cpu time spent up to now is       79.9 secs

     total energy              =   -2942.26123879 Ry
     estimated scf accuracy    <      29.75433736 Ry

     total magnetization       =    -0.04 Bohr mag/cell
     absolute magnetization    =     0.22 Bohr mag/cell

     iteration #  3     ecut=   120.00 Ry     beta= 0.70
     Davidson diagonalization with overlap
     ethr =  1.00E-02,  avg # of iterations =  2.0

     negative rho (up, down):  1.005E+00 1.004E+00

     total cpu time spent up to now is       98.0 secs

     total energy              =   -2942.69972883 Ry
     estimated scf accuracy    <      12.79648660 Ry

     total magnetization       =    -0.03 Bohr mag/cell
     absolute magnetization    =     0.28 Bohr mag/cell

     iteration #  4     ecut=   120.00 Ry     beta= 0.70
     Davidson diagonalization with overlap
     ethr =  4.62E-03,  avg # of iterations =  4.0

     negative rho (up, down):  1.012E+00 1.009E+00

     total cpu time spent up to now is      116.8 secs

     total energy              =   -2942.92403237 Ry
     estimated scf accuracy    <       3.14496458 Ry

     total magnetization       =    -0.03 Bohr mag/cell
     absolute magnetization    =     0.33 Bohr mag/cell

     iteration #  5     ecut=   120.00 Ry     beta= 0.70
     Davidson diagonalization with overlap
     ethr =  1.14E-03,  avg # of iterations =  8.0

     negative rho (up, down):  9.848E-01 9.827E-01

     total cpu time spent up to now is      141.5 secs

     total energy              =   -2943.08287060 Ry
     estimated scf accuracy    <       1.51721682 Ry

     total magnetization       =    -0.02 Bohr mag/cell
     absolute magnetization    =     0.18 Bohr mag/cell

     iteration #  6     ecut=   120.00 Ry     beta= 0.70
     Davidson diagonalization with overlap
     ethr =  5.48E-04,  avg # of iterations =  2.0

     negative rho (up, down):  9.723E-01 9.710E-01

     total cpu time spent up to now is      159.5 secs

     total energy              =   -2943.12649147 Ry
     estimated scf accuracy    <       1.15568595 Ry

     total magnetization       =    -0.01 Bohr mag/cell
     absolute magnetization    =     0.13 Bohr mag/cell

     iteration #  7     ecut=   120.00 Ry     beta= 0.70
     Davidson diagonalization with overlap
     ethr =  4.17E-04,  avg # of iterations =  2.0

     negative rho (up, down):  9.468E-01 9.464E-01

     total cpu time spent up to now is      176.8 secs

     total energy              =   -2943.07698811 Ry
     estimated scf accuracy    <       0.40949000 Ry

     total magnetization       =    -0.00 Bohr mag/cell
     absolute magnetization    =     0.12 Bohr mag/cell

     iteration #  8     ecut=   120.00 Ry     beta= 0.70
     Davidson diagonalization with overlap
     ethr =  1.48E-04,  avg # of iterations =  6.5

     negative rho (up, down):  9.211E-01 9.211E-01

     total cpu time spent up to now is      195.7 secs

     total energy              =   -2943.07951232 Ry
     estimated scf accuracy    <       0.20160190 Ry

     total magnetization       =     0.01 Bohr mag/cell
     absolute magnetization    =     0.09 Bohr mag/cell

     iteration #  9     ecut=   120.00 Ry     beta= 0.70
     Davidson diagonalization with overlap
     ethr =  7.28E-05,  avg # of iterations =  9.0

     negative rho (up, down):  9.086E-01 9.088E-01

     total cpu time spent up to now is      215.7 secs

     total energy              =   -2943.07344204 Ry
     estimated scf accuracy    <       0.06482170 Ry

     total magnetization       =     0.01 Bohr mag/cell
     absolute magnetization    =     0.07 Bohr mag/cell

     iteration # 10     ecut=   120.00 Ry     beta= 0.70
     Davidson diagonalization with overlap
     ethr =  2.34E-05,  avg # of iterations =  8.5

     negative rho (up, down):  9.083E-01 9.083E-01

     total cpu time spent up to now is      260.2 secs

     total energy              =   -2943.07680221 Ry
     estimated scf accuracy    <       0.04707672 Ry

     total magnetization       =     0.02 Bohr mag/cell
     absolute magnetization    =     0.06 Bohr mag/cell

     iteration # 11     ecut=   120.00 Ry     beta= 0.70
     Davidson diagonalization with overlap
     ethr =  1.70E-05,  avg # of iterations =  2.0

     negative rho (up, down):  9.091E-01 9.091E-01

     total cpu time spent up to now is      294.1 secs

     total energy              =   -2943.08105802 Ry
     estimated scf accuracy    <       0.00953772 Ry

     total magnetization       =     0.02 Bohr mag/cell
     absolute magnetization    =     0.05 Bohr mag/cell

     iteration # 12     ecut=   120.00 Ry     beta= 0.70
     Davidson diagonalization with overlap
     ethr =  3.44E-06,  avg # of iterations = 15.0

     negative rho (up, down):  9.092E-01 9.092E-01

     total cpu time spent up to now is      316.7 secs

     total energy              =   -2943.08384768 Ry
     estimated scf accuracy    <       0.00173496 Ry

     total magnetization       =     0.02 Bohr mag/cell
     absolute magnetization    =     0.04 Bohr mag/cell

     iteration # 13     ecut=   120.00 Ry     beta= 0.70
     Davidson diagonalization with overlap
     ethr =  6.26E-07,  avg # of iterations =  4.0

     negative rho (up, down):  9.089E-01 9.089E-01

     Magnetic moment per site  (integrated on atomic sphere of radius R)
     atom   1 (R=0.091)  charge=  7.7968  magn=  0.0002
     atom   2 (R=0.091)  charge=  7.6305  magn=  0.0002
     atom   3 (R=0.091)  charge=  7.6303  magn=  0.0000
     atom   4 (R=0.091)  charge=  7.6304  magn=  0.0001
     atom   5 (R=0.091)  charge=  7.6366  magn=  0.0003
     atom   6 (R=0.110)  charge= 10.3481  magn=  0.0005
     atom   7 (R=0.110)  charge= 10.3565  magn=  0.0003
     atom   8 (R=0.088)  charge=  8.1242  magn=  0.0003
     atom   9 (R=0.088)  charge=  8.1291  magn=  0.0005
     atom  10 (R=0.088)  charge=  8.1034  magn=  0.0005
     atom  11 (R=0.088)  charge=  8.1033  magn=  0.0006
     atom  12 (R=0.088)  charge=  8.1047  magn=  0.0004
     atom  13 (R=0.088)  charge=  8.1029  magn= -0.0001
     atom  14 (R=0.088)  charge=  8.1045  magn= -0.0003
     atom  15 (R=0.088)  charge=  8.0985  magn=  0.0001
     atom  16 (R=0.088)  charge=  8.1036  magn=  0.0001
     atom  17 (R=0.088)  charge=  8.1092  magn= -0.0003
     atom  18 (R=0.111)  charge=  9.4530  magn=  0.0002
     atom  19 (R=0.111)  charge=  8.9985  magn= -0.0005
     atom  20 (R=0.111)  charge=  8.9941  magn=  0.0000
     atom  21 (R=0.111)  charge=  8.9970  magn= -0.0009
     atom  22 (R=0.111)  charge=  9.0004  magn= -0.0005
     atom  23 (R=0.088)  charge=  1.0974  magn=  0.0000

     total cpu time spent up to now is      336.5 secs

     End of self-consistent calculation

 ------ SPIN UP ------------


          k = 0.0000 0.0000 0.0000 ( 61588 PWs)   bands (ev):

   -60.7915 -60.7673 -60.7453 -60.7247 -60.6898 -60.6863 -60.6458 -60.6402
   -60.5655 -60.4698 -54.3595 -54.2753 -54.2307 -54.1396 -52.6992 -46.3420
   -46.2506 -41.6710 -41.6291 -41.5674 -41.5276 -39.7915 -27.7864 -27.7647
   -27.6969 -27.6805 -27.6059 -27.5778 -27.4571 -27.4494 -27.4217 -27.3431
   -27.3136 -27.2741 -27.2592 -27.2394 -27.2175 -27.1803 -27.1581 -27.1520
   -27.1306 -27.0942 -27.0722 -27.0227 -26.9720 -26.9471 -26.9437 -26.9230
   -26.8867 -26.8697 -26.8433 -26.8402 -24.1460 -23.9237 -23.6426 -23.5312
   -23.2889 -23.1764 -23.1306 -23.0491 -22.9042 -22.8156 -22.8004 -22.5681
   -22.5474 -22.4600 -22.4130 -22.3787 -22.2693 -22.2299 -21.7576 -21.6941
   -21.6252 -20.1913 -19.9656 -19.8326 -19.8228 -19.6841 -19.6225 -19.6071
   -19.5954 -19.5742 -19.5434 -19.3803 -19.3635 -18.1383 -17.9342 -17.8076
     1.0386   2.1064   2.9393   3.1350   3.3467   3.3568   3.5073   3.6276
     3.6827   3.8119   3.9109   4.0511   4.1403   4.5066   4.6322   4.7009
     4.7367   4.8548   5.0452   5.1181   5.2225   5.2677   5.2901   5.3752
     5.4066   5.5372   5.5745   5.7076   5.7315   5.7558   5.7618   5.8295
     5.9728   6.0657   6.1714   6.2139   6.2755   6.3109   6.3561   6.4114
     6.4410   6.5841   6.6584   6.7064   6.9098   6.9786   7.0217   7.1123
     7.1171   7.1622   7.2713   7.3120   7.3457   7.4650   7.5526   7.5804
     7.6194   7.8377   7.8818   7.9010   8.0748   8.0895   8.1147   8.1928
     8.2395   8.2726   8.3493   8.3722   8.4391   8.5511   8.6367   8.6883
     8.8498   8.9155   8.9833   9.0705   9.1301   9.2433   9.2784

 ------ SPIN DOWN ----------


          k = 0.0000 0.0000 0.0000 ( 61588 PWs)   bands (ev):

   -60.7916 -60.7672 -60.7453 -60.7244 -60.6898 -60.6861 -60.6455 -60.6398
   -60.5650 -60.4692 -54.3594 -54.2751 -54.2305 -54.1393 -52.6990 -46.3417
   -46.2498 -41.6715 -41.6301 -41.5676 -41.5285 -39.7911 -27.7863 -27.7645
   -27.6967 -27.6803 -27.6059 -27.5775 -27.4568 -27.4491 -27.4213 -27.3432
   -27.3136 -27.2741 -27.2590 -27.2391 -27.2176 -27.1796 -27.1579 -27.1516
   -27.1300 -27.0934 -27.0713 -27.0221 -26.9720 -26.9470 -26.9435 -26.9229
   -26.8862 -26.8694 -26.8431 -26.8399 -24.1455 -23.9233 -23.6422 -23.5309
   -23.2885 -23.1761 -23.1302 -23.0487 -22.9038 -22.8153 -22.8001 -22.5679
   -22.5470 -22.4593 -22.4127 -22.3783 -22.2687 -22.2294 -21.7573 -21.6938
   -21.6248 -20.1922 -19.9661 -19.8338 -19.8237 -19.6845 -19.6231 -19.6072
   -19.5960 -19.5751 -19.5439 -19.3807 -19.3646 -18.1379 -17.9339 -17.8074
     1.0391   2.1069   2.9398   3.1354   3.3474   3.3572   3.5078   3.6281
     3.6831   3.8124   3.9112   4.0513   4.1407   4.5071   4.6326   4.7014
     4.7372   4.8555   5.0456   5.1182   5.2231   5.2679   5.2903   5.3757
     5.4073   5.5376   5.5748   5.7080   5.7316   5.7558   5.7622   5.8298
     5.9730   6.0660   6.1718   6.2141   6.2758   6.3114   6.3564   6.4115
     6.4416   6.5844   6.6586   6.7067   6.9102   6.9786   7.0228   7.1133
     7.1190   7.1621   7.2730   7.3125   7.3464   7.4657   7.5522   7.5813
     7.6201   7.8381   7.8824   7.9012   8.0753   8.0904   8.1150   8.1941
     8.2403   8.2730   8.3503   8.3725   8.4398   8.5511   8.6367   8.6885
     8.8503   8.9165   8.9828   9.0705   9.1301   9.2436   9.2742

     the Fermi energy is     7.2606 ev

!    total energy              =   -2943.08498693 Ry
     estimated scf accuracy    <       0.00044771 Ry
     smearing contrib. (-TS)   =      -0.10227178 Ry
     internal energy E=F+TS    =   -2942.98271515 Ry

     total magnetization       =     0.01 Bohr mag/cell
     absolute magnetization    =     0.03 Bohr mag/cell

     convergence has been achieved in  13 iterations

     negative rho (up, down):  9.089E-01 9.089E-01

     Forces acting on atoms (cartesian axes, Ry/au):

     atom    1 type  1   force =     0.00029086   -0.02252903    0.00291829
     atom    2 type  1   force =    -0.11810462   -0.01520525   -0.00241840
     atom    3 type  1   force =    -0.11239082    0.01248612    0.00447395
     atom    4 type  1   force =     0.12149580   -0.00499827   -0.00419673
     atom    5 type  1   force =     0.10993337    0.00219641   -0.00949935
     atom    6 type  2   force =    -0.00605969   -0.01967034    0.00957842
     atom    7 type  2   force =    -0.01861347    0.01024136   -0.02316470
     atom    8 type  3   force =    -0.10335298    0.00327794   -0.00280157
     atom    9 type  3   force =     0.11565590    0.01114880   -0.01223213
     atom   10 type  3   force =    -0.02169801   -0.03005293   -0.05887110
     atom   11 type  3   force =    -0.02255701   -0.03448681    0.05486005
     atom   12 type  3   force =    -0.01758110    0.03417010   -0.05322956
     atom   13 type  3   force =    -0.00557156    0.02961729    0.06315504
     atom   14 type  3   force =     0.02108321   -0.03072255   -0.05833301
     atom   15 type  3   force =     0.02030658   -0.03901263    0.06268147
     atom   16 type  3   force =     0.01831395    0.03960979   -0.05278863
     atom   17 type  3   force =     0.01140605    0.04962197    0.06420254
     atom   18 type  4   force =    -0.00095345    0.02237546   -0.00693508
     atom   19 type  4   force =    -0.12862249   -0.00578357   -0.11597067
     atom   20 type  4   force =    -0.12460300    0.00614697    0.11897373
     atom   21 type  4   force =     0.12638656   -0.00781209   -0.11404382
     atom   22 type  4   force =     0.12835004   -0.00307165    0.11850270
     atom   23 type  5   force =     0.00688587   -0.00754710    0.01513854
     The non-local contrib.  to forces
     atom    1 type  1   force =     0.00361780   -0.00814180    0.02779096
     atom    2 type  1   force =    -0.25024102   -0.15917319    0.01436293
     atom    3 type  1   force =    -0.23582876    0.15136266   -0.01484488
     atom    4 type  1   force =     0.24528479   -0.16933773    0.02059157
     atom    5 type  1   force =     0.19857167    0.16466949   -0.01392580
     atom    6 type  2   force =     0.00345914   -0.04903611   -0.06598129
     atom    7 type  2   force =    -0.00818950    0.06735487    0.07657491
     atom    8 type  3   force =    -0.25280352    0.00832168    0.00418145
     atom    9 type  3   force =     0.20867157   -0.00797492    0.01087976
     atom   10 type  3   force =    -0.21213006    0.00597338   -0.20559090
     atom   11 type  3   force =    -0.21666729    0.00349209    0.19583786
     atom   12 type  3   force =    -0.20607566   -0.02339054   -0.17663499
     atom   13 type  3   force =    -0.20542677   -0.00770354    0.19753651
     atom   14 type  3   force =     0.21443547    0.00371008   -0.21222579
     atom   15 type  3   force =     0.21966069    0.00646842    0.19350725
     atom   16 type  3   force =     0.20329752   -0.01903684   -0.18388236
     atom   17 type  3   force =     0.25181312   -0.04135798    0.14648570
     atom   18 type  4   force =    -0.00548348    0.05737136   -0.06099777
     atom   19 type  4   force =     0.06124729    0.00928591    0.07432928
     atom   20 type  4   force =     0.05686154   -0.02076693   -0.06623866
     atom   21 type  4   force =    -0.05893198    0.01366143    0.07200907
     atom   22 type  4   force =    -0.06252515   -0.01165263   -0.05651683
     atom   23 type  5   force =    -0.03209049   -0.00501367   -0.01926263
     The ionic contribution  to forces
     atom    1 type  1   force =    -0.21745488   -4.76404274   14.02362496
     atom    2 type  1   force =   -39.71986225   -6.09720015    0.73432875
     atom    3 type  1   force =   -39.78834680    6.21080409   -0.79349243
     atom    4 type  1   force =    39.55302078   -6.05565307    0.68435475
     atom    5 type  1   force =    38.84770985    7.23019226   -1.35963136
     atom    6 type  2   force =    -0.13700843   -3.63469703  -14.00312974
     atom    7 type  2   force =    -0.96207578    3.57087553   14.16782085
     atom    8 type  3   force =   -52.23869631   -0.04411018   -0.15129318
     atom    9 type  3   force =    51.19505663   -1.21845005   -0.83816448
     atom   10 type  3   force =   -36.07204626   -2.07361989  -23.07567123
     atom   11 type  3   force =   -35.16852407   -0.82145221   22.11177363
     atom   12 type  3   force =   -35.27672935    0.82648866  -22.15806602
     atom   13 type  3   force =   -36.13375555    2.25208408   23.15011253
     atom   14 type  3   force =    35.99239302   -2.06700911  -23.11755782
     atom   15 type  3   force =    35.02957490   -0.79936134   22.19276836
     atom   16 type  3   force =    35.13734468    0.88545544  -22.28496691
     atom   17 type  3   force =    35.69793791    2.58050752   23.62268583
     atom   18 type  4   force =    -0.32543984    4.33537747  -14.15775925
     atom   19 type  4   force =   -35.92358266    0.91796948  -25.54815979
     atom   20 type  4   force =   -35.96225330   -1.02779386   25.58637165
     atom   21 type  4   force =    35.80379995    0.86418834  -25.66422334
     atom   22 type  4   force =    35.58892816   -1.32514422   26.03796710
     atom   23 type  5   force =     5.08000960    0.25459095    0.84030715
     The local contribution  to forces
     atom    1 type  1   force =     0.21203943    4.75094596  -14.05427452
     atom    2 type  1   force =    39.87294941    6.23911180   -0.75154592
     atom    3 type  1   force =    39.93183845   -6.34796566    0.81240747
     atom    4 type  1   force =   -39.69904953    6.22159372   -0.71464861
     atom    5 type  1   force =   -38.94914285   -7.39807032    1.36538163
     atom    6 type  2   force =     0.13203457    3.66674294   14.07469748
     atom    7 type  2   force =     0.95263054   -3.62810740  -14.27003254
     atom    8 type  3   force =    52.42126976    0.03763779    0.14155357
     atom    9 type  3   force =   -51.30976252    1.24261780    0.81090635
     atom   10 type  3   force =    36.28731264    2.03360446   23.24398010
     atom   11 type  3   force =    35.38638525    0.77800737  -22.27674221
     atom   12 type  3   force =    35.48978599   -0.76075804   22.30129936
     atom   13 type  3   force =    36.35761873   -2.20592260  -23.30458630
     atom   14 type  3   force =   -36.20682759    2.02681861   23.29371025
     atom   15 type  3   force =   -35.25884133    0.74686525  -22.34592084
     atom   16 type  3   force =   -35.34330109   -0.81969953   22.43735068
     atom   17 type  3   force =   -35.96636601   -2.48713005  -23.72229431
     atom   18 type  4   force =     0.33491590   -4.37257856   14.20938614
     atom   19 type  4   force =    35.74468517   -0.93520596   25.37368316
     atom   20 type  4   force =    35.78994301    1.05214232  -25.41636343
     atom   21 type  4   force =   -35.62575339   -0.88684170   25.49620662
     atom   22 type  4   force =   -35.40780193    1.33497113  -25.87764613
     atom   23 type  5   force =    -5.04134106   -0.25787155   -0.80662572
     The core correction contribution to forces
     atom    1 type  1   force =     0.00047445    0.00189813   -0.00047260
     atom    2 type  1   force =    -0.01139696   -0.00102026    0.00033813
     atom    3 type  1   force =    -0.01103749    0.00261795   -0.00054312
     atom    4 type  1   force =     0.01238977   -0.00266048    0.00152631
     atom    5 type  1   force =     0.00468896    0.00633660   -0.00345120
     atom    6 type  2   force =    -0.00022445    0.00240807    0.00280251
     atom    7 type  2   force =     0.00131448   -0.00352662   -0.00344675
     atom    8 type  3   force =    -0.03047385    0.00074292    0.00082833
     atom    9 type  3   force =     0.02226908   -0.00577976   -0.00124428
     atom   10 type  3   force =    -0.02283474    0.00911926   -0.01662692
     atom   11 type  3   force =    -0.02392671    0.00881210    0.01773525
     atom   12 type  3   force =    -0.02161316   -0.01010815   -0.01548513
     atom   13 type  3   force =    -0.02144283   -0.01004346    0.01554957
     atom   14 type  3   force =     0.02150410    0.00985474   -0.01645275
     atom   15 type  3   force =     0.02359326    0.00963030    0.01693602
     atom   16 type  3   force =     0.02196576   -0.00992692   -0.01601440
     atom   17 type  3   force =     0.02480276   -0.00972471    0.01224292
     atom   18 type  4   force =     0.00033382   -0.00312415    0.00294923
     atom   19 type  4   force =    -0.00976073    0.00001438   -0.00963726
     atom   20 type  4   force =    -0.00961688    0.00077416    0.00921928
     atom   21 type  4   force =     0.00959206   -0.00019193   -0.00947192
     atom   22 type  4   force =     0.01033262    0.00076319    0.00797072
     atom   23 type  5   force =     0.00000000    0.00000000    0.00000000
     The Hubbard contrib.    to forces
     atom    1 type  1   force =     0.00000000    0.00000000    0.00000000
     atom    2 type  1   force =     0.00000000    0.00000000    0.00000000
     atom    3 type  1   force =     0.00000000    0.00000000    0.00000000
     atom    4 type  1   force =     0.00000000    0.00000000    0.00000000
     atom    5 type  1   force =     0.00000000    0.00000000    0.00000000
     atom    6 type  2   force =     0.00000000    0.00000000    0.00000000
     atom    7 type  2   force =     0.00000000    0.00000000    0.00000000
     atom    8 type  3   force =     0.00000000    0.00000000    0.00000000
     atom    9 type  3   force =     0.00000000    0.00000000    0.00000000
     atom   10 type  3   force =     0.00000000    0.00000000    0.00000000
     atom   11 type  3   force =     0.00000000    0.00000000    0.00000000
     atom   12 type  3   force =     0.00000000    0.00000000    0.00000000
     atom   13 type  3   force =     0.00000000    0.00000000    0.00000000
     atom   14 type  3   force =     0.00000000    0.00000000    0.00000000
     atom   15 type  3   force =     0.00000000    0.00000000    0.00000000
     atom   16 type  3   force =     0.00000000    0.00000000    0.00000000
     atom   17 type  3   force =     0.00000000    0.00000000    0.00000000
     atom   18 type  4   force =     0.00000000    0.00000000    0.00000000
     atom   19 type  4   force =     0.00000000    0.00000000    0.00000000
     atom   20 type  4   force =     0.00000000    0.00000000    0.00000000
     atom   21 type  4   force =     0.00000000    0.00000000    0.00000000
     atom   22 type  4   force =     0.00000000    0.00000000    0.00000000
     atom   23 type  5   force =     0.00000000    0.00000000    0.00000000
     The SCF correction term to forces
     atom    1 type  1   force =     0.00174072   -0.00318801    0.00600688
     atom    2 type  1   force =    -0.00942715    0.00307712   -0.00014489
     atom    3 type  1   force =    -0.00888956   -0.00433236    0.00070431
     atom    4 type  1   force =     0.00997665    0.00105986    0.00373665
     atom    5 type  1   force =     0.00823238   -0.00093105    0.00188478
     atom    6 type  2   force =    -0.00419386   -0.00508765    0.00094687
     atom    7 type  2   force =    -0.00216655    0.00364555    0.00567623
     atom    8 type  3   force =    -0.00252241    0.00068630    0.00168565
     atom    9 type  3   force =    -0.00045220    0.00073630    0.00514792
     atom   10 type  3   force =    -0.00187294   -0.00512957   -0.00520475
     atom   11 type  3   force =     0.00030247   -0.00334559    0.00601290
     atom   12 type  3   force =    -0.00282226    0.00193874   -0.00458538
     atom   13 type  3   force =    -0.00243849    0.00120337    0.00430013
     atom   14 type  3   force =    -0.00029513   -0.00409629   -0.00604950
     atom   15 type  3   force =     0.00644572   -0.00261469    0.00514809
     atom   16 type  3   force =    -0.00086626    0.00281820   -0.00551826
     atom   17 type  3   force =     0.00334492    0.00732776    0.00483979
     atom   18 type  4   force =    -0.00515319    0.00532991   -0.00075603
     atom   19 type  4   force =    -0.00108492    0.00215320   -0.00642865
     atom   20 type  4   force =     0.00058929    0.00179185    0.00574229
     atom   21 type  4   force =    -0.00219342    0.00137234   -0.00880685
     atom   22 type  4   force =    -0.00045700   -0.00200855    0.00648523
     atom   23 type  5   force =     0.00043448    0.00074774    0.00047714

     Total force =     0.491281     Total SCF correction =     0.035408


     Computing stress (Cartesian axis) and pressure


     negative rho (up, down):  9.089E-01 9.089E-01
          total   stress  (Ry/bohr**3)                   (kbar)     P=       83.82
   0.00064055   0.00000114   0.00000765           94.23        0.17        1.13
   0.00000114   0.00067123  -0.00000305            0.17       98.74       -0.45
   0.00000765  -0.00000305   0.00039768            1.13       -0.45       58.50


     Molecular Dynamics Calculation

     Starting temperature  =   300.00 K

     temperature is set once at start

     mass Hf               =   178.49
     mass Nb               =    92.91
     mass Ta               =   180.95
     mass Zr               =    91.22
     mass H                =     2.01
     Time step             =     4.20 a.u.,  0.2032 femto-seconds

     Entering Dynamics:    iteration =     1
                           time      =   0.0002 pico-seconds


ATOMIC_POSITIONS (angstrom)
Hf            2.6700628165        2.8272166596        6.6040187385
Hf            1.2530501430        1.2863780219        5.0585205929
Hf            1.2555465253        7.3898989297        5.0881223320
Hf            4.0870755706        1.2863783147        5.0585205419
Hf            4.0845790205        7.3898986345        5.0881219311
Nb            2.6700624741        2.7970237980        3.5156381808
Nb            2.6700617822        5.8764735175        6.6350511026
Ta            1.2094329822        4.3410222211        5.0711801892
Ta            4.1306929822        4.3410224438        5.0711799223
Ta            1.3073149212        1.3142160156        2.0588318802
Ta            1.3028505270        1.3084844367        8.0946351911
Ta            1.3040719757        7.3759213678        2.0462901096
Ta            1.3077734919        7.3651780633        8.0860584443
Ta            4.0328106777        1.3142159967        2.0588318955
Ta            4.0372750256        1.3084843086        8.0946354125
Ta            4.0360536613        7.3759215218        2.0462901221
Ta            4.0323522895        7.3651786294        8.0860584739
Zr            2.6700627546        5.8663813761        3.5274379773
Zr            1.2438902500        4.3221719165        2.0000479262
Zr            1.2404412693        4.3542179063        8.1498166640
Zr            4.0962352408        4.3221718027        2.0000480344
Zr            4.0996845573        4.3542173888        8.1498166376
H             5.0262920867        5.6834523417        5.8478627992


     kinetic energy (Ekin) =           8.09842595 Ry
     temperature           =       38746.67660973 K 
     Ekin + Etot (const)   =       -2934.98656098 Ry
     Ions kinetic stress =          143.03 (kbar)
                                    107.27         160.90          92.90
                                    160.90         241.35         139.36
                                     92.90         139.36          80.47



     Linear momentum :   -0.0000000000   -0.0000000000    0.0000000000

     File outdir/pwscf.msd.dat deleted, as requested

     Writing config-only to output data dir outdir/pwscf.save/
     NEW-OLD atomic charge density approx. for the potential

     Check: negative core charge=   -0.000002

     negative rho (up, down):  9.089E-01 9.089E-01
     Generating pointlists ...
     new r_m :   0.0791 (alat units)  1.3961 (a.u.) for type    3
     new r_m :   0.0791 (alat units)  1.3961 (a.u.) for type    5

     total cpu time spent up to now is      362.9 secs

     Self-consistent Calculation

     iteration #  1     ecut=   120.00 Ry     beta= 0.70
     Davidson diagonalization with overlap
     ethr =  1.00E-06,  avg # of iterations =  7.5

     negative rho (up, down):  9.090E-01 9.090E-01

     total cpu time spent up to now is      420.4 secs

     total energy              =   -2943.07204148 Ry
     estimated scf accuracy    <       0.02808669 Ry

     total magnetization       =     0.01 Bohr mag/cell
     absolute magnetization    =     0.02 Bohr mag/cell

     iteration #  2     ecut=   120.00 Ry     beta= 0.70
     Davidson diagonalization with overlap
     ethr =  1.01E-05,  avg # of iterations =  2.0

     negative rho (up, down):  9.089E-01 9.089E-01

     total cpu time spent up to now is      455.6 secs

     total energy              =   -2943.07410518 Ry
     estimated scf accuracy    <       0.01179629 Ry

     total magnetization       =     0.01 Bohr mag/cell
     absolute magnetization    =     0.02 Bohr mag/cell

     iteration #  3     ecut=   120.00 Ry     beta= 0.70
     Davidson diagonalization with overlap
     ethr =  4.26E-06,  avg # of iterations =  1.0

     negative rho (up, down):  9.089E-01 9.089E-01

     total cpu time spent up to now is      471.4 secs

     total energy              =   -2943.07469248 Ry
     estimated scf accuracy    <       0.00135946 Ry

     total magnetization       =     0.01 Bohr mag/cell
     absolute magnetization    =     0.02 Bohr mag/cell

     iteration #  4     ecut=   120.00 Ry     beta= 0.70
     Davidson diagonalization with overlap
     ethr =  4.91E-07,  avg # of iterations =  2.0

     negative rho (up, down):  9.090E-01 9.090E-01

     Magnetic moment per site  (integrated on atomic sphere of radius R)
     atom   1 (R=0.091)  charge=  7.7969  magn=  0.0000
     atom   2 (R=0.091)  charge=  7.6294  magn=  0.0001
     atom   3 (R=0.091)  charge=  7.6298  magn=  0.0000
     atom   4 (R=0.091)  charge=  7.6302  magn=  0.0000
     atom   5 (R=0.091)  charge=  7.6335  magn=  0.0000
     atom   6 (R=0.110)  charge= 10.3487  magn=  0.0001
     atom   7 (R=0.110)  charge= 10.3540  magn=  0.0001
     atom   8 (R=0.079)  charge=  7.1124  magn=  0.0000
     atom   9 (R=0.079)  charge=  7.1259  magn=  0.0001
     atom  10 (R=0.079)  charge=  7.0978  magn=  0.0003
     atom  11 (R=0.079)  charge=  7.0946  magn=  0.0004
     atom  12 (R=0.079)  charge=  7.0996  magn=  0.0004
     atom  13 (R=0.079)  charge=  7.0957  magn=  0.0000
     atom  14 (R=0.079)  charge=  7.0981  magn= -0.0001
     atom  15 (R=0.079)  charge=  7.0965  magn=  0.0000
     atom  16 (R=0.079)  charge=  7.0973  magn=  0.0002
     atom  17 (R=0.079)  charge=  7.1005  magn= -0.0001
     atom  18 (R=0.111)  charge=  9.4536  magn=  0.0000
     atom  19 (R=0.111)  charge=  8.9945  magn=  0.0001
     atom  20 (R=0.111)  charge=  8.9912  magn=  0.0003
     atom  21 (R=0.111)  charge=  8.9916  magn= -0.0004
     atom  22 (R=0.111)  charge=  8.9977  magn= -0.0002
     atom  23 (R=0.079)  charge=  1.0020  magn=  0.0000

     total cpu time spent up to now is      489.4 secs

     End of self-consistent calculation

 ------ SPIN UP ------------


          k = 0.0000 0.0000 0.0000 ( 61588 PWs)   bands (ev):

   -60.7682 -60.7577 -60.7242 -60.7141 -60.6824 -60.6748 -60.6388 -60.6212
   -60.5440 -60.3626 -54.3471 -54.2690 -54.2217 -54.1448 -52.6875 -46.3220
   -46.2472 -41.6504 -41.6088 -41.5475 -41.5082 -39.7912 -27.7690 -27.7562
   -27.6791 -27.6730 -27.5841 -27.5667 -27.4464 -27.4360 -27.3875 -27.3197
   -27.2986 -27.2539 -27.2478 -27.2250 -27.2067 -27.1634 -27.1469 -27.1330
   -27.1060 -27.0231 -27.0027 -26.9581 -26.9475 -26.9345 -26.9317 -26.9130
   -26.8699 -26.8617 -26.8357 -26.8259 -24.1354 -23.9149 -23.6334 -23.5245
   -23.2769 -23.1639 -23.1287 -23.0344 -22.8945 -22.8128 -22.7965 -22.5653
   -22.5331 -22.4553 -22.3982 -22.3729 -22.2590 -22.2183 -21.7446 -21.6801
   -21.6139 -20.1741 -19.9455 -19.8106 -19.8085 -19.6611 -19.6039 -19.5876
   -19.5746 -19.5576 -19.5256 -19.3609 -19.3431 -18.1370 -17.9311 -17.8048
     0.9208   2.0403   2.9495   3.1487   3.3553   3.3982   3.5174   3.6447
     3.6965   3.8252   3.9232   4.0728   4.1711   4.5172   4.6506   4.7132
     4.7575   4.8713   5.0539   5.1275   5.2339   5.2794   5.3029   5.3790
     5.4088   5.5524   5.5863   5.7211   5.7456   5.7681   5.7784   5.8553
     5.9946   6.0779   6.1873   6.2296   6.2896   6.3358   6.3707   6.4192
     6.4450   6.6026   6.6696   6.7197   6.9201   6.9956   7.0314   7.1187
     7.1247   7.1729   7.2806   7.3121   7.3475   7.4754   7.5674   7.5753
     7.6308   7.8337   7.9043   7.9121   8.0740   8.1041   8.1266   8.1988
     8.2558   8.2912   8.3642   8.3866   8.4683   8.5638   8.6472   8.6952
     8.8616   8.9191   8.9823   9.0857   9.1238   9.2680   9.2916

 ------ SPIN DOWN ----------


          k = 0.0000 0.0000 0.0000 ( 61588 PWs)   bands (ev):

   -60.7682 -60.7575 -60.7242 -60.7138 -60.6822 -60.6747 -60.6385 -60.6208
   -60.5440 -60.3625 -54.3471 -54.2690 -54.2217 -54.1448 -52.6875 -46.3219
   -46.2471 -41.6506 -41.6090 -41.5474 -41.5084 -39.7912 -27.7688 -27.7558
   -27.6789 -27.6726 -27.5841 -27.5664 -27.4461 -27.4357 -27.3874 -27.3197
   -27.2985 -27.2538 -27.2475 -27.2249 -27.2066 -27.1631 -27.1467 -27.1327
   -27.1058 -27.0229 -27.0025 -26.9579 -26.9475 -26.9341 -26.9315 -26.9127
   -26.8694 -26.8612 -26.8354 -26.8256 -24.1353 -23.9148 -23.6333 -23.5245
   -23.2768 -23.1637 -23.1286 -23.0343 -22.8944 -22.8127 -22.7965 -22.5652
   -22.5331 -22.4552 -22.3981 -22.3727 -22.2589 -22.2182 -21.7446 -21.6801
   -21.6138 -20.1743 -19.9456 -19.8109 -19.8086 -19.6612 -19.6041 -19.5874
   -19.5747 -19.5577 -19.5255 -19.3609 -19.3434 -18.1370 -17.9311 -17.8048
     0.9209   2.0405   2.9499   3.1489   3.3557   3.3984   3.5177   3.6448
     3.6966   3.8254   3.9236   4.0730   4.1713   4.5174   4.6508   4.7135
     4.7578   4.8717   5.0542   5.1276   5.2342   5.2796   5.3030   5.3794
     5.4092   5.5526   5.5865   5.7214   5.7457   5.7681   5.7786   5.8554
     5.9948   6.0781   6.1876   6.2297   6.2898   6.3362   6.3708   6.4193
     6.4454   6.6027   6.6698   6.7200   6.9204   6.9958   7.0324   7.1199
     7.1257   7.1730   7.2818   7.3124   7.3479   7.4763   7.5672   7.5761
     7.6314   7.8339   7.9046   7.9123   8.0743   8.1048   8.1268   8.1996
     8.2565   8.2914   8.3653   8.3869   8.4688   8.5639   8.6474   8.6955
     8.8618   8.9201   8.9824   9.0859   9.1240   9.2681   9.2880

     the Fermi energy is     7.2679 ev

!    total energy              =   -2943.07463846 Ry
     estimated scf accuracy    <       0.00027526 Ry
     smearing contrib. (-TS)   =      -0.10299374 Ry
     internal energy E=F+TS    =   -2942.97164472 Ry

     total magnetization       =     0.01 Bohr mag/cell
     absolute magnetization    =     0.02 Bohr mag/cell

     convergence has been achieved in   4 iterations

     negative rho (up, down):  9.090E-01 9.090E-01

     Forces acting on atoms (cartesian axes, Ry/au):

     atom    1 type  1   force =     0.00482001   -0.02499579    0.00604351
     atom    2 type  1   force =    -0.12160906   -0.01611567   -0.00383267
     atom    3 type  1   force =    -0.11668967    0.01283170    0.00205784
     atom    4 type  1   force =     0.12880959   -0.00624915   -0.00145018
     atom    5 type  1   force =     0.11334490   -0.00405377   -0.00713045
     atom    6 type  2   force =    -0.00708123   -0.02191855    0.00810221
     atom    7 type  2   force =    -0.01967583    0.00890889   -0.02132770
     atom    8 type  3   force =    -0.10522277    0.00424170   -0.00148852
     atom    9 type  3   force =     0.09241738   -0.02225886   -0.03474962
     atom   10 type  3   force =    -0.02229285   -0.03161866   -0.06030212
     atom   11 type  3   force =    -0.02316238   -0.03455562    0.05668562
     atom   12 type  3   force =    -0.01822828    0.03492214   -0.05458291
     atom   13 type  3   force =    -0.00497991    0.03033476    0.06573269
     atom   14 type  3   force =     0.02013307   -0.03245569   -0.06088805
     atom   15 type  3   force =     0.02048673   -0.04001654    0.06448480
     atom   16 type  3   force =     0.01772299    0.04132790   -0.05441186
     atom   17 type  3   force =     0.00953152    0.05206376    0.06814333
     atom   18 type  4   force =    -0.00169274    0.02575076   -0.00833377
     atom   19 type  4   force =    -0.12984336   -0.00497203   -0.11746906
     atom   20 type  4   force =    -0.12499307    0.00630529    0.11983273
     atom   21 type  4   force =     0.12588923   -0.00778561   -0.11566564
     atom   22 type  4   force =     0.12738718   -0.00359114    0.11927751
     atom   23 type  5   force =     0.03492854    0.03390018    0.03127230
     The non-local contrib.  to forces
     atom    1 type  1   force =     0.00613200   -0.00919698    0.02863845
     atom    2 type  1   force =    -0.25097658   -0.15931433    0.01409664
     atom    3 type  1   force =    -0.23899837    0.15060919   -0.01683679
     atom    4 type  1   force =     0.24788884   -0.17115402    0.02103000
     atom    5 type  1   force =     0.21083999    0.15434856   -0.01162302
     atom    6 type  2   force =     0.00402034   -0.04891652   -0.06770968
     atom    7 type  2   force =    -0.00157559    0.07100222    0.08072055
     atom    8 type  3   force =    -0.25180552    0.00731614    0.00328360
     atom    9 type  3   force =     0.17811186   -0.03548827   -0.00860437
     atom   10 type  3   force =    -0.21152681    0.00213049   -0.20928417
     atom   11 type  3   force =    -0.21623034    0.00402530    0.19661235
     atom   12 type  3   force =    -0.20247978   -0.02244829   -0.17758262
     atom   13 type  3   force =    -0.20210031   -0.00779947    0.20093678
     atom   14 type  3   force =     0.21205405    0.00197471   -0.21328681
     atom   15 type  3   force =     0.21733161    0.00382567    0.19618883
     atom   16 type  3   force =     0.19950038   -0.01734947   -0.18336351
     atom   17 type  3   force =     0.24275658   -0.03211776    0.16056842
     atom   18 type  4   force =    -0.00728709    0.06075292   -0.05965444
     atom   19 type  4   force =     0.06143723    0.01019805    0.07384224
     atom   20 type  4   force =     0.05722689   -0.02039833   -0.06519278
     atom   21 type  4   force =    -0.05964732    0.01436484    0.07005204
     atom   22 type  4   force =    -0.05910660   -0.01201672   -0.05375983
     atom   23 type  5   force =    -0.03669301   -0.01842192   -0.02549453
     The ionic contribution  to forces
     atom    1 type  1   force =    -0.24102053   -4.79713969   14.04333646
     atom    2 type  1   force =   -39.72774074   -6.10840569    0.73796875
     atom    3 type  1   force =   -39.80306804    6.22262339   -0.78649124
     atom    4 type  1   force =    39.56128819   -6.09681429    0.69265558
     atom    5 type  1   force =    38.96332276    7.27138277   -1.26034031
     atom    6 type  2   force =    -0.15416214   -3.65806031  -14.02009913
     atom    7 type  2   force =    -1.00717175    3.64001317   14.23293882
     atom    8 type  3   force =   -52.27672255   -0.04596770   -0.15008020
     atom    9 type  3   force =    50.96776812   -1.56272254   -1.03407202
     atom   10 type  3   force =   -36.07642783   -2.07877232  -23.08006874
     atom   11 type  3   force =   -35.17282598   -0.83077105   22.11375333
     atom   12 type  3   force =   -35.28312228    0.83106534  -22.16380511
     atom   13 type  3   force =   -36.13715748    2.25635245   23.15079630
     atom   14 type  3   force =    35.99489136   -2.07764775  -23.12495862
     atom   15 type  3   force =    35.03873445   -0.82687749   22.19417865
     atom   16 type  3   force =    35.14275149    0.89763155  -22.29633298
     atom   17 type  3   force =    35.76131828    2.56285730   23.56975196
     atom   18 type  4   force =    -0.35990368    4.36035539  -14.19184424
     atom   19 type  4   force =   -35.93256991    0.91829435  -25.55761640
     atom   20 type  4   force =   -35.97582786   -1.02401059   25.59542119
     atom   21 type  4   force =    35.80304330    0.86166884  -25.69550556
     atom   22 type  4   force =    35.60422289   -1.30436067   26.08843335
     atom   23 type  5   force =     5.31037995    0.58930554    0.94198016
     The local contribution  to forces
     atom    1 type  1   force =     0.25086813    4.77653264  -14.06320157
     atom    2 type  1   force =    39.86503937    6.24935938   -0.76130642
     atom    3 type  1   force =    39.93509651   -6.35974089    0.80061113
     atom    4 type  1   force =   -39.68739820    6.26444490   -0.71319159
     atom    5 type  1   force =   -39.07180682   -7.43143812    1.26293307
     atom    6 type  2   force =     0.14564749    3.67231061   14.08917823
     atom    7 type  2   force =     0.99639873   -3.69534138  -14.33204425
     atom    8 type  3   force =    52.45593039    0.04239130    0.14342960
     atom    9 type  3   force =   -51.06179648    1.59272190    1.02124840
     atom   10 type  3   force =    36.28686029    2.02191185   23.24034205
     atom   11 type  3   force =    35.39322755    0.77884892  -22.26446315
     atom   12 type  3   force =    35.48482655   -0.75376995   22.29616729
     atom   13 type  3   force =    36.35269896   -2.20601692  -23.29471543
     atom   14 type  3   force =   -36.20830190    2.02382085   23.28426038
     atom   15 type  3   force =   -35.24577316    0.77024695  -22.33656199
     atom   16 type  3   force =   -35.34830132   -0.81803603   22.43369222
     atom   17 type  3   force =   -36.01070495   -2.45715584  -23.66763699
     atom   18 type  4   force =     0.36649421   -4.38124913   14.23751078
     atom   19 type  4   force =    35.74642061   -0.93067378   25.37048591
     atom   20 type  4   force =    35.80227275    1.05160820  -25.41385794
     atom   21 type  4   force =   -35.62362954   -0.88426245   25.51583809
     atom   22 type  4   force =   -35.41995039    1.30708739  -25.92345019
     atom   23 type  5   force =    -5.23978895   -0.53970319   -0.88611463
     The core correction contribution to forces
     atom    1 type  1   force =     0.00065526    0.00174175   -0.00088117
     atom    2 type  1   force =    -0.01122747   -0.00102821    0.00033415
     atom    3 type  1   force =    -0.01130610    0.00293103   -0.00076829
     atom    4 type  1   force =     0.01258947   -0.00292870    0.00137441
     atom    5 type  1   force =     0.00481721    0.00601567   -0.00313498
     atom    6 type  2   force =    -0.00016163    0.00250186    0.00304890
     atom    7 type  2   force =     0.00095747   -0.00368732   -0.00361060
     atom    8 type  3   force =    -0.03012130    0.00066014    0.00072562
     atom    9 type  3   force =     0.01867263   -0.00821256   -0.00334440
     atom   10 type  3   force =    -0.02259204    0.00907612   -0.01667621
     atom   11 type  3   force =    -0.02435590    0.00898716    0.01771324
     atom   12 type  3   force =    -0.02139231   -0.01014336   -0.01538800
     atom   13 type  3   force =    -0.02113691   -0.01015787    0.01574968
     atom   14 type  3   force =     0.02146865    0.00952869   -0.01664848
     atom   15 type  3   force =     0.02318992    0.00954312    0.01711506
     atom   16 type  3   force =     0.02180378   -0.01002433   -0.01579314
     atom   17 type  3   force =     0.02447615   -0.00961400    0.01291638
     atom   18 type  4   force =     0.00042198   -0.00316793    0.00286789
     atom   19 type  4   force =    -0.00976814    0.00001176   -0.00969503
     atom   20 type  4   force =    -0.00962389    0.00077822    0.00925267
     atom   21 type  4   force =     0.00959842   -0.00021209   -0.00942913
     atom   22 type  4   force =     0.01012376    0.00070554    0.00792670
     atom   23 type  5   force =     0.00000000    0.00000000    0.00000000
     The Hubbard contrib.    to forces
     atom    1 type  1   force =     0.00000000    0.00000000    0.00000000
     atom    2 type  1   force =     0.00000000    0.00000000    0.00000000
     atom    3 type  1   force =     0.00000000    0.00000000    0.00000000
     atom    4 type  1   force =     0.00000000    0.00000000    0.00000000
     atom    5 type  1   force =     0.00000000    0.00000000    0.00000000
     atom    6 type  2   force =     0.00000000    0.00000000    0.00000000
     atom    7 type  2   force =     0.00000000    0.00000000    0.00000000
     atom    8 type  3   force =     0.00000000    0.00000000    0.00000000
     atom    9 type  3   force =     0.00000000    0.00000000    0.00000000
     atom   10 type  3   force =     0.00000000    0.00000000    0.00000000
     atom   11 type  3   force =     0.00000000    0.00000000    0.00000000
     atom   12 type  3   force =     0.00000000    0.00000000    0.00000000
     atom   13 type  3   force =     0.00000000    0.00000000    0.00000000
     atom   14 type  3   force =     0.00000000    0.00000000    0.00000000
     atom   15 type  3   force =     0.00000000    0.00000000    0.00000000
     atom   16 type  3   force =     0.00000000    0.00000000    0.00000000
     atom   17 type  3   force =     0.00000000    0.00000000    0.00000000
     atom   18 type  4   force =     0.00000000    0.00000000    0.00000000
     atom   19 type  4   force =     0.00000000    0.00000000    0.00000000
     atom   20 type  4   force =     0.00000000    0.00000000    0.00000000
     atom   21 type  4   force =     0.00000000    0.00000000    0.00000000
     atom   22 type  4   force =     0.00000000    0.00000000    0.00000000
     atom   23 type  5   force =     0.00000000    0.00000000    0.00000000
     The SCF correction term to forces
     atom    1 type  1   force =    -0.01147256    0.00315443   -0.00201135
     atom    2 type  1   force =     0.00363865    0.00336112    0.00491151
     atom    3 type  1   force =     0.00192862   -0.00350310    0.00538034
     atom    4 type  1   force =    -0.00521642    0.00029089   -0.00348128
     atom    5 type  1   force =     0.00651405   -0.00427471    0.00487211
     atom    6 type  2   force =    -0.00208300    0.01033373    0.00352120
     atom    7 type  2   force =    -0.00794242   -0.00298986    0.00050508
     atom    8 type  3   force =    -0.00216150   -0.00007023    0.00099016
     atom    9 type  3   force =    -0.00999647   -0.00846946   -0.01013991
     atom   10 type  3   force =     0.00173584    0.01412314    0.00522226
     atom   11 type  3   force =    -0.00263543    0.00444197   -0.00709284
     atom   12 type  3   force =     0.00428184   -0.00969368    0.00586283
     atom   13 type  3   force =     0.00305812   -0.00195551   -0.00719733
     atom   14 type  3   force =     0.00036319    0.00995575    0.00958278
     atom   15 type  3   force =    -0.01265380    0.00333315   -0.00659844
     atom   16 type  3   force =     0.00231095   -0.01080588    0.00722286
     atom   17 type  3   force =    -0.00797225   -0.01181800   -0.00761913
     atom   18 type  4   force =    -0.00107588   -0.01085255    0.00262355
     atom   19 type  4   force =     0.00497914   -0.00271447    0.00535152
     atom   20 type  4   force =     0.00130132   -0.00158428   -0.00595311
     atom   21 type  4   force =    -0.00313334    0.00074319    0.00321623
     atom   22 type  4   force =    -0.00756019    0.00508126   -0.00003522
     atom   23 type  5   force =     0.00137284    0.00280769    0.00073860

     Total force =     0.500124     Total SCF correction =     0.050389
     SCF correction compared to forces is large: reduce conv_thr to get better values


     Computing stress (Cartesian axis) and pressure


     negative rho (up, down):  9.090E-01 9.090E-01
          total   stress  (Ry/bohr**3)                   (kbar)     P=       84.40
   0.00063777   0.00001287   0.00000700           93.82        1.89        1.03
   0.00001287   0.00068654   0.00000807            1.89      100.99        1.19
   0.00000700   0.00000807   0.00039687            1.03        1.19       58.38


     Entering Dynamics:    iteration =     2
                           time      =   0.0004 pico-seconds


ATOMIC_POSITIONS (angstrom)
Hf            2.6701259525        2.8273088557        6.6040736052
Hf            1.2531026279        1.2864709376        5.0585747398
Hf            1.2555994564        7.3899943009        5.0881770146
Hf            4.0871492984        1.2864720894        5.0585747745
Hf            4.0846515292        7.3899927416        5.0881756856
Nb            2.6701242107        2.7971145743        3.5156940381
Nb            2.6701214384        5.8765693408        6.6351019109
Ta            1.2094869529        4.3411168306        5.0712344619
Ta            4.1307643372        4.3411157762        5.0712320455
Ta            1.3073758965        1.3143076522        2.0588812373
Ta            1.3029114288        1.3085757816        8.0946943883
Ta            1.3041332976        7.3760185881        2.0463399500
Ta            1.3078359035        7.3652748951        8.0861183882
Ta            4.0328752650        1.3143075669        2.0588812346
Ta            4.0373396110        1.3085752164        8.0946952724
Ta            4.0361180339        7.3760192586        2.0463399847
Ta            4.0324160029        7.3652772572        8.0861185840
Zr            2.6701253622        5.8664797999        3.5274910886
Zr            1.2439313035        4.3222653104        2.0000826643
Zr            1.2404830930        4.3543132359        8.1498912323
Zr            4.0963193201        4.3222647668        2.0000830831
Zr            4.0997689150        4.3543110899        8.1498911171
H             4.9221349349        5.5270771233        5.7576794265


     kinetic energy (Ekin) =           8.08645994 Ry
     temperature           =       38689.42558942 K 
     Ekin + Etot (const)   =       -2934.98817852 Ry
     Ions kinetic stress =          142.82 (kbar)
                                    107.05         160.67          92.69
                                    160.67         241.14         139.12
                                     92.69         139.12          80.26



     Linear momentum :   -0.0000000000   -0.0000000000    0.0000000000

     Writing config-only to output data dir outdir/pwscf.save/
     NEW-OLD atomic charge density approx. for the potential

     Check: negative core charge=   -0.000002

     negative rho (up, down):  9.089E-01 9.089E-01
     Generating pointlists ...
     new r_m :   0.1079 (alat units)  1.9036 (a.u.) for type    2
     new r_m :   0.0699 (alat units)  1.2335 (a.u.) for type    3
     new r_m :   0.0699 (alat units)  1.2335 (a.u.) for type    5

     total cpu time spent up to now is      515.3 secs

     Self-consistent Calculation

     iteration #  1     ecut=   120.00 Ry     beta= 0.70
     Davidson diagonalization with overlap
     ethr =  1.00E-06,  avg # of iterations =  8.0

     negative rho (up, down):  9.089E-01 9.089E-01

     total cpu time spent up to now is      565.5 secs

     total energy              =   -2943.02390842 Ry
     estimated scf accuracy    <       0.05817930 Ry

     total magnetization       =     0.01 Bohr mag/cell
     absolute magnetization    =     0.01 Bohr mag/cell

     iteration #  2     ecut=   120.00 Ry     beta= 0.70
     Davidson diagonalization with overlap
     ethr =  2.10E-05,  avg # of iterations =  2.0

     negative rho (up, down):  9.090E-01 9.090E-01

     total cpu time spent up to now is      602.7 secs

     total energy              =   -2943.02892433 Ry
     estimated scf accuracy    <       0.01902063 Ry

     total magnetization       =     0.01 Bohr mag/cell
     absolute magnetization    =     0.01 Bohr mag/cell

     iteration #  3     ecut=   120.00 Ry     beta= 0.70
     Davidson diagonalization with overlap
     ethr =  6.87E-06,  avg # of iterations =  1.0

     negative rho (up, down):  9.090E-01 9.090E-01

     total cpu time spent up to now is      624.1 secs

     total energy              =   -2943.03021580 Ry
     estimated scf accuracy    <       0.00162874 Ry

     total magnetization       =     0.01 Bohr mag/cell
     absolute magnetization    =     0.01 Bohr mag/cell

     iteration #  4     ecut=   120.00 Ry     beta= 0.70
     Davidson diagonalization with overlap
     ethr =  5.88E-07,  avg # of iterations =  2.0

     negative rho (up, down):  9.088E-01 9.088E-01

     Magnetic moment per site  (integrated on atomic sphere of radius R)
     atom   1 (R=0.091)  charge=  7.7972  magn= -0.0000
     atom   2 (R=0.091)  charge=  7.6304  magn=  0.0000
     atom   3 (R=0.091)  charge=  7.6306  magn=  0.0000
     atom   4 (R=0.091)  charge=  7.6318  magn=  0.0000
     atom   5 (R=0.091)  charge=  7.6322  magn=  0.0000
     atom   6 (R=0.108)  charge= 10.1945  magn=  0.0000
     atom   7 (R=0.108)  charge= 10.1982  magn=  0.0001
     atom   8 (R=0.070)  charge=  5.8250  magn= -0.0000
     atom   9 (R=0.070)  charge=  5.8450  magn=  0.0000
     atom  10 (R=0.070)  charge=  5.8122  magn=  0.0002
     atom  11 (R=0.070)  charge=  5.8105  magn=  0.0002
     atom  12 (R=0.070)  charge=  5.8107  magn=  0.0002
     atom  13 (R=0.070)  charge=  5.8114  magn=  0.0001
     atom  14 (R=0.070)  charge=  5.8097  magn= -0.0000
     atom  15 (R=0.070)  charge=  5.8045  magn=  0.0000
     atom  16 (R=0.070)  charge=  5.8088  magn=  0.0001
     atom  17 (R=0.070)  charge=  5.8097  magn= -0.0000
     atom  18 (R=0.111)  charge=  9.4544  magn=  0.0000
     atom  19 (R=0.111)  charge=  9.0001  magn=  0.0002
     atom  20 (R=0.111)  charge=  8.9937  magn=  0.0003
     atom  21 (R=0.111)  charge=  8.9990  magn= -0.0002
     atom  22 (R=0.111)  charge=  8.9992  magn= -0.0001
     atom  23 (R=0.070)  charge=  0.9253  magn=  0.0000

     total cpu time spent up to now is      642.5 secs

     End of self-consistent calculation

 ------ SPIN UP ------------


          k = 0.0000 0.0000 0.0000 ( 61588 PWs)   bands (ev):

   -60.7678 -60.7639 -60.7192 -60.7089 -60.6870 -60.6645 -60.6416 -60.6215
   -60.5417 -60.2226 -54.3590 -54.2982 -54.2320 -54.1641 -52.6974 -46.3205
   -46.2607 -41.6522 -41.6276 -41.5529 -41.5271 -39.8037 -27.7655 -27.7603
   -27.6780 -27.6738 -27.5793 -27.5707 -27.4509 -27.4311 -27.3685 -27.3182
   -27.2970 -27.2539 -27.2414 -27.2223 -27.2023 -27.1669 -27.1505 -27.1263
   -27.1019 -26.9801 -26.9422 -26.9410 -26.9296 -26.9178 -26.8944 -26.8771
   -26.8675 -26.8652 -26.8405 -26.8206 -24.1480 -23.9302 -23.6460 -23.5429
   -23.2884 -23.1749 -23.1451 -23.0427 -22.9077 -22.8348 -22.8118 -22.5857
   -22.5362 -22.4683 -22.4045 -22.3833 -22.2693 -22.2282 -21.7533 -21.6892
   -21.6222 -20.1931 -19.9480 -19.8301 -19.8252 -19.6582 -19.6081 -19.5972
   -19.5883 -19.5742 -19.5335 -19.3668 -19.3629 -18.1480 -17.9437 -17.8197
     0.7939   1.9775   2.9446   3.1421   3.3462   3.4222   3.5092   3.6474
     3.6923   3.8207   3.9181   4.0701   4.1827   4.5029   4.6494   4.7077
     4.7621   4.8636   5.0474   5.1211   5.2190   5.2787   5.2968   5.3600
     5.3983   5.5480   5.5834   5.7165   5.7434   5.7635   5.7766   5.8652
     6.0011   6.0788   6.1884   6.2288   6.2812   6.3440   6.3639   6.4029
     6.4371   6.6062   6.6652   6.7163   6.9129   6.9925   7.0208   7.1149
     7.1262   7.1662   7.2699   7.2905   7.3432   7.4701   7.5535   7.5628
     7.6291   7.8148   7.9046   7.9136   8.0684   8.0994   8.1232   8.1877
     8.2554   8.2940   8.3625   8.3819   8.4777   8.5574   8.6386   8.6850
     8.8585   8.9187   8.9633   9.0832   9.1058   9.2724   9.2867

 ------ SPIN DOWN ----------


          k = 0.0000 0.0000 0.0000 ( 61588 PWs)   bands (ev):

   -60.7677 -60.7637 -60.7189 -60.7089 -60.6869 -60.6643 -60.6413 -60.6213
   -60.5417 -60.2226 -54.3590 -54.2982 -54.2320 -54.1641 -52.6974 -46.3204
   -46.2607 -41.6522 -41.6276 -41.5527 -41.5271 -39.8037 -27.7653 -27.7601
   -27.6776 -27.6736 -27.5792 -27.5704 -27.4505 -27.4308 -27.3685 -27.3180
   -27.2969 -27.2536 -27.2414 -27.2222 -27.2022 -27.1667 -27.1502 -27.1262
   -27.1018 -26.9800 -26.9419 -26.9408 -26.9294 -26.9176 -26.8944 -26.8771
   -26.8671 -26.8648 -26.8402 -26.8203 -24.1480 -23.9301 -23.6459 -23.5428
   -23.2884 -23.1749 -23.1451 -23.0427 -22.9077 -22.8348 -22.8118 -22.5857
   -22.5362 -22.4682 -22.4044 -22.3832 -22.2693 -22.2281 -21.7533 -21.6892
   -21.6222 -20.1931 -19.9480 -19.8301 -19.8253 -19.6583 -19.6081 -19.5969
   -19.5881 -19.5742 -19.5334 -19.3667 -19.3629 -18.1480 -17.9437 -17.8197
     0.7940   1.9777   2.9450   3.1421   3.3465   3.4223   3.5094   3.6475
     3.6924   3.8209   3.9186   4.0703   4.1829   4.5031   4.6496   4.7080
     4.7623   4.8639   5.0476   5.1212   5.2193   5.2789   5.2969   5.3603
     5.3986   5.5481   5.5835   5.7167   5.7435   5.7636   5.7767   5.8653
     6.0013   6.0790   6.1886   6.2289   6.2813   6.3443   6.3641   6.4030
     6.4375   6.6064   6.6654   6.7166   6.9132   6.9927   7.0217   7.1159
     7.1269   7.1663   7.2706   7.2909   7.3436   7.4710   7.5540   7.5630
     7.6295   7.8150   7.9048   7.9139   8.0687   8.1000   8.1234   8.1883
     8.2560   8.2942   8.3633   8.3822   8.4781   8.5576   8.6387   8.6852
     8.8587   8.9195   8.9635   9.0834   9.1061   9.2727   9.2838

     the Fermi energy is     7.2598 ev

!    total energy              =   -2943.03009324 Ry
     estimated scf accuracy    <       0.00041716 Ry
     smearing contrib. (-TS)   =      -0.10375247 Ry
     internal energy E=F+TS    =   -2942.92634076 Ry

     total magnetization       =     0.01 Bohr mag/cell
     absolute magnetization    =     0.01 Bohr mag/cell

     convergence has been achieved in   4 iterations

     negative rho (up, down):  9.088E-01 9.088E-01

     Forces acting on atoms (cartesian axes, Ry/au):

     atom    1 type  1   force =    -0.00163662   -0.02150006    0.00281420
     atom    2 type  1   force =    -0.11765435   -0.01406753   -0.00254573
     atom    3 type  1   force =    -0.11285380    0.01111552    0.00236173
     atom    4 type  1   force =     0.12757653   -0.00928843   -0.00644574
     atom    5 type  1   force =     0.11205998   -0.01081883   -0.00632146
     atom    6 type  2   force =    -0.00561656   -0.02103409    0.00852251
     atom    7 type  2   force =    -0.02161632    0.00815461   -0.01711958
     atom    8 type  3   force =    -0.10759563    0.00567562   -0.00076989
     atom    9 type  3   force =     0.02984438   -0.11394410   -0.09632434
     atom   10 type  3   force =    -0.02125146   -0.02685025   -0.05713079
     atom   11 type  3   force =    -0.02438734   -0.03206891    0.05433885
     atom   12 type  3   force =    -0.01673194    0.03160942   -0.05190894
     atom   13 type  3   force =    -0.00369628    0.03074235    0.06424865
     atom   14 type  3   force =     0.02038901   -0.03010083   -0.05637997
     atom   15 type  3   force =     0.01739711   -0.03835615    0.06381161
     atom   16 type  3   force =     0.01856464    0.03812835   -0.04997775
     atom   17 type  3   force =     0.00729313    0.04406941    0.06618856
     atom   18 type  4   force =     0.00099043    0.02342592   -0.00846007
     atom   19 type  4   force =    -0.12658802   -0.00600752   -0.11420981
     atom   20 type  4   force =    -0.12457490    0.00492532    0.11823239
     atom   21 type  4   force =     0.12413583   -0.00650611   -0.11323881
     atom   22 type  4   force =     0.12390701    0.00071922    0.11925167
     atom   23 type  5   force =     0.10204515    0.13197707    0.08106269
     The non-local contrib.  to forces
     atom    1 type  1   force =     0.00318734   -0.00623033    0.02555259
     atom    2 type  1   force =    -0.24814196   -0.15973119    0.01508477
     atom    3 type  1   force =    -0.23853373    0.15033470   -0.01765881
     atom    4 type  1   force =     0.24604129   -0.17192395    0.01774557
     atom    5 type  1   force =     0.22154881    0.14102279   -0.01189989
     atom    6 type  2   force =     0.00432820   -0.04619310   -0.06695182
     atom    7 type  2   force =     0.00344329    0.07219740    0.08111882
     atom    8 type  3   force =    -0.25163088    0.00580983    0.00131156
     atom    9 type  3   force =     0.15786305   -0.05088023   -0.02743969
     atom   10 type  3   force =    -0.21416379    0.00259298   -0.21109299
     atom   11 type  3   force =    -0.22037465    0.00786059    0.19406921
     atom   12 type  3   force =    -0.20204919   -0.02408909   -0.17638012
     atom   13 type  3   force =    -0.20204496   -0.00918652    0.20049908
     atom   14 type  3   force =     0.21283596    0.00362538   -0.21002722
     atom   15 type  3   force =     0.21571448    0.00371903    0.19718839
     atom   16 type  3   force =     0.19851061   -0.01917006   -0.17830908
     atom   17 type  3   force =     0.23232291   -0.02658970    0.17447612
     atom   18 type  4   force =    -0.00775607    0.05863446   -0.05681075
     atom   19 type  4   force =     0.06387820    0.00971151    0.07522464
     atom   20 type  4   force =     0.05759264   -0.02098191   -0.06604622
     atom   21 type  4   force =    -0.06132465    0.01563247    0.07009082
     atom   22 type  4   force =    -0.05881848   -0.00863013   -0.05185758
     atom   23 type  5   force =    -0.04419349   -0.03904146   -0.03521213
     The ionic contribution  to forces
     atom    1 type  1   force =    -0.26732916   -4.83186577   14.06744218
     atom    2 type  1   force =   -39.73599565   -6.12077032    0.74159175
     atom    3 type  1   force =   -39.81501919    6.23367723   -0.77898144
     atom    4 type  1   force =    39.56852796   -6.14185424    0.70019382
     atom    5 type  1   force =    39.08362245    7.26899014   -1.15780097
     atom    6 type  2   force =    -0.17437052   -3.68420849  -14.04029375
     atom    7 type  2   force =    -1.03113325    3.71743466   14.29890910
     atom    8 type  3   force =   -52.31900763   -0.04647722   -0.14820434
     atom    9 type  3   force =    50.64560809   -2.04807590   -1.31212988
     atom   10 type  3   force =   -36.08091553   -2.08437569  -23.08459144
     atom   11 type  3   force =   -35.17692133   -0.84007404   22.11586251
     atom   12 type  3   force =   -35.28909187    0.83542949  -22.16908495
     atom   13 type  3   force =   -36.13832001    2.25927529   23.15049514
     atom   14 type  3   force =    35.99729520   -2.08958336  -23.13287159
     atom   15 type  3   force =    35.04679313   -0.85302173   22.19668893
     atom   16 type  3   force =    35.14891693    0.90902262  -22.30519064
     atom   17 type  3   force =    35.81480664    2.53919076   23.51718615
     atom   18 type  4   force =    -0.39471376    4.39168448  -14.22676031
     atom   19 type  4   force =   -35.94214125    0.91908802  -25.56745533
     atom   20 type  4   force =   -35.98827863   -1.01921393   25.60423360
     atom   21 type  4   force =    35.80273671    0.86047797  -25.72963499
     atom   22 type  4   force =    35.62528128   -1.27423975   26.13043438
     atom   23 type  5   force =     5.61964941    1.09948978    1.12996208
     The local contribution  to forces
     atom    1 type  1   force =     0.25021081    4.82299154  -14.10169551
     atom    2 type  1   force =    39.87926535    6.27031374   -0.76415395
     atom    3 type  1   force =    39.95821492   -6.37703522    0.79417825
     atom    4 type  1   force =   -39.70828221    6.30383941   -0.73985217
     atom    5 type  1   force =   -39.21368903   -7.42294599    1.15129331
     atom    6 type  2   force =     0.16023025    3.71501003   14.10388091
     atom    7 type  2   force =     1.00494210   -3.78243437  -14.40742165
     atom    8 type  3   force =    52.49314104    0.04515233    0.13441212
     atom    9 type  3   force =   -50.79155278    2.00958517    1.24020458
     atom   10 type  3   force =    36.30169885    2.05919694   23.26740956
     atom   11 type  3   force =    35.38710020    0.80124688  -22.28543029
     atom   12 type  3   force =    35.50405352   -0.78087552   22.32032679
     atom   13 type  3   force =    36.35466653   -2.21626902  -23.31282936
     atom   14 type  3   force =   -36.21786039    2.05282969   23.31736248
     atom   15 type  3   force =   -35.27917039    0.80929187  -22.35746085
     atom   16 type  3   force =   -35.35424701   -0.85296832   22.46268919
     atom   17 type  3   force =   -36.06799332   -2.48142898  -23.65130606
     atom   18 type  4   force =     0.40595824   -4.42969438   14.26726320
     atom   19 type  4   force =    35.77042627   -0.93548990   25.39434664
     atom   20 type  4   force =    35.81574449    1.04250804  -25.43201467
     atom   21 type  4   force =   -35.63730830   -0.87841608   25.56314665
     atom   22 type  4   force =   -35.46047666    1.29276558  -25.97071227
     atom   23 type  5   force =    -5.47588746   -0.93065357   -1.01593696
     The core correction contribution to forces
     atom    1 type  1   force =     0.00091223    0.00162610   -0.00113323
     atom    2 type  1   force =    -0.01106278   -0.00120945    0.00034863
     atom    3 type  1   force =    -0.01163260    0.00311193   -0.00088316
     atom    4 type  1   force =     0.01287576   -0.00292536    0.00129079
     atom    5 type  1   force =     0.00542655    0.00553446   -0.00259279
     atom    6 type  2   force =    -0.00002289    0.00258275    0.00324255
     atom    7 type  2   force =     0.00057469   -0.00373797   -0.00357312
     atom    8 type  3   force =    -0.02993300    0.00053440    0.00061657
     atom    9 type  3   force =     0.01584986   -0.00991718   -0.00532722
     atom   10 type  3   force =    -0.02262219    0.00883723   -0.01680494
     atom   11 type  3   force =    -0.02477374    0.00916310    0.01786259
     atom   12 type  3   force =    -0.02161647   -0.01014455   -0.01541183
     atom   13 type  3   force =    -0.02107816   -0.01034812    0.01579974
     atom   14 type  3   force =     0.02164485    0.00926866   -0.01687244
     atom   15 type  3   force =     0.02333192    0.00942865    0.01735130
     atom   16 type  3   force =     0.02174070   -0.00995578   -0.01559173
     atom   17 type  3   force =     0.02401733   -0.00890206    0.01412979
     atom   18 type  4   force =     0.00049660   -0.00317976    0.00271633
     atom   19 type  4   force =    -0.00982594    0.00002301   -0.00969989
     atom   20 type  4   force =    -0.00964925    0.00078380    0.00924934
     atom   21 type  4   force =     0.00960969   -0.00025085   -0.00936514
     atom   22 type  4   force =     0.00996706    0.00054545    0.00787744
     atom   23 type  5   force =     0.00000000    0.00000000    0.00000000
     The Hubbard contrib.    to forces
     atom    1 type  1   force =     0.00000000    0.00000000    0.00000000
     atom    2 type  1   force =     0.00000000    0.00000000    0.00000000
     atom    3 type  1   force =     0.00000000    0.00000000    0.00000000
     atom    4 type  1   force =     0.00000000    0.00000000    0.00000000
     atom    5 type  1   force =     0.00000000    0.00000000    0.00000000
     atom    6 type  2   force =     0.00000000    0.00000000    0.00000000
     atom    7 type  2   force =     0.00000000    0.00000000    0.00000000
     atom    8 type  3   force =     0.00000000    0.00000000    0.00000000
     atom    9 type  3   force =     0.00000000    0.00000000    0.00000000
     atom   10 type  3   force =     0.00000000    0.00000000    0.00000000
     atom   11 type  3   force =     0.00000000    0.00000000    0.00000000
     atom   12 type  3   force =     0.00000000    0.00000000    0.00000000
     atom   13 type  3   force =     0.00000000    0.00000000    0.00000000
     atom   14 type  3   force =     0.00000000    0.00000000    0.00000000
     atom   15 type  3   force =     0.00000000    0.00000000    0.00000000
     atom   16 type  3   force =     0.00000000    0.00000000    0.00000000
     atom   17 type  3   force =     0.00000000    0.00000000    0.00000000
     atom   18 type  4   force =     0.00000000    0.00000000    0.00000000
     atom   19 type  4   force =     0.00000000    0.00000000    0.00000000
     atom   20 type  4   force =     0.00000000    0.00000000    0.00000000
     atom   21 type  4   force =     0.00000000    0.00000000    0.00000000
     atom   22 type  4   force =     0.00000000    0.00000000    0.00000000
     atom   23 type  5   force =     0.00000000    0.00000000    0.00000000
     The SCF correction term to forces
     atom    1 type  1   force =     0.01092737   -0.00792943    0.01182134
     atom    2 type  1   force =    -0.00217410   -0.00257814    0.00375623
     atom    3 type  1   force =    -0.00633799    0.00111907    0.00488007
     atom    4 type  1   force =     0.00795896    0.00366789    0.01334942
     atom    5 type  1   force =     0.01469641   -0.00332805    0.01385205
     atom    6 type  2   force =     0.00376362   -0.00813310    0.00781779
     atom    7 type  2   force =     0.00010207    0.00478707    0.01302044
     atom    8 type  3   force =    -0.00061995    0.00074845    0.01026738
     atom    9 type  3   force =     0.00162137   -0.01456378    0.00754104
     atom   10 type  3   force =    -0.00570359   -0.01300954   -0.01287781
     atom   11 type  3   force =     0.01012738   -0.01017327    0.01114800
     atom   12 type  3   force =    -0.00848272    0.01138126   -0.01218567
     atom   13 type  3   force =     0.00262552    0.00736288    0.00945721
     atom   14 type  3   force =     0.00601860   -0.00614902   -0.01479804
     atom   15 type  3   force =     0.01027317   -0.00768181    0.00921699
     atom   16 type  3   force =     0.00318862    0.01129207   -0.01440232
     atom   17 type  3   force =     0.00368477    0.02189156    0.01087573
     atom   18 type  4   force =    -0.00344937    0.00607328    0.00430463
     atom   19 type  4   force =    -0.00938009    0.00075202   -0.00745270
     atom   20 type  4   force =    -0.00043895    0.00192149    0.00198352
     atom   21 type  4   force =     0.00996760   -0.00385745   -0.00830298
     atom   22 type  4   force =     0.00749901   -0.00962976    0.00268287
     atom   23 type  5   force =     0.00202190    0.00227449    0.00142287

     Total force =     0.532193     Total SCF correction =     0.071173
     SCF correction compared to forces is large: reduce conv_thr to get better values


     Computing stress (Cartesian axis) and pressure


     negative rho (up, down):  9.088E-01 9.088E-01
          total   stress  (Ry/bohr**3)                   (kbar)     P=       89.36
   0.00067387   0.00003366   0.00001974           99.13        4.95        2.90
[...]
     4.7363   4.8492   5.0574   5.1290   5.2093   5.2727   5.2934   5.3840
     5.4261   5.5483   5.5938   5.7164   5.7264   5.7610   5.7709   5.8140
     5.9584   6.0617   6.1601   6.2197   6.2646   6.3178   6.3683   6.4164
     6.4602   6.5793   6.6689   6.7124   6.9265   6.9710   7.0333   7.1065
     7.1178   7.1679   7.2733   7.3072   7.3856   7.4749   7.5511   7.6207
     7.6356   7.8724   7.8923   7.9071   8.0979   8.1078   8.1265   8.2082
     8.2465   8.2654   8.3417   8.3788   8.4173   8.5628   8.6374   8.7074
     8.8528   8.9203   9.0035   9.0530   9.1777   9.2421   9.2804

     the Fermi energy is     7.2680 ev

!    total energy              =   -2943.07700607 Ry
     estimated scf accuracy    <       0.00082402 Ry
     smearing contrib. (-TS)   =      -0.09982646 Ry
     internal energy E=F+TS    =   -2942.97717961 Ry

     total magnetization       =     0.00 Bohr mag/cell
     absolute magnetization    =     0.00 Bohr mag/cell

     convergence has been achieved in   4 iterations

     negative rho (up, down):  9.093E-01 9.093E-01

     Forces acting on atoms (cartesian axes, Ry/au):

     atom    1 type  1   force =    -0.00803647   -0.02792204    0.01517494
     atom    2 type  1   force =    -0.11909900   -0.01374848    0.00547285
     atom    3 type  1   force =    -0.11338621    0.00968439    0.01280422
     atom    4 type  1   force =     0.11778506   -0.00904088    0.00509736
     atom    5 type  1   force =     0.11491941    0.00824921    0.00388275
     atom    6 type  2   force =    -0.01199746   -0.02287446    0.00063481
     atom    7 type  2   force =    -0.01571395    0.00985064   -0.02350066
     atom    8 type  3   force =    -0.10335663    0.00211276   -0.00263452
     atom    9 type  3   force =     0.12785044    0.02806907    0.00822633
     atom   10 type  3   force =    -0.01998152   -0.02992572   -0.06375303
     atom   11 type  3   force =    -0.01773512   -0.03598086    0.05440377
     atom   12 type  3   force =    -0.01607924    0.03425889   -0.05779897
     atom   13 type  3   force =    -0.00907852    0.02842167    0.05768594
     atom   14 type  3   force =     0.02125047   -0.02988219   -0.06236321
     atom   15 type  3   force =     0.02101478   -0.03771083    0.05889669
     atom   16 type  3   force =     0.01685919    0.03703412   -0.05869350
     atom   17 type  3   force =     0.02666100    0.04428471    0.05112667
     atom   18 type  4   force =    -0.00348835    0.02174878   -0.01031721
     atom   19 type  4   force =    -0.12546189   -0.00467677   -0.11965356
     atom   20 type  4   force =    -0.12102509    0.00728861    0.11672015
     atom   21 type  4   force =     0.12505640   -0.00575580   -0.12159264
     atom   22 type  4   force =     0.13013754   -0.00221191    0.11452383
     atom   23 type  5   force =    -0.01709481   -0.01127292    0.01565699
     The non-local contrib.  to forces
     atom    1 type  1   force =     0.00298851   -0.01051557    0.02739846
     atom    2 type  1   force =    -0.25317513   -0.15770445    0.01773585
     atom    3 type  1   force =    -0.23598597    0.15038414   -0.00976841
     atom    4 type  1   force =     0.24627273   -0.16323861    0.02723714
     atom    5 type  1   force =     0.18519702    0.16789905   -0.01552846
     atom    6 type  2   force =     0.00394674   -0.04334554   -0.05407005
     atom    7 type  2   force =    -0.02418258    0.06673127    0.06839590
     atom    8 type  3   force =    -0.26130012    0.01096119    0.00877003
     atom    9 type  3   force =     0.25381174    0.02587411    0.04045694
     atom   10 type  3   force =    -0.20814212    0.00707301   -0.20438811
     atom   11 type  3   force =    -0.21050902   -0.00016841    0.19659675
     atom   12 type  3   force =    -0.20664501   -0.02280823   -0.17985353
     atom   13 type  3   force =    -0.20377797   -0.00708824    0.19328131
     atom   14 type  3   force =     0.20870013    0.00435062   -0.21513882
     atom   15 type  3   force =     0.21857511    0.01021974    0.19029858
     atom   16 type  3   force =     0.20023490   -0.01978032   -0.19171085
     atom   17 type  3   force =     0.25558198   -0.04617216    0.13205718
     atom   18 type  4   force =    -0.00452129    0.05702096   -0.06076135
     atom   19 type  4   force =     0.05951436    0.01059395    0.07011510
     atom   20 type  4   force =     0.05573756   -0.01957235   -0.06486145
     atom   21 type  4   force =    -0.06181217    0.01428365    0.07293292
     atom   22 type  4   force =    -0.07067690   -0.01264304   -0.06082322
     atom   23 type  5   force =    -0.02751154    0.00881379   -0.00961818
     The ionic contribution  to forces
     atom    1 type  1   force =    -0.24507460   -4.68551336   14.27804607
     atom    2 type  1   force =   -39.74842266   -6.13912297    0.75099664
     atom    3 type  1   force =   -39.69801131    6.14257870   -0.78136569
     atom    4 type  1   force =    39.57784222   -6.24353939    0.73238947
     atom    5 type  1   force =    38.76247732    6.68355076   -1.41764367
     atom    6 type  2   force =    -0.40510887   -3.81804929  -14.30928337
     atom    7 type  2   force =    -0.52869813    3.39726449   13.94970843
     atom    8 type  3   force =   -52.32680701    0.08736329   -0.07642486
     atom    9 type  3   force =    51.44656444   -0.02037261   -0.26084029
     atom   10 type  3   force =   -36.06803768   -2.07879893  -23.06470707
     atom   11 type  3   force =   -35.14433837   -0.80081758   22.08815583
     atom   12 type  3   force =   -35.24171669    0.79184057  -22.11374646
     atom   13 type  3   force =   -36.06949654    2.19730064   23.09483886
     atom   14 type  3   force =    35.98110925   -2.10871882  -23.14048311
     atom   15 type  3   force =    35.00409663   -0.74056462   22.17779000
     atom   16 type  3   force =    35.13142032    0.81631778  -22.19202487
     atom   17 type  3   force =    35.52902296    2.48736992   23.59892797
     atom   18 type  4   force =    -0.18279299    4.44506304  -14.02719676
     atom   19 type  4   force =   -35.90315126    0.94970702  -25.49970727
     atom   20 type  4   force =   -35.86631813   -0.99809752   25.48858556
     atom   21 type  4   force =    35.81448842    0.96981977  -25.66703364
     atom   22 type  4   force =    35.57542517   -1.24275123   25.68971183
     atom   23 type  5   force =     4.60552751   -0.09182967    0.70130640
     The local contribution  to forces
     atom    1 type  1   force =     0.21985716    4.66324788  -14.26385370
     atom    2 type  1   force =    39.89300050    6.28584714   -0.73692691
     atom    3 type  1   force =    39.82913087   -6.28761954    0.83138387
     atom    4 type  1   force =   -39.72606859    6.39333683   -0.72983176
     atom    5 type  1   force =   -38.84034317   -6.84132176    1.47132051
     atom    6 type  2   force =     0.37348653    3.84024173   14.37842468
     atom    7 type  2   force =     0.51633737   -3.44615238  -14.00590830
     atom    8 type  3   force =    52.51076772   -0.09675819    0.09236551
     atom    9 type  3   force =   -51.62485216    0.01439130    0.24829765
     atom   10 type  3   force =    36.27313124    2.03746888   23.20496402
     atom   11 type  3   force =    35.35706749    0.75029424  -22.24105808
     atom   12 type  3   force =    35.45019104   -0.73093162   22.23553354
     atom   13 type  3   force =    36.28225947   -2.14675956  -23.23903262
     atom   14 type  3   force =   -36.19852562    2.06638236   23.29600057
     atom   15 type  3   force =   -35.23894461    0.67509742  -22.32203904
     atom   16 type  3   force =   -35.34652791   -0.75508178   22.32682337
     atom   17 type  3   force =   -35.78795112   -2.38235301  -23.69164651
     atom   18 type  4   force =     0.16861275   -4.47860654   14.08738566
     atom   19 type  4   force =    35.72431937   -0.96434000   25.30663795
     atom   20 type  4   force =    35.69566532    1.02455105  -25.31207455
     atom   21 type  4   force =   -35.64835495   -0.98794113   25.46641049
     atom   22 type  4   force =   -35.39823407    1.25304282  -25.51314809
     atom   23 type  5   force =    -4.59495276    0.07516648   -0.67008785
     The core correction contribution to forces
     atom    1 type  1   force =     0.00028179    0.00209530   -0.00076121
     atom    2 type  1   force =    -0.01182348   -0.00131744    0.00057862
     atom    3 type  1   force =    -0.01093710    0.00175813   -0.00031053
     atom    4 type  1   force =     0.01246170   -0.00161523    0.00205081
     atom    5 type  1   force =     0.00485247    0.00699088   -0.00450162
     atom    6 type  2   force =    -0.00037710    0.00190272    0.00205293
     atom    7 type  2   force =     0.00200592   -0.00346368   -0.00305893
     atom    8 type  3   force =    -0.03173266    0.00095172    0.00082950
     atom    9 type  3   force =     0.02893228   -0.00142486    0.00248032
     atom   10 type  3   force =    -0.02284575    0.00926241   -0.01663484
     atom   11 type  3   force =    -0.02266663    0.00860765    0.01720313
     atom   12 type  3   force =    -0.02153200   -0.00974427   -0.01580509
     atom   13 type  3   force =    -0.02131375   -0.00986292    0.01474670
     atom   14 type  3   force =     0.02108425    0.01048844   -0.01615644
     atom   15 type  3   force =     0.02384308    0.00949969    0.01620201
     atom   16 type  3   force =     0.02163576   -0.00951184   -0.01631511
     atom   17 type  3   force =     0.02344911   -0.00948232    0.01270536
     atom   18 type  4   force =     0.00014297   -0.00306688    0.00305008
     atom   19 type  4   force =    -0.00966468   -0.00006275   -0.00953914
     atom   20 type  4   force =    -0.00954225    0.00074634    0.00918912
     atom   21 type  4   force =     0.00966051   -0.00020314   -0.00979224
     atom   22 type  4   force =     0.01083327    0.00088627    0.00817981
     atom   23 type  5   force =     0.00000000    0.00000000    0.00000000
     The Hubbard contrib.    to forces
     atom    1 type  1   force =     0.00000000    0.00000000    0.00000000
     atom    2 type  1   force =     0.00000000    0.00000000    0.00000000
     atom    3 type  1   force =     0.00000000    0.00000000    0.00000000
     atom    4 type  1   force =     0.00000000    0.00000000    0.00000000
     atom    5 type  1   force =     0.00000000    0.00000000    0.00000000
     atom    6 type  2   force =     0.00000000    0.00000000    0.00000000
     atom    7 type  2   force =     0.00000000    0.00000000    0.00000000
     atom    8 type  3   force =     0.00000000    0.00000000    0.00000000
     atom    9 type  3   force =     0.00000000    0.00000000    0.00000000
     atom   10 type  3   force =     0.00000000    0.00000000    0.00000000
     atom   11 type  3   force =     0.00000000    0.00000000    0.00000000
     atom   12 type  3   force =     0.00000000    0.00000000    0.00000000
     atom   13 type  3   force =     0.00000000    0.00000000    0.00000000
     atom   14 type  3   force =     0.00000000    0.00000000    0.00000000
     atom   15 type  3   force =     0.00000000    0.00000000    0.00000000
     atom   16 type  3   force =     0.00000000    0.00000000    0.00000000
     atom   17 type  3   force =     0.00000000    0.00000000    0.00000000
     atom   18 type  4   force =     0.00000000    0.00000000    0.00000000
     atom   19 type  4   force =     0.00000000    0.00000000    0.00000000
     atom   20 type  4   force =     0.00000000    0.00000000    0.00000000
     atom   21 type  4   force =     0.00000000    0.00000000    0.00000000
     atom   22 type  4   force =     0.00000000    0.00000000    0.00000000
     atom   23 type  5   force =     0.00000000    0.00000000    0.00000000
     The SCF correction term to forces
     atom    1 type  1   force =     0.01284372    0.00265758   -0.02381896
     atom    2 type  1   force =     0.00025482   -0.00155689   -0.02507562
     atom    3 type  1   force =     0.00135035    0.00247683   -0.02529930
     atom    4 type  1   force =     0.00621004    0.00590939   -0.02491259
     atom    5 type  1   force =     0.00166880   -0.00897586   -0.02792829
     atom    6 type  2   force =     0.01498829   -0.00373021   -0.01465365
     atom    7 type  2   force =     0.01775651   -0.00463520   -0.03080203
     atom    8 type  3   force =     0.00464848   -0.00051138   -0.02633897
     atom    9 type  3   force =     0.02232717    0.00949499   -0.02033256
     atom   10 type  3   force =     0.00484583   -0.00503724    0.01884869
     atom   11 type  3   force =     0.00164444    0.00599711   -0.00465813
     atom   12 type  3   force =     0.00255646    0.00579631    0.01790830
     atom   13 type  3   force =     0.00218331   -0.00527439   -0.00431258
     atom   14 type  3   force =     0.00781551   -0.00249093    0.01525032
     atom   15 type  3   force =     0.01237761    0.00793080   -0.00151914
     atom   16 type  3   force =     0.00902917    0.00498414    0.01636968
     atom   17 type  3   force =     0.00549110   -0.00518385    0.00091839
     atom   18 type  4   force =     0.01400325    0.00123206   -0.01095913
     atom   19 type  4   force =     0.00245336   -0.00068112    0.01467553
     atom   20 type  4   force =     0.00236546   -0.00044505   -0.00228281
     atom   21 type  4   force =     0.01000762   -0.00182108    0.01772556
     atom   22 type  4   force =     0.01172309   -0.00085287   -0.00756077
     atom   23 type  5   force =    -0.00122499   -0.00352966   -0.00410766

     Total force =     0.495345     Total SCF correction =     0.100270
     SCF correction compared to forces is large: reduce conv_thr to get better values


     Computing stress (Cartesian axis) and pressure


     negative rho (up, down):  9.093E-01 9.093E-01
          total   stress  (Ry/bohr**3)                   (kbar)     P=       80.89
   0.00062286   0.00000752   0.00001376           91.63        1.11        2.02
   0.00000752   0.00065669  -0.00001041            1.11       96.60       -1.53
   0.00001376  -0.00001041   0.00037015            2.02       -1.53       54.45


     Entering Dynamics:    iteration =    20
                           time      =   0.0041 pico-seconds


ATOMIC_POSITIONS (angstrom)
Hf            2.6713321430        2.8287584475        6.6051579083
Hf            1.2528912939        1.2879891501        5.0595394867
Hf            1.2554197554        7.3918261774        5.0891887535
Hf            4.0897661431        1.2880319316        5.0595496004
Hf            4.0870741582        7.3916491079        5.0891450916
Nb            2.6715321941        2.7986428974        3.5170172067
Nb            2.6709163014        5.8784897736        6.6357489205
Ta            1.2093638052        4.3429109088        5.0722436390
Ta            4.1059641443        4.3029170039        5.0484124138
Ta            1.3082010731        1.3156367195        2.0591805589
Ta            1.3037936804        1.3098831420        8.0962991020
Ta            1.3050523545        7.3781174137        2.0467010774
Ta            1.3088969351        7.3673206021        8.0878013145
Ta            4.0342279651        1.3156832330        2.0592078460
Ta            4.0386529901        1.3098640270        8.0963727268
Ta            4.0374394513        7.3781360075        2.0467289622
Ta            4.0336531459        7.3674049813        8.0877842627
Zr            2.6714004848        5.8686860142        3.5283891452
Zr            1.2421647883        4.3238200730        1.9984464684
Zr            1.2387657545        4.3561101909        8.1534617555
Zr            4.1002846815        4.3238193121        1.9984886912
Zr            4.1037017032        4.3560186657        8.1534830856
H             5.4824760835        6.2988864725        6.2446424137


     kinetic energy (Ekin) =           8.09638560 Ry
     temperature           =       38736.91459106 K 
     Ekin + Etot (const)   =       -2934.98062047 Ry
     Ions kinetic stress =          142.99 (kbar)
                                    111.55         160.91          97.10
                                    160.91         232.60         140.35
                                     97.10         140.35          84.82



     Linear momentum :   -0.0000000000    0.0000000000    0.0000000000

     The maximum number of steps has been reached.

     End of molecular dynamics calculation

     diffusion coefficients :
     atom     1   D =       0.00000002 cm^2/s
     atom     2   D =       0.00000002 cm^2/s
     atom     3   D =       0.00000002 cm^2/s
     atom     4   D =       0.00000005 cm^2/s
     atom     5   D =       0.00000005 cm^2/s
     atom     6   D =       0.00000003 cm^2/s
     atom     7   D =       0.00000002 cm^2/s
     atom     8   D =       0.00000002 cm^2/s
     atom     9   D =       0.00001054 cm^2/s
     atom    10   D =       0.00000001 cm^2/s
     atom    11   D =       0.00000003 cm^2/s
     atom    12   D =       0.00000003 cm^2/s
     atom    13   D =       0.00000004 cm^2/s
     atom    14   D =       0.00000002 cm^2/s
     atom    15   D =       0.00000003 cm^2/s
     atom    16   D =       0.00000003 cm^2/s
     atom    17   D =       0.00000004 cm^2/s
     atom    18   D =       0.00000004 cm^2/s
     atom    19   D =       0.00000003 cm^2/s
     atom    20   D =       0.00000008 cm^2/s
     atom    21   D =       0.00000009 cm^2/s
     atom    22   D =       0.00000014 cm^2/s
     atom    23   D =       0.00175651 cm^2/s

     < D > =       0.00007686 cm^2/s

     Writing all to output data dir outdir/pwscf.save/

     init_run     :     16.08s CPU     25.31s WALL (       1 calls)
     electrons    :   2349.12s CPU   2925.56s WALL (      20 calls)
     update_pot   :     19.08s CPU     21.09s WALL (      19 calls)
     forces       :    157.59s CPU    184.28s WALL (      20 calls)
     stress       :    309.18s CPU    337.64s WALL (      20 calls)

     Called by init_run:
     wfcinit      :     12.44s CPU     20.48s WALL (       1 calls)
     potinit      :      0.49s CPU      0.60s WALL (       1 calls)
     hinit0       :      0.80s CPU      1.09s WALL (       1 calls)

     Called by electrons:
     c_bands      :   1910.72s CPU   2394.61s WALL (      98 calls)
     sum_band     :    291.49s CPU    355.42s WALL (      98 calls)
     v_of_rho     :     10.06s CPU     12.13s WALL (     118 calls)
     newd         :    166.90s CPU    196.76s WALL (     118 calls)
     mix_rho      :      0.85s CPU      1.17s WALL (      98 calls)

     Called by c_bands:
     init_us_2    :      3.68s CPU      3.80s WALL (     474 calls)
     init_us_2:cp :      3.68s CPU      3.79s WALL (     474 calls)
     regterg      :   1897.28s CPU   2378.23s WALL (     196 calls)

     Called by *egterg:
     rdiaghg      :     58.95s CPU     75.67s WALL (    1485 calls)
     h_psi        :    989.25s CPU   1141.98s WALL (    1525 calls)
     s_psi        :    323.20s CPU    323.93s WALL (    1525 calls)
     g_psi        :      0.70s CPU      0.77s WALL (    1327 calls)

     Called by h_psi:
     h_psi:calbec :    480.61s CPU    592.50s WALL (    1525 calls)
     vloc_psi     :    100.70s CPU    140.24s WALL (    1525 calls)
     add_vuspsi   :    406.70s CPU    407.92s WALL (    1525 calls)

     General routines
     calbec       :    756.23s CPU    930.43s WALL (    1921 calls)
     fft          :      9.48s CPU     28.65s WALL (    2469 calls)
     ffts         :      0.20s CPU      0.31s WALL (      98 calls)
     fftw         :    108.29s CPU    151.82s WALL (  103894 calls)

     Parallel routines

     PWSCF        :  48m 0.83s CPU  58m48.02s WALL


   This run was terminated on:  16:11:28  13Jun2023            

=------------------------------------------------------------------------------=
   JOB DONE.
=------------------------------------------------------------------------------=
