
     Program PWSCF v.7.2 starts on 11Jun2023 at 21: 3:49 

     This program is part of the open-source Quantum ESPRESSO suite
     for quantum simulation of materials; please cite
         "P. Giannozzi et al., J. Phys.:Condens. Matter 21 395502 (2009);
         "P. Giannozzi et al., J. Phys.:Condens. Matter 29 465901 (2017);
         "P. Giannozzi et al., J. Chem. Phys. 152 154105 (2020);
          URL http://www.quantum-espresso.org", 
     in publications or presentations arising from this work. More details at
     http://www.quantum-espresso.org/quote

     Parallel version (MPI), running on    42 processors

     MPI processes distributed on     1 nodes
     185535 MiB available memory on the printing compute node when the environment starts

     Reading input from md_data/md_Hf5Nb2Ta10Zr5H_20steps_100eV_incident45_polar30.in
Warning: card &CELL ignored
Warning: card / ignored

     Current dimensions of program PWSCF are:
     Max number of different atomic species (ntypx) = 10
     Max number of k-points (npk) =  40000
     Max angular momentum in pseudopotentials (lmaxx) =  4

     File outdir/pwscf.update deleted, as requested

     File outdir/pwscf.md deleted, as requested

     gamma-point specific algorithms are used

     R & G space division:  proc/nbgrp/npool/nimage =      42
     Subspace diagonalization in iterative solution of the eigenvalue problem:
     one sub-group per band group will be used
     custom distributed-memory algorithm (size of sub-group:  2*  2 procs)


     Parallelization info
     --------------------
     sticks:   dense  smooth     PW     G-vecs:    dense   smooth      PW
     Min         239     239     59                21459    21459    2676
     Max         242     242     62                21470    21470    2688
     Sum       10131   10131   2529               901547   901547  112647

     Using Slab Decomposition



     bravais-lattice index     =            0
     lattice parameter (alat)  =      16.1383  a.u.
     unit-cell volume          =    5077.2634 (a.u.)^3
     number of atoms/cell      =           23
     number of atomic types    =            5
     number of electrons       =       277.00
     number of Kohn-Sham states=          167
     kinetic-energy cutoff     =     120.0000  Ry
     charge density cutoff     =     480.0000  Ry
     scf convergence threshold =      1.0E-03
     mixing beta               =       0.7000
     number of iterations used =            8  TF        mixing
     energy convergence thresh.=      0.0E+00
     force convergence thresh. =      0.0E+00
     Exchange-correlation=  SLA  PW   PBX  PBC
                           (   1   4   3   4   0   0   0)
     nstep                     =           20


     celldm(1)=  16.138261  celldm(2)=   0.000000  celldm(3)=   0.000000
     celldm(4)=   0.000000  celldm(5)=   0.000000  celldm(6)=   0.000000

     crystal axes: (cart. coord. in units of alat)
               a(1) = (   1.000000   0.000000   0.000000 )  
               a(2) = (   0.000000   1.016393   0.000000 )  
               a(3) = (   0.000000   0.000000   1.188496 )  

     reciprocal axes: (cart. coord. in units 2 pi/alat)
               b(1) = (  1.000000  0.000000  0.000000 )  
               b(2) = (  0.000000  0.983871  0.000000 )  
               b(3) = (  0.000000  0.000000  0.841400 )  


     PseudoPot. # 1 for Hf read from file:
     q-e/pseudo/hf_pbe_v1.uspp.F.UPF
     MD5 check sum: 8ee9378dfe14276e333edf04c5e4aa26
     Pseudo is Ultrasoft + core correction, Zval = 12.0
     Generated by new atomic code, or converted to UPF format
     Using radial grid of  921 points,  8 beta functions with: 
                l(1) =   0
                l(2) =   0
                l(3) =   0
                l(4) =   1
                l(5) =   1
                l(6) =   2
                l(7) =   2
                l(8) =   3
     Q(r) pseudized with  6 coefficients,  rinner =    1.200   1.200   1.200
                                                       1.200   1.200   1.200
                                                       1.200

     PseudoPot. # 2 for Nb read from file:
     q-e/pseudo/nb_pbe_v1.uspp.F.UPF
     MD5 check sum: 573aab8a2fa660278ed4a62cd769473f
     Pseudo is Ultrasoft + core correction, Zval = 13.0
     Generated by new atomic code, or converted to UPF format
     Using radial grid of  887 points,  6 beta functions with: 
                l(1) =   0
                l(2) =   0
                l(3) =   1
                l(4) =   1
                l(5) =   2
                l(6) =   2
     Q(r) pseudized with  6 coefficients,  rinner =    1.000   1.000   1.000
                                                       1.000   1.000

     PseudoPot. # 3 for Ta read from file:
     q-e/pseudo/ta_pbe_v1.uspp.F.UPF
     MD5 check sum: f8bbe9446314a3b8ea5d9f3e3836c939
     Pseudo is Ultrasoft + core correction, Zval = 13.0
     Generated by new atomic code, or converted to UPF format
     Using radial grid of  921 points,  7 beta functions with: 
                l(1) =   0
                l(2) =   0
                l(3) =   1
                l(4) =   1
                l(5) =   2
                l(6) =   2
                l(7) =   3
     Q(r) pseudized with  6 coefficients,  rinner =    1.300   1.300   1.300
                                                       1.300   1.300   1.300
                                                       1.300

     PseudoPot. # 4 for Zr read from file:
     q-e/pseudo/zr_pbe_v1.uspp.F.UPF
     MD5 check sum: 5db81b1e868ab7776c4564c113de050b
     Pseudo is Ultrasoft + core correction, Zval = 12.0
     Generated by new atomic code, or converted to UPF format
     Using radial grid of  887 points,  6 beta functions with: 
                l(1) =   0
                l(2) =   0
                l(3) =   1
                l(4) =   1
                l(5) =   2
                l(6) =   2
     Q(r) pseudized with  6 coefficients,  rinner =    1.200   1.200   1.200
                                                       1.200   1.200

     PseudoPot. # 5 for H  read from file:
     q-e/pseudo/h_pbe_v1.4.uspp.F.UPF
     MD5 check sum: 761ae9a214b05c3daf00ab9f6b793d6f
     Pseudo is Ultrasoft, Zval =  1.0
     Generated by new atomic code, or converted to UPF format
     Using radial grid of  615 points,  2 beta functions with: 
                l(1) =   0
                l(2) =   0
     Q(r) pseudized with  8 coefficients,  rinner =    0.700

     atomic species   valence    mass     pseudopotential
        Hf            12.00   178.49000     Hf( 1.00)
        Nb            13.00    92.90637     Nb( 1.00)
        Ta            13.00   180.94788     Ta( 1.00)
        Zr            12.00    91.22400     Zr( 1.00)
        H              1.00     2.01400     H ( 1.00)

     Starting magnetic structure 
     atomic species   magnetization
        Hf           0.000
        Nb           0.000
        Ta           0.000
        Zr           0.000
        H            0.000

     No symmetry found



   Cartesian axes

     site n.     atom                  positions (alat units)
         1           Hf  tau(   1) = (   0.3126464   0.3310449   0.7732979  )
         2           Hf  tau(   2) = (   0.1467202   0.1506188   0.5923263  )
         3           Hf  tau(   3) = (   0.1470125   0.8653167   0.5957925  )
         4           Hf  tau(   4) = (   0.4785725   0.1506188   0.5923263  )
         5           Hf  tau(   5) = (   0.4782802   0.8653167   0.5957925  )
         6           Nb  tau(   6) = (   0.3126464   0.3275094   0.4116608  )
         7           Nb  tau(   7) = (   0.3126464   0.6881006   0.7769319  )
         8           Ta  tau(   8) = (   0.1416128   0.5083054   0.5938087  )
         9           Ta  tau(   9) = (   0.4836800   0.5083054   0.5938087  )
        10           Ta  tau(  10) = (   0.1530741   0.1538785   0.2410748  )
        11           Ta  tau(  11) = (   0.1525513   0.1532074   0.9478430  )
        12           Ta  tau(  12) = (   0.1526943   0.8636799   0.2396062  )
        13           Ta  tau(  13) = (   0.1531277   0.8624219   0.9468387  )
        14           Ta  tau(  14) = (   0.4722187   0.1538785   0.2410748  )
        15           Ta  tau(  15) = (   0.4727414   0.1532074   0.9478430  )
        16           Ta  tau(  16) = (   0.4725984   0.8636799   0.2396062  )
        17           Ta  tau(  17) = (   0.4721650   0.8624219   0.9468387  )
        18           Zr  tau(  18) = (   0.3126464   0.6869187   0.4130426  )
        19           Zr  tau(  19) = (   0.1456481   0.5060981   0.2341920  )
        20           Zr  tau(  20) = (   0.1452442   0.5098505   0.9543040  )
        21           Zr  tau(  21) = (   0.4796447   0.5060981   0.2341920  )
        22           Zr  tau(  22) = (   0.4800486   0.5098505   0.9543040  )
        23           H   tau(  23) = (   0.6161590   0.6229269   0.6601716  )

     number of k points=     1  Gaussian smearing, width (Ry)=  0.0220
                       cart. coord. in units 2pi/alat
        k(    1) = (   0.0000000   0.0000000   0.0000000), wk =   1.0000000

     Dense  grid:   450774 G-vectors     FFT dimensions: ( 120, 120, 135)

     Estimated max dynamical RAM per process >     123.77 MB

     Estimated total dynamical RAM >       5.08 GB

     Check: negative core charge=   -0.000002
     Generating pointlists ...
     new r_m :   0.1181 (alat units)  1.9052 (a.u.) for type    1
     new r_m :   0.1201 (alat units)  1.9374 (a.u.) for type    2
     new r_m :   0.0773 (alat units)  1.2471 (a.u.) for type    3
     new r_m :   0.1216 (alat units)  1.9625 (a.u.) for type    4
     new r_m :   0.0773 (alat units)  1.2471 (a.u.) for type    5

     Initial potential from superposition of free atoms

     starting charge     266.9726, renormalised to     277.0000

     negative rho (up, down):  9.226E-01 9.226E-01
     Starting wfcs are  287 randomized atomic wfcs

     total cpu time spent up to now is       11.2 secs

     Self-consistent Calculation

     iteration #  1     ecut=   120.00 Ry     beta= 0.70
     Davidson diagonalization with overlap
     ethr =  1.00E-02,  avg # of iterations =  2.0

     negative rho (up, down):  9.852E-01 9.851E-01

     total cpu time spent up to now is       27.1 secs

     total energy              =   -2931.88113744 Ry
     estimated scf accuracy    <     287.24461499 Ry

     total magnetization       =    -0.00 Bohr mag/cell
     absolute magnetization    =     0.11 Bohr mag/cell

     iteration #  2     ecut=   120.00 Ry     beta= 0.70
     Davidson diagonalization with overlap
     ethr =  1.00E-02,  avg # of iterations =  5.0

     negative rho (up, down):  9.444E-01 9.451E-01

     total cpu time spent up to now is       44.0 secs

     total energy              =   -2942.19949088 Ry
     estimated scf accuracy    <      34.81744859 Ry

     total magnetization       =    -0.06 Bohr mag/cell
     absolute magnetization    =     0.39 Bohr mag/cell

     iteration #  3     ecut=   120.00 Ry     beta= 0.70
     Davidson diagonalization with overlap
     ethr =  1.00E-02,  avg # of iterations =  2.0

     negative rho (up, down):  9.721E-01 9.744E-01

     total cpu time spent up to now is       58.7 secs

     total energy              =   -2942.66134207 Ry
     estimated scf accuracy    <      14.80646083 Ry

     total magnetization       =    -0.01 Bohr mag/cell
     absolute magnetization    =     0.46 Bohr mag/cell

     iteration #  4     ecut=   120.00 Ry     beta= 0.70
     Davidson diagonalization with overlap
     ethr =  5.35E-03,  avg # of iterations =  4.0

     negative rho (up, down):  9.664E-01 9.698E-01

     total cpu time spent up to now is       73.1 secs

     total energy              =   -2942.93067980 Ry
     estimated scf accuracy    <       3.17459475 Ry

     total magnetization       =    -0.22 Bohr mag/cell
     absolute magnetization    =     0.57 Bohr mag/cell

     iteration #  5     ecut=   120.00 Ry     beta= 0.70
     Davidson diagonalization with overlap
     ethr =  1.15E-03,  avg # of iterations =  7.0

     negative rho (up, down):  9.431E-01 9.448E-01

     total cpu time spent up to now is       91.6 secs

     total energy              =   -2943.07160122 Ry
     estimated scf accuracy    <       1.62800254 Ry

     total magnetization       =    -0.12 Bohr mag/cell
     absolute magnetization    =     0.28 Bohr mag/cell

     iteration #  6     ecut=   120.00 Ry     beta= 0.70
     Davidson diagonalization with overlap
     ethr =  5.88E-04,  avg # of iterations =  2.0

     negative rho (up, down):  9.307E-01 9.316E-01

     total cpu time spent up to now is      105.7 secs

     total energy              =   -2943.07350701 Ry
     estimated scf accuracy    <       1.11890042 Ry

     total magnetization       =    -0.09 Bohr mag/cell
     absolute magnetization    =     0.21 Bohr mag/cell

     iteration #  7     ecut=   120.00 Ry     beta= 0.70
     Davidson diagonalization with overlap
     ethr =  4.04E-04,  avg # of iterations =  2.0

     negative rho (up, down):  9.129E-01 9.130E-01

     total cpu time spent up to now is      119.5 secs

     total energy              =   -2943.04694683 Ry
     estimated scf accuracy    <       0.30647776 Ry

     total magnetization       =    -0.09 Bohr mag/cell
     absolute magnetization    =     0.18 Bohr mag/cell

     iteration #  8     ecut=   120.00 Ry     beta= 0.70
     Davidson diagonalization with overlap
     ethr =  1.11E-04,  avg # of iterations = 12.0

     negative rho (up, down):  9.070E-01 9.070E-01

     total cpu time spent up to now is      135.7 secs

     total energy              =   -2943.05098466 Ry
     estimated scf accuracy    <       0.24076859 Ry

     total magnetization       =    -0.08 Bohr mag/cell
     absolute magnetization    =     0.14 Bohr mag/cell

     iteration #  9     ecut=   120.00 Ry     beta= 0.70
     Davidson diagonalization with overlap
     ethr =  8.69E-05,  avg # of iterations =  2.0

     negative rho (up, down):  9.080E-01 9.080E-01

     total cpu time spent up to now is      148.9 secs

     total energy              =   -2943.05629391 Ry
     estimated scf accuracy    <       0.05208172 Ry

     total magnetization       =    -0.06 Bohr mag/cell
     absolute magnetization    =     0.10 Bohr mag/cell

     iteration # 10     ecut=   120.00 Ry     beta= 0.70
     Davidson diagonalization with overlap
     ethr =  1.88E-05,  avg # of iterations = 10.0

     negative rho (up, down):  9.090E-01 9.090E-01

     total cpu time spent up to now is      166.5 secs

     total energy              =   -2943.06014148 Ry
     estimated scf accuracy    <       0.04983533 Ry

     total magnetization       =    -0.05 Bohr mag/cell
     absolute magnetization    =     0.08 Bohr mag/cell

     iteration # 11     ecut=   120.00 Ry     beta= 0.70
     Davidson diagonalization with overlap
     ethr =  1.80E-05,  avg # of iterations =  1.0

     negative rho (up, down):  9.098E-01 9.098E-01

     total cpu time spent up to now is      179.2 secs

     total energy              =   -2943.06355017 Ry
     estimated scf accuracy    <       0.00642951 Ry

     total magnetization       =    -0.05 Bohr mag/cell
     absolute magnetization    =     0.08 Bohr mag/cell

     iteration # 12     ecut=   120.00 Ry     beta= 0.70
     Davidson diagonalization with overlap
     ethr =  2.32E-06,  avg # of iterations = 15.0

     negative rho (up, down):  9.100E-01 9.100E-01

     total cpu time spent up to now is      199.5 secs

     total energy              =   -2943.06517649 Ry
     estimated scf accuracy    <       0.00121222 Ry

     total magnetization       =    -0.05 Bohr mag/cell
     absolute magnetization    =     0.06 Bohr mag/cell

     iteration # 13     ecut=   120.00 Ry     beta= 0.70
     Davidson diagonalization with overlap
     ethr =  4.38E-07,  avg # of iterations =  3.5

     negative rho (up, down):  9.098E-01 9.098E-01

     Magnetic moment per site  (integrated on atomic sphere of radius R)
     atom   1 (R=0.118)  charge=  9.1887  magn=  0.0000
     atom   2 (R=0.118)  charge=  8.8379  magn= -0.0001
     atom   3 (R=0.118)  charge=  8.8376  magn= -0.0003
     atom   4 (R=0.118)  charge=  8.8398  magn= -0.0001
     atom   5 (R=0.118)  charge=  8.8328  magn= -0.0003
     atom   6 (R=0.120)  charge= 10.3504  magn= -0.0002
     atom   7 (R=0.120)  charge= 10.3516  magn= -0.0001
     atom   8 (R=0.077)  charge=  5.9459  magn= -0.0001
     atom   9 (R=0.077)  charge=  5.9637  magn= -0.0000
     atom  10 (R=0.077)  charge=  5.9287  magn= -0.0004
     atom  11 (R=0.077)  charge=  5.9284  magn= -0.0003
     atom  12 (R=0.077)  charge=  5.9279  magn= -0.0009
     atom  13 (R=0.077)  charge=  5.9289  magn= -0.0003
     atom  14 (R=0.077)  charge=  5.9289  magn= -0.0007
     atom  15 (R=0.077)  charge=  5.9288  magn= -0.0004
     atom  16 (R=0.077)  charge=  5.9284  magn= -0.0005
     atom  17 (R=0.077)  charge=  5.9305  magn= -0.0004
     atom  18 (R=0.122)  charge=  9.4536  magn=  0.0002
     atom  19 (R=0.122)  charge=  8.9958  magn= -0.0023
     atom  20 (R=0.122)  charge=  8.9941  magn=  0.0009
     atom  21 (R=0.122)  charge=  8.9948  magn= -0.0016
     atom  22 (R=0.122)  charge=  8.9974  magn= -0.0000
     atom  23 (R=0.077)  charge=  0.9042  magn= -0.0000

     total cpu time spent up to now is      214.6 secs

     End of self-consistent calculation

 ------ SPIN UP ------------


          k = 0.0000 0.0000 0.0000 ( 56324 PWs)   bands (ev):

   -59.7646 -59.7612 -59.7188 -59.7186 -59.6821 -59.6741 -59.6366 -59.6362
   -59.5076 -59.1609 -53.3504 -53.3009 -53.2213 -53.1661 -51.6700 -45.2545
   -45.2370 -40.6207 -40.6043 -40.5308 -40.5036 -38.7808 -26.7653 -26.7581
   -26.6760 -26.6754 -26.5796 -26.5742 -26.4550 -26.4432 -26.3413 -26.3092
   -26.2777 -26.2472 -26.2415 -26.2094 -26.1959 -26.1522 -26.1394 -26.1257
   -26.0638 -25.9431 -25.9424 -25.9406 -25.9249 -25.8821 -25.8682 -25.8593
   -25.8409 -25.8394 -25.8274 -25.8190 -23.1362 -22.9195 -22.6292 -22.5318
   -22.2772 -22.1495 -22.1315 -22.0228 -21.8971 -21.8272 -21.7994 -21.5772
   -21.4904 -21.4369 -21.3736 -21.3349 -21.2491 -21.2049 -20.7317 -20.6609
   -20.6007 -19.1707 -18.9182 -18.8061 -18.8031 -18.6099 -18.5790 -18.5759
   -18.5662 -18.5505 -18.5165 -18.3446 -18.3350 -17.1268 -16.9207 -16.7984
     2.2564   3.3360   3.9475   4.1661   4.3429   4.4803   4.5468   4.7030
     4.7343   4.8344   4.9497   5.0773   5.2255   5.5155   5.6892   5.7050
     5.7932   5.8308   6.0598   6.1197   6.2007   6.2946   6.3093   6.3615
     6.4018   6.5721   6.6517   6.7329   6.7562   6.7699   6.7907   6.8512
     6.9845   7.0866   7.1894   7.2687   7.2850   7.3268   7.3875   7.3923
     7.4117   7.6289   7.6926   7.7608   7.9398   7.9971   8.0070   8.1212
     8.1634   8.2173   8.3084   8.3207   8.3346   8.4670   8.5459   8.5751
     8.6337   8.8025   8.8966   8.9730   9.0983   9.1032   9.2589   9.3215
     9.3364   9.3628   9.3822   9.4238   9.4700   9.6342   9.6882   9.7319
     9.9125   9.9799  10.0914  10.1274  10.1681  10.2774  10.2944

 ------ SPIN DOWN ----------


          k = 0.0000 0.0000 0.0000 ( 56324 PWs)   bands (ev):

   -59.7651 -59.7623 -59.7195 -59.7193 -59.6834 -59.6746 -59.6379 -59.6367
   -59.5079 -59.1610 -53.3506 -53.3011 -53.2214 -53.1662 -51.6700 -45.2546
   -45.2373 -40.6204 -40.6060 -40.5302 -40.5053 -38.7807 -26.7662 -26.7597
   -26.6774 -26.6767 -26.5807 -26.5755 -26.4557 -26.4448 -26.3417 -26.3100
   -26.2783 -26.2481 -26.2422 -26.2103 -26.1968 -26.1528 -26.1407 -26.1262
   -26.0644 -25.9441 -25.9436 -25.9414 -25.9265 -25.8829 -25.8694 -25.8603
   -25.8422 -25.8399 -25.8278 -25.8192 -23.1364 -22.9196 -22.6295 -22.5319
   -22.2774 -22.1498 -22.1318 -22.0230 -21.8973 -21.8274 -21.7994 -21.5772
   -21.4907 -21.4371 -21.3738 -21.3351 -21.2494 -21.2051 -20.7318 -20.6608
   -20.6006 -19.1725 -18.9167 -18.8073 -18.8052 -18.6102 -18.5784 -18.5770
   -18.5666 -18.5517 -18.5161 -18.3437 -18.3374 -17.1265 -16.9207 -16.7986
     2.2557   3.3353   3.9457   4.1655   4.3421   4.4790   4.5455   4.7026
     4.7337   4.8335   4.9477   5.0765   5.2244   5.5149   5.6885   5.7038
     5.7924   5.8298   6.0583   6.1189   6.1994   6.2936   6.3083   6.3602
     6.4002   6.5714   6.6514   6.7322   6.7550   6.7692   6.7901   6.8505
     6.9838   7.0850   7.1883   7.2675   7.2843   7.3254   7.3858   7.3914
     7.4104   7.6281   7.6918   7.7598   7.9385   7.9943   8.0050   8.1189
     8.1607   8.2119   8.3048   8.3181   8.3324   8.4622   8.5448   8.5718
     8.6316   8.8006   8.8951   8.9711   9.0967   9.1006   9.2569   9.3181
     9.3352   9.3604   9.3806   9.4219   9.4687   9.6323   9.6868   9.7308
     9.9113   9.9780  10.0885  10.1266  10.1671  10.2765  10.2934

     the Fermi energy is     8.2757 ev

!    total energy              =   -2943.06566346 Ry
     estimated scf accuracy    <       0.00024436 Ry
     smearing contrib. (-TS)   =      -0.10600411 Ry
     internal energy E=F+TS    =   -2942.95965935 Ry

     total magnetization       =    -0.05 Bohr mag/cell
     absolute magnetization    =     0.06 Bohr mag/cell

     convergence has been achieved in  13 iterations

     negative rho (up, down):  9.098E-01 9.098E-01

     Forces acting on atoms (cartesian axes, Ry/au):

     atom    1 type  1   force =     0.00027138   -0.02307948    0.01013522
     atom    2 type  1   force =    -0.12031630   -0.01791820   -0.00093694
     atom    3 type  1   force =    -0.11996460    0.01447184    0.00589085
     atom    4 type  1   force =     0.12539401   -0.01138459   -0.00338721
     atom    5 type  1   force =     0.13075262   -0.01139694    0.00881750
     atom    6 type  2   force =    -0.01060964   -0.02218512    0.00191678
     atom    7 type  2   force =    -0.02399494    0.01096203   -0.00963625
     atom    8 type  3   force =    -0.11818110    0.00669421    0.00182506
     atom    9 type  3   force =     0.03473815   -0.08502233   -0.06694032
     atom   10 type  3   force =    -0.02238781   -0.02675673   -0.05832154
     atom   11 type  3   force =    -0.02491606   -0.03330647    0.05570748
     atom   12 type  3   force =    -0.02076550    0.03260572   -0.05549480
     atom   13 type  3   force =    -0.01237314    0.02968837    0.06141004
     atom   14 type  3   force =     0.02250855   -0.02838590   -0.05905048
     atom   15 type  3   force =     0.02006200   -0.03765624    0.05862184
     atom   16 type  3   force =     0.02175955    0.03705363   -0.05289903
     atom   17 type  3   force =     0.01169281    0.04015671    0.06150712
     atom   18 type  4   force =    -0.00012667    0.02458031   -0.00877123
     atom   19 type  4   force =    -0.13657251   -0.00588614   -0.11626829
     atom   20 type  4   force =    -0.13597442    0.00465053    0.11459373
     atom   21 type  4   force =     0.13197034   -0.00846084   -0.11567642
     atom   22 type  4   force =     0.13687622    0.00270329    0.11474688
     atom   23 type  5   force =     0.11015707    0.10787235    0.05221001
     The non-local contrib.  to forces
     atom    1 type  1   force =     0.00474057   -0.00705361    0.03121841
     atom    2 type  1   force =    -0.24842098   -0.16332278    0.01541512
     atom    3 type  1   force =    -0.24105620    0.15465979   -0.02014460
     atom    4 type  1   force =     0.24710842   -0.16929803    0.02017887
     atom    5 type  1   force =     0.24570030    0.14131176   -0.01095546
     atom    6 type  2   force =     0.00974911   -0.06391193   -0.06987777
     atom    7 type  2   force =    -0.01660447    0.07353462    0.06525484
     atom    8 type  3   force =    -0.25413179    0.00275101    0.00053122
     atom    9 type  3   force =     0.09332181   -0.10243018   -0.05269755
     atom   10 type  3   force =    -0.22339737    0.00198913   -0.21626953
     atom   11 type  3   force =    -0.22554051    0.00982355    0.20109091
     atom   12 type  3   force =    -0.21323429   -0.02502530   -0.18008479
     atom   13 type  3   force =    -0.21470082   -0.00810356    0.20600765
     atom   14 type  3   force =     0.21677067    0.00489127   -0.21929972
     atom   15 type  3   force =     0.22033132    0.00486817    0.20223149
     atom   16 type  3   force =     0.21138657   -0.02213117   -0.18235854
     atom   17 type  3   force =     0.23832451   -0.01843889    0.19206387
     atom   18 type  4   force =    -0.01077552    0.06789993   -0.05658140
     atom   19 type  4   force =     0.06646278    0.00800711    0.07320923
     atom   20 type  4   force =     0.06201329   -0.01616948   -0.06393054
     atom   21 type  4   force =    -0.06347972    0.01177066    0.06789897
     atom   22 type  4   force =    -0.05800350   -0.00909529   -0.05436142
     atom   23 type  5   force =    -0.05808069   -0.04012882   -0.02993047
     The ionic contribution  to forces
     atom    1 type  1   force =    -0.23510887   -4.81049640   14.29096586
     atom    2 type  1   force =   -35.67712726   -6.15349815    0.74348569
     atom    3 type  1   force =   -35.68711713    6.25399606   -0.76748211
     atom    4 type  1   force =    35.54768964   -6.21098584    0.71287282
     atom    5 type  1   force =    35.13761014    6.96771213   -0.96199999
     atom    6 type  2   force =    -0.16104634   -3.69321465  -14.27267522
     atom    7 type  2   force =    -0.67427098    3.72704034   14.42189695
     atom    8 type  3   force =   -47.63700849   -0.03666213   -0.14193147
     atom    9 type  3   force =    45.61086415   -1.62348681   -1.06376682
     atom   10 type  3   force =   -32.19773227   -2.09736529  -23.47894396
     atom   11 type  3   force =   -31.27301652   -0.85306825   22.50679000
     atom   12 type  3   force =   -31.38879337    0.84288512  -22.56036452
     atom   13 type  3   force =   -32.19710959    2.26501361   23.53391519
     atom   14 type  3   force =    32.13921473   -2.10984467  -23.52266297
     atom   15 type  3   force =    31.18291246   -0.88074550   22.57480069
     atom   16 type  3   force =    31.28596148    0.91081949  -22.67483787
     atom   17 type  3   force =    31.97753412    2.46220855   23.78040217
     atom   18 type  4   force =    -0.32644958    4.42202953  -14.36542747
     atom   19 type  4   force =   -32.18376600    0.92274868  -25.96068389
     atom   20 type  4   force =   -32.17471779   -1.01469542   25.99239216
     atom   21 type  4   force =    32.06596401    0.87335671  -26.12588625
     atom   22 type  4   force =    31.87110698   -1.18295271   26.43265233
     atom   23 type  5   force =     4.99440647    1.01920559    0.90648868
     The local contribution  to forces
     atom    1 type  1   force =     0.23345957    4.79009054  -14.31381109
     atom    2 type  1   force =    35.81770656    6.29696943   -0.75650552
     atom    3 type  1   force =    35.82221763   -6.39218074    0.80187041
     atom    4 type  1   force =   -35.68084364    6.37010124   -0.73436228
     atom    5 type  1   force =   -35.26027042   -7.12282157    0.98945342
     atom    6 type  2   force =     0.14406554    3.72994337   14.35183046
     atom    7 type  2   force =     0.66850282   -3.78313877  -14.49645633
     atom    8 type  3   force =    47.79919235    0.03785116    0.14745314
     atom    9 type  3   force =   -45.67254214    1.65180576    1.06050080
     atom   10 type  3   force =    32.41885649    2.06502446   23.66179424
     atom   11 type  3   force =    31.50051248    0.79800731  -22.67978933
     atom   12 type  3   force =    31.59995466   -0.77415247   22.70472666
     atom   13 type  3   force =    32.42379450   -2.21685610  -23.70203810
     atom   14 type  3   force =   -32.35118001    2.07117270   23.70751859
     atom   15 type  3   force =   -31.40514893    0.82609009  -22.74318836
     atom   16 type  3   force =   -31.49232225   -0.84064488   22.82435206
     atom   17 type  3   force =   -32.22747865   -2.39223739  -23.93301775
     atom   18 type  4   force =     0.34064632   -4.46406933   14.42297830
     atom   19 type  4   force =    31.98434461   -0.94063336   25.78492556
     atom   20 type  4   force =    31.98311228    1.03594253  -25.82829450
     atom   21 type  4   force =   -31.87177787   -0.89631798   25.95783518
     atom   22 type  4   force =   -31.68029654    1.19382995  -26.27871302
     atom   23 type  5   force =    -4.82541868   -0.87168769   -0.82412885
     The core correction contribution to forces
     atom    1 type  1   force =     0.00047485    0.00231610   -0.00153865
     atom    2 type  1   force =    -0.01086970   -0.00124611    0.00046910
     atom    3 type  1   force =    -0.01191481    0.00266190   -0.00156197
     atom    4 type  1   force =     0.01134628   -0.00233336    0.00222775
     atom    5 type  1   force =     0.00718545    0.00547273   -0.00180541
     atom    6 type  2   force =    -0.00027513    0.00330663    0.00325624
     atom    7 type  2   force =     0.00088280   -0.00367426   -0.00255819
     atom    8 type  3   force =    -0.02965689    0.00113267    0.00030768
     atom    9 type  3   force =     0.00998670   -0.01298438   -0.00715419
     atom   10 type  3   force =    -0.02280371    0.00824976   -0.01680011
     atom   11 type  3   force =    -0.02556168    0.00888120    0.01855384
     atom   12 type  3   force =    -0.02233857   -0.00993208   -0.01499998
     atom   13 type  3   force =    -0.02293924   -0.00920419    0.01594918
     atom   14 type  3   force =     0.02239007    0.00871721   -0.01687136
     atom   15 type  3   force =     0.02385516    0.00947597    0.01643543
     atom   16 type  3   force =     0.02319071   -0.01053996   -0.01481164
     atom   17 type  3   force =     0.02400028   -0.00864643    0.01440910
     atom   18 type  4   force =     0.00062607   -0.00355644    0.00276189
     atom   19 type  4   force =    -0.01006533    0.00009829   -0.00960787
     atom   20 type  4   force =    -0.00993064    0.00050130    0.00911523
     atom   21 type  4   force =     0.00988060   -0.00007469   -0.00927247
     atom   22 type  4   force =     0.01004562    0.00040307    0.00810789
     atom   23 type  5   force =     0.00000000    0.00000000    0.00000000
     The Hubbard contrib.    to forces
     atom    1 type  1   force =     0.00000000    0.00000000    0.00000000
     atom    2 type  1   force =     0.00000000    0.00000000    0.00000000
     atom    3 type  1   force =     0.00000000    0.00000000    0.00000000
     atom    4 type  1   force =     0.00000000    0.00000000    0.00000000
     atom    5 type  1   force =     0.00000000    0.00000000    0.00000000
     atom    6 type  2   force =     0.00000000    0.00000000    0.00000000
     atom    7 type  2   force =     0.00000000    0.00000000    0.00000000
     atom    8 type  3   force =     0.00000000    0.00000000    0.00000000
     atom    9 type  3   force =     0.00000000    0.00000000    0.00000000
     atom   10 type  3   force =     0.00000000    0.00000000    0.00000000
     atom   11 type  3   force =     0.00000000    0.00000000    0.00000000
     atom   12 type  3   force =     0.00000000    0.00000000    0.00000000
     atom   13 type  3   force =     0.00000000    0.00000000    0.00000000
     atom   14 type  3   force =     0.00000000    0.00000000    0.00000000
     atom   15 type  3   force =     0.00000000    0.00000000    0.00000000
     atom   16 type  3   force =     0.00000000    0.00000000    0.00000000
     atom   17 type  3   force =     0.00000000    0.00000000    0.00000000
     atom   18 type  4   force =     0.00000000    0.00000000    0.00000000
     atom   19 type  4   force =     0.00000000    0.00000000    0.00000000
     atom   20 type  4   force =     0.00000000    0.00000000    0.00000000
     atom   21 type  4   force =     0.00000000    0.00000000    0.00000000
     atom   22 type  4   force =     0.00000000    0.00000000    0.00000000
     atom   23 type  5   force =     0.00000000    0.00000000    0.00000000
     The SCF correction term to forces
     atom    1 type  1   force =    -0.00000000    0.00000000    0.00000000
     atom    2 type  1   force =    -0.00000000    0.00000000   -0.00000000
     atom    3 type  1   force =    -0.00000000   -0.00000000   -0.00000000
     atom    4 type  1   force =     0.00000000    0.00000000   -0.00000000
     atom    5 type  1   force =     0.00000000   -0.00000000   -0.00000000
     atom    6 type  2   force =    -0.00000000    0.00000000   -0.00000000
     atom    7 type  2   force =    -0.00000000   -0.00000000    0.00000000
     atom    8 type  3   force =     0.00000000    0.00000000   -0.00000000
     atom    9 type  3   force =    -0.00000000    0.00000000   -0.00000000
     atom   10 type  3   force =     0.00291734   -0.00466868   -0.00780072
     atom   11 type  3   force =    -0.00108154    0.00303584    0.00936353
     atom   12 type  3   force =     0.00387436   -0.00118345   -0.00447070
     atom   13 type  3   force =    -0.00118970   -0.00117528    0.00787759
     atom   14 type  3   force =    -0.00445863   -0.00333630   -0.00743355
     atom   15 type  3   force =    -0.00165973    0.00264113    0.00864406
     atom   16 type  3   force =    -0.00622867   -0.00046373   -0.00494157
     atom   17 type  3   force =    -0.00045916   -0.00274303    0.00795120
     atom   18 type  4   force =    -0.00394566    0.00226274   -0.01220108
     atom   19 type  4   force =     0.00667972    0.00387926   -0.00380987
     atom   20 type  4   force =     0.00377674   -0.00094229    0.00561284
     atom   21 type  4   force =    -0.00838839    0.00279057   -0.00595036
     atom   22 type  4   force =    -0.00574805    0.00050438    0.00736257
     atom   23 type  5   force =    -0.00052174    0.00046938    0.00008213

     Total force =     0.439168     Total SCF correction =     0.032978


     Computing stress (Cartesian axis) and pressure


     negative rho (up, down):  9.098E-01 9.098E-01
          total   stress  (Ry/bohr**3)                   (kbar)     P=       93.77
   0.00070793   0.00004502   0.00001666          104.14        6.62        2.45
   0.00004502   0.00076155   0.00001598            6.62      112.03        2.35
   0.00001666   0.00001598   0.00044292            2.45        2.35       65.16


     Molecular Dynamics Calculation

     Starting temperature  =   300.00 K

     temperature is set once at start

     mass Hf               =   178.49
     mass Nb               =    92.91
     mass Ta               =   180.95
     mass Zr               =    91.22
     mass H                =     2.01
     Time step             =     4.20 a.u.,  0.2032 femto-seconds

     Entering Dynamics:    iteration =     1
                           time      =   0.0002 pico-seconds


ATOMIC_POSITIONS (angstrom)
Hf            2.6699999570        2.8271230292        6.6039642186    0   0   0
Hf            1.2529906802        1.2862841814        5.0584662261    0   0   0
Hf            1.2554868986        7.3898042948        5.0880677674    0   0   0
Hf            4.0870092338        1.2862841814        5.0584662261    0   0   0
Hf            4.0845130154        7.3898042948        5.0880677674    0   0   0
Nb            2.6699999570        2.7969306055        3.5155832167    0   0   0
Nb            2.6699999570        5.8763786763        6.6349979432    0   0   0
Ta            1.2093730560        4.3409278516        5.0711258323    0   0   0
Ta            4.1306268580        4.3409278516        5.0711258323    0   0   0
Ta            1.3072520505        1.3141218322        2.0587774596
Ta            1.3027876091        1.3083901934        8.0945807789
Ta            1.3040090344        7.3758270468        2.0462356093
Ta            1.3077104482        7.3650837886        8.0860039587
Ta            4.0327478669        1.3141217861        2.0587774390
Ta            4.0372121676        1.3083900703        8.0945808614
Ta            4.0359909077        7.3758271727        2.0462356828
Ta            4.0322894465        7.3650840848        8.0860039615
Zr            2.6699999499        5.8662872232        3.5273834380
Zr            1.2438269526        4.3220776341        1.9999934733
Zr            1.2403777798        4.3541235456        8.1497619820
Zr            4.0961727031        4.3220774896        1.9999935066
Zr            4.0996221848        4.3541234362        8.1497619906
H             5.1919564934        5.2591724114        5.6028373189


     kinetic energy (Ekin) =           1.83759633 Ry
     temperature           =       13815.88157946 K 
     Ekin + Etot (const)   =       -2941.22806713 Ry
     Ions kinetic stress =           35.49 (kbar)
                                     53.24          46.11          26.62
                                     46.11          39.93          23.05
                                     26.62          23.05          13.31



     File outdir/pwscf.msd.dat deleted, as requested

     Writing config-only to output data dir outdir/pwscf.save/
     NEW-OLD atomic charge density approx. for the potential

     Check: negative core charge=   -0.000002

     negative rho (up, down):  9.097E-01 9.098E-01
     Generating pointlists ...
     new r_m :   0.0725 (alat units)  1.1699 (a.u.) for type    3
     new r_m :   0.0725 (alat units)  1.1699 (a.u.) for type    5

     total cpu time spent up to now is      237.1 secs

     Self-consistent Calculation

     iteration #  1     ecut=   120.00 Ry     beta= 0.70
     Davidson diagonalization with overlap
     ethr =  1.00E-06,  avg # of iterations =  6.0

     negative rho (up, down):  9.099E-01 9.099E-01

     total cpu time spent up to now is      260.3 secs

     total energy              =   -2943.02471493 Ry
     estimated scf accuracy    <       0.01818008 Ry

     total magnetization       =    -0.05 Bohr mag/cell
     absolute magnetization    =     0.06 Bohr mag/cell

     iteration #  2     ecut=   120.00 Ry     beta= 0.70
     Davidson diagonalization with overlap
     ethr =  6.56E-06,  avg # of iterations =  2.0

     negative rho (up, down):  9.098E-01 9.098E-01

     total cpu time spent up to now is      274.4 secs

     total energy              =   -2943.02604852 Ry
     estimated scf accuracy    <       0.00815531 Ry

     total magnetization       =    -0.05 Bohr mag/cell
     absolute magnetization    =     0.05 Bohr mag/cell

     iteration #  3     ecut=   120.00 Ry     beta= 0.70
     Davidson diagonalization with overlap
     ethr =  2.94E-06,  avg # of iterations =  1.0

     negative rho (up, down):  9.097E-01 9.097E-01

     Magnetic moment per site  (integrated on atomic sphere of radius R)
     atom   1 (R=0.118)  charge=  9.1889  magn=  0.0000
     atom   2 (R=0.118)  charge=  8.8373  magn= -0.0001
     atom   3 (R=0.118)  charge=  8.8376  magn= -0.0002
     atom   4 (R=0.118)  charge=  8.8406  magn= -0.0001
     atom   5 (R=0.118)  charge=  8.8324  magn= -0.0002
     atom   6 (R=0.120)  charge= 10.3521  magn= -0.0000
     atom   7 (R=0.120)  charge= 10.3511  magn= -0.0001
     atom   8 (R=0.072)  charge=  5.2382  magn= -0.0001
     atom   9 (R=0.072)  charge=  5.2560  magn= -0.0000
     atom  10 (R=0.072)  charge=  5.2237  magn= -0.0003
     atom  11 (R=0.072)  charge=  5.2202  magn= -0.0002
     atom  12 (R=0.072)  charge=  5.2231  magn= -0.0007
     atom  13 (R=0.072)  charge=  5.2220  magn= -0.0002
     atom  14 (R=0.072)  charge=  5.2233  magn= -0.0005
     atom  15 (R=0.072)  charge=  5.2205  magn= -0.0003
     atom  16 (R=0.072)  charge=  5.2234  magn= -0.0005
     atom  17 (R=0.072)  charge=  5.2218  magn= -0.0003
     atom  18 (R=0.122)  charge=  9.4565  magn=  0.0001
     atom  19 (R=0.122)  charge=  8.9978  magn= -0.0020
     atom  20 (R=0.122)  charge=  8.9933  magn=  0.0004
     atom  21 (R=0.122)  charge=  8.9985  magn= -0.0018
     atom  22 (R=0.122)  charge=  8.9961  magn= -0.0001
     atom  23 (R=0.072)  charge=  0.8827  magn= -0.0000

     total cpu time spent up to now is      286.8 secs

     End of self-consistent calculation

 ------ SPIN UP ------------


          k = 0.0000 0.0000 0.0000 ( 56324 PWs)   bands (ev):

   -59.7700 -59.7598 -59.7265 -59.7134 -59.6928 -59.6659 -59.6472 -59.6294
   -59.5173 -59.0664 -53.3682 -53.3217 -53.2385 -53.1858 -51.6789 -45.2565
   -45.2505 -40.6202 -40.6157 -40.5308 -40.5147 -38.7916 -26.7712 -26.7595
   -26.6872 -26.6714 -26.5858 -26.5723 -26.4578 -26.4480 -26.3438 -26.3122
   -26.2801 -26.2549 -26.2383 -26.2169 -26.1932 -26.1578 -26.1475 -26.1248
   -26.0718 -25.9522 -25.9373 -25.9358 -25.9331 -25.8783 -25.8712 -25.8556
   -25.8425 -25.8305 -25.7783 -25.7470 -23.1514 -22.9358 -22.6433 -22.5481
   -22.2928 -22.1639 -22.1458 -22.0369 -21.9124 -21.8447 -21.8149 -21.5950
   -21.4985 -21.4462 -21.3832 -21.3431 -21.2625 -21.2167 -20.7409 -20.6694
   -20.6086 -19.1820 -18.9194 -18.8177 -18.8140 -18.6090 -18.5860 -18.5806
   -18.5698 -18.5583 -18.5178 -18.3470 -18.3447 -17.1374 -16.9317 -16.8098
     2.2119   3.2621   3.9391   4.1599   4.3349   4.4825   4.5398   4.7000
     4.7347   4.8296   4.9427   5.0717   5.2264   5.5031   5.6845   5.6983
     5.7870   5.8221   6.0525   6.1073   6.1922   6.2892   6.3021   6.3520
     6.3931   6.5640   6.6582   6.7266   6.7509   6.7642   6.7866   6.8528
     6.9812   7.0852   7.1865   7.2650   7.2772   7.3295   7.3809   7.3855
     7.3993   7.6279   7.6911   7.7592   7.9371   7.9897   8.0037   8.1162
     8.1523   8.2096   8.2962   8.3141   8.3267   8.4596   8.5407   8.5653
     8.6282   8.7942   8.8888   8.9698   9.0917   9.0979   9.2512   9.3183
     9.3366   9.3572   9.3782   9.4268   9.4680   9.6296   9.6840   9.7280
     9.9103   9.9781  10.0838  10.1224  10.1609  10.2778  10.2889

 ------ SPIN DOWN ----------


          k = 0.0000 0.0000 0.0000 ( 56324 PWs)   bands (ev):

   -59.7710 -59.7604 -59.7274 -59.7141 -59.6940 -59.6665 -59.6485 -59.6300
   -59.5175 -59.0665 -53.3682 -53.3218 -53.2385 -53.1859 -51.6790 -45.2566
   -45.2505 -40.6201 -40.6173 -40.5305 -40.5164 -38.7915 -26.7728 -26.7604
   -26.6889 -26.6723 -26.5872 -26.5732 -26.4594 -26.4489 -26.3443 -26.3130
   -26.2806 -26.2560 -26.2390 -26.2180 -26.1939 -26.1586 -26.1485 -26.1254
   -26.0722 -25.9537 -25.9384 -25.9365 -25.9344 -25.8797 -25.8723 -25.8569
   -25.8433 -25.8310 -25.7784 -25.7472 -23.1515 -22.9359 -22.6435 -22.5482
   -22.2929 -22.1641 -22.1460 -22.0370 -21.9125 -21.8449 -21.8150 -21.5951
   -21.4986 -21.4463 -21.3833 -21.3432 -21.2627 -21.2168 -20.7410 -20.6694
   -20.6086 -19.1838 -18.9185 -18.8193 -18.8159 -18.6092 -18.5874 -18.5806
   -18.5704 -18.5592 -18.5177 -18.3492 -18.3445 -17.1373 -16.9317 -16.8100
     2.2113   3.2613   3.9374   4.1594   4.3341   4.4813   4.5387   4.6995
     4.7341   4.8288   4.9409   5.0709   5.2253   5.5025   5.6837   5.6973
     5.7862   5.8211   6.0510   6.1062   6.1910   6.2882   6.3011   6.3508
     6.3916   6.5634   6.6577   6.7256   6.7497   6.7634   6.7859   6.8522
     6.9805   7.0837   7.1854   7.2640   7.2765   7.3282   7.3794   7.3846
     7.3980   7.6270   7.6902   7.7583   7.9357   7.9867   8.0020   8.1138
     8.1498   8.2047   8.2923   8.3114   8.3250   8.4551   8.5395   8.5621
     8.6261   8.7924   8.8874   8.9682   9.0902   9.0953   9.2494   9.3151
     9.3354   9.3549   9.3765   9.4250   9.4667   9.6277   9.6825   9.7268
     9.9091   9.9762  10.0811  10.1214  10.1598  10.2769  10.2879

     the Fermi energy is     8.2682 ev

!    total energy              =   -2943.02598839 Ry
     estimated scf accuracy    <       0.00073415 Ry
     smearing contrib. (-TS)   =      -0.10630956 Ry
     internal energy E=F+TS    =   -2942.91967884 Ry

     total magnetization       =    -0.05 Bohr mag/cell
     absolute magnetization    =     0.05 Bohr mag/cell

     convergence has been achieved in   3 iterations

     negative rho (up, down):  9.097E-01 9.097E-01

     Forces acting on atoms (cartesian axes, Ry/au):

     atom    1 type  1   force =    -0.00270697   -0.02311207    0.01186355
     atom    2 type  1   force =    -0.11766068   -0.01691703   -0.00922900
     atom    3 type  1   force =    -0.11736916    0.01230774   -0.00359579
     atom    4 type  1   force =     0.12356203   -0.01547242   -0.01167158
     atom    5 type  1   force =     0.12551419   -0.00868037   -0.00092981
     atom    6 type  2   force =    -0.00973550   -0.02269108    0.00259780
     atom    7 type  2   force =    -0.02361634    0.01073579   -0.00667487
     atom    8 type  3   force =    -0.11813258    0.00794742    0.00102031
     atom    9 type  3   force =    -0.03523705   -0.14540420   -0.10567399
     atom   10 type  3   force =    -0.01899812   -0.02798906   -0.05770687
     atom   11 type  3   force =    -0.02447140   -0.03208532    0.06188674
     atom   12 type  3   force =    -0.01677344    0.03280626   -0.05431406
     atom   13 type  3   force =    -0.01235301    0.02783967    0.06707576
     atom   14 type  3   force =     0.01939525   -0.02971886   -0.05850703
     atom   15 type  3   force =     0.02021926   -0.03604491    0.06464022
     atom   16 type  3   force =     0.01857978    0.03700886   -0.05184001
     atom   17 type  3   force =     0.01262426    0.03746212    0.06690047
     atom   18 type  4   force =    -0.00102024    0.02835160   -0.01279454
     atom   19 type  4   force =    -0.13326357   -0.00493398   -0.11523608
     atom   20 type  4   force =    -0.13397918    0.00429024    0.11853994
     atom   21 type  4   force =     0.12895800   -0.00731769   -0.11708889
     atom   22 type  4   force =     0.13377231    0.00320165    0.12112797
     atom   23 type  5   force =     0.18269213    0.16841566    0.08960977
     The non-local contrib.  to forces
     atom    1 type  1   force =     0.00311693   -0.00735089    0.03146994
     atom    2 type  1   force =    -0.24788703   -0.16216442    0.01041851
     atom    3 type  1   force =    -0.24149460    0.15305204   -0.02646765
     atom    4 type  1   force =     0.24616499   -0.17092795    0.01482495
     atom    5 type  1   force =     0.24492362    0.14125347   -0.01848693
     atom    6 type  2   force =     0.01018662   -0.06358341   -0.06963190
     atom    7 type  2   force =    -0.01402659    0.07404204    0.06497583
     atom    8 type  3   force =    -0.25358464    0.00258221   -0.00334640
     atom    9 type  3   force =     0.10654118   -0.09000093   -0.05148062
     atom   10 type  3   force =    -0.22082727   -0.00020529   -0.21996485
     atom   11 type  3   force =    -0.22659508    0.01163530    0.20601600
     atom   12 type  3   force =    -0.20920436   -0.02506879   -0.18159150
     atom   13 type  3   force =    -0.21460026   -0.01029746    0.21099391
     atom   14 type  3   force =     0.21189391    0.00391893   -0.22143547
     atom   15 type  3   force =     0.21992753    0.00608466    0.20775864
     atom   16 type  3   force =     0.20628162   -0.02237482   -0.18334305
     atom   17 type  3   force =     0.23513652   -0.01790653    0.20052663
     atom   18 type  4   force =    -0.01216742    0.06968893   -0.06067176
     atom   19 type  4   force =     0.06958390    0.00888609    0.07311842
     atom   20 type  4   force =     0.06320238   -0.01563721   -0.06182616
     atom   21 type  4   force =    -0.06670345    0.01251010    0.06610642
     atom   22 type  4   force =    -0.05973393   -0.00874129   -0.04987950
     atom   23 type  5   force =    -0.06889320   -0.05166628   -0.03613911
     The ionic contribution  to forces
     atom    1 type  1   force =    -0.25037033   -4.82489220   14.30325745
     atom    2 type  1   force =   -35.68334702   -6.15923051    0.74526013
     atom    3 type  1   force =   -35.69931010    6.25596502   -0.76391112
     atom    4 type  1   force =    35.54980956   -6.23081277    0.71495731
     atom    5 type  1   force =    35.17341008    6.97682508   -0.94300404
     atom    6 type  2   force =    -0.17367491   -3.70536659  -14.28311420
     atom    7 type  2   force =    -0.69251460    3.75218121   14.44562911
     atom    8 type  3   force =   -47.66241752   -0.03339638   -0.13915629
     atom    9 type  3   force =    45.33313543   -1.86319441   -1.20161186
     atom   10 type  3   force =   -32.20068145   -2.10013296  -23.48090787
     atom   11 type  3   force =   -31.27694846   -0.85666654   22.50756622
     atom   12 type  3   force =   -31.39313929    0.84410714  -22.56172991
     atom   13 type  3   force =   -32.20324819    2.26470447   23.53266699
     atom   14 type  3   force =    32.14006863   -2.11557029  -23.52711005
     atom   15 type  3   force =    31.18582607   -0.88949835   22.57779328
     atom   16 type  3   force =    31.28906044    0.91524841  -22.67854371
     atom   17 type  3   force =    31.99357057    2.45781113   23.77143178
     atom   18 type  4   force =    -0.34434211    4.43662070  -14.38016254
     atom   19 type  4   force =   -32.18945203    0.92391728  -25.96454217
     atom   20 type  4   force =   -32.18416883   -1.01152400   25.99440767
     atom   21 type  4   force =    32.06581192    0.87365126  -26.14320938
     atom   22 type  4   force =    31.88197019   -1.17285969   26.45056258
     atom   23 type  5   force =     5.34095195    1.26211298    1.02347061
     The local contribution  to forces
     atom    1 type  1   force =     0.23334363    4.80335068  -14.32908779
     atom    2 type  1   force =    35.83161571    6.30616545   -0.79210902
     atom    3 type  1   force =    35.84181836   -6.40002782    0.76122343
     atom    4 type  1   force =   -35.69622042    6.37896351   -0.76994268
     atom    5 type  1   force =   -35.31629593   -7.12203183    0.93289805
     atom    6 type  2   force =     0.14165397    3.72596039   14.31981134
     atom    7 type  2   force =     0.66948076   -3.80770539  -14.52458265
     atom    8 type  3   force =    47.82972516    0.03914012    0.11797458
     atom    9 type  3   force =   -45.49000424    1.83517285    1.13588747
     atom   10 type  3   force =    32.43690843    2.05575050   23.65727540
     atom   11 type  3   force =    31.50269910    0.80803068  -22.65386581
     atom   12 type  3   force =    31.61904530   -0.76993451   22.70126382
     atom   13 type  3   force =    32.42502597   -2.22470484  -23.67659243
     atom   14 type  3   force =   -32.37063089    2.06330186   23.70217485
     atom   15 type  3   force =   -31.41116614    0.84283025  -22.72086716
     atom   16 type  3   force =   -31.51418143   -0.83904975   22.82105082
     atom   17 type  3   force =   -32.24314865   -2.39880732  -23.90359191
     atom   18 type  4   force =     0.34493526   -4.45784878   14.39585027
     atom   19 type  4   force =    32.00667493   -0.93585667   25.78288083
     atom   20 type  4   force =    31.99922283    1.03294361  -25.81006962
     atom   21 type  4   force =   -31.89499196   -0.89074525   25.95729714
     atom   22 type  4   force =   -31.70760029    1.18521013  -26.26678698
     atom   23 type  5   force =    -5.09150352   -1.04218306   -0.90061457
     The core correction contribution to forces
     atom    1 type  1   force =     0.00055157    0.00223670   -0.00154040
     atom    2 type  1   force =    -0.01092770   -0.00121338    0.00044392
     atom    3 type  1   force =    -0.01197198    0.00259972   -0.00164562
     atom    4 type  1   force =     0.01139547   -0.00243084    0.00212743
     atom    5 type  1   force =     0.00746655    0.00510566   -0.00170793
     atom    6 type  2   force =    -0.00022310    0.00338940    0.00334304
     atom    7 type  2   force =     0.00071343   -0.00365202   -0.00251050
     atom    8 type  3   force =    -0.02956364    0.00111314    0.00031998
     atom    9 type  3   force =     0.00970301   -0.01294147   -0.00747633
     atom   10 type  3   force =    -0.02256425    0.00823097   -0.01683877
     atom   11 type  3   force =    -0.02562938    0.00895095    0.01865469
     atom   12 type  3   force =    -0.02216956   -0.00999687   -0.01499005
     atom   13 type  3   force =    -0.02288283   -0.00927043    0.01607632
     atom   14 type  3   force =     0.02216238    0.00871441   -0.01698286
     atom   15 type  3   force =     0.02386810    0.00943699    0.01668550
     atom   16 type  3   force =     0.02280319   -0.01052462   -0.01477644
     atom   17 type  3   force =     0.02379527   -0.00840998    0.01494387
     atom   18 type  4   force =     0.00063002   -0.00351839    0.00274234
     atom   19 type  4   force =    -0.01013437    0.00009719   -0.00967955
     atom   20 type  4   force =    -0.00994604    0.00048371    0.00914787
     atom   21 type  4   force =     0.00990916   -0.00007769   -0.00933992
     atom   22 type  4   force =     0.00999465    0.00036795    0.00811144
     atom   23 type  5   force =     0.00000000    0.00000000    0.00000000
     The Hubbard contrib.    to forces
     atom    1 type  1   force =     0.00000000    0.00000000    0.00000000
     atom    2 type  1   force =     0.00000000    0.00000000    0.00000000
     atom    3 type  1   force =     0.00000000    0.00000000    0.00000000
     atom    4 type  1   force =     0.00000000    0.00000000    0.00000000
     atom    5 type  1   force =     0.00000000    0.00000000    0.00000000
     atom    6 type  2   force =     0.00000000    0.00000000    0.00000000
     atom    7 type  2   force =     0.00000000    0.00000000    0.00000000
     atom    8 type  3   force =     0.00000000    0.00000000    0.00000000
     atom    9 type  3   force =     0.00000000    0.00000000    0.00000000
     atom   10 type  3   force =     0.00000000    0.00000000    0.00000000
     atom   11 type  3   force =     0.00000000    0.00000000    0.00000000
     atom   12 type  3   force =     0.00000000    0.00000000    0.00000000
     atom   13 type  3   force =     0.00000000    0.00000000    0.00000000
     atom   14 type  3   force =     0.00000000    0.00000000    0.00000000
     atom   15 type  3   force =     0.00000000    0.00000000    0.00000000
     atom   16 type  3   force =     0.00000000    0.00000000    0.00000000
     atom   17 type  3   force =     0.00000000    0.00000000    0.00000000
     atom   18 type  4   force =     0.00000000    0.00000000    0.00000000
     atom   19 type  4   force =     0.00000000    0.00000000    0.00000000
     atom   20 type  4   force =     0.00000000    0.00000000    0.00000000
     atom   21 type  4   force =     0.00000000    0.00000000    0.00000000
     atom   22 type  4   force =     0.00000000    0.00000000    0.00000000
     atom   23 type  5   force =     0.00000000    0.00000000    0.00000000
     The SCF correction term to forces
     atom    1 type  1   force =     0.00000000    0.00000000    0.00000000
     atom    2 type  1   force =    -0.00000000   -0.00000000    0.00000000
     atom    3 type  1   force =    -0.00000000    0.00000000    0.00000000
     atom    4 type  1   force =     0.00000000    0.00000000    0.00000000
     atom    5 type  1   force =     0.00000000   -0.00000000    0.00000000
     atom    6 type  2   force =     0.00000000    0.00000000    0.00000000
     atom    7 type  2   force =     0.00000000   -0.00000000    0.00000000
     atom    8 type  3   force =    -0.00000000   -0.00000000    0.00000000
     atom    9 type  3   force =     0.00000000   -0.00000000    0.00000000
     atom   10 type  3   force =    -0.01243405    0.00846784    0.00115501
     atom   11 type  3   force =     0.00140195   -0.00393557   -0.01805857
     atom   12 type  3   force =    -0.01190601   -0.00620057    0.00115938
     atom   13 type  3   force =     0.00275182    0.00750805   -0.01764323
     atom   14 type  3   force =     0.01530073    0.01001635    0.00327230
     atom   15 type  3   force =     0.00116323   -0.00479833   -0.01830424
     atom   16 type  3   force =     0.01401548   -0.00619023    0.00219818
     atom   17 type  3   force =     0.00267007    0.00487494   -0.01798409
     atom   18 type  4   force =     0.00932353   -0.01649073    0.02787297
     atom   19 type  4   force =    -0.01053646   -0.00187774    0.00141220
     atom   20 type  4   force =    -0.00289000   -0.00187574   -0.01469402
     atom   21 type  4   force =     0.01433185   -0.00255599    0.01048263
     atom   22 type  4   force =     0.00854121   -0.00067533   -0.02245377
     atom   23 type  5   force =     0.00153641    0.00025215    0.00131864

     Total force =     0.487309     Total SCF correction =     0.069355
     SCF correction compared to forces is large: reduce conv_thr to get better values


     Computing stress (Cartesian axis) and pressure


     negative rho (up, down):  9.097E-01 9.097E-01
          total   stress  (Ry/bohr**3)                   (kbar)     P=       96.98
   0.00075149   0.00006390   0.00002810          110.55        9.40        4.13
   0.00006390   0.00078080   0.00002442            9.40      114.86        3.59
   0.00002810   0.00002442   0.00044546            4.13        3.59       65.53


     Entering Dynamics:    iteration =     2
                           time      =   0.0004 pico-seconds


ATOMIC_POSITIONS (angstrom)
Hf            2.6699999570        2.8271230292        6.6039642186    0   0   0
Hf            1.2529906802        1.2862841814        5.0584662261    0   0   0
Hf            1.2554868986        7.3898042948        5.0880677674    0   0   0
Hf            4.0870092338        1.2862841814        5.0584662261    0   0   0
Hf            4.0845130154        7.3898042948        5.0880677674    0   0   0
Nb            2.6699999570        2.7969306055        3.5155832167    0   0   0
Nb            2.6699999570        5.8763786763        6.6349979432    0   0   0
Ta            1.2093730560        4.3409278516        5.0711258323    0   0   0
Ta            4.1306268580        4.3409278516        5.0711258323    0   0   0
Ta            1.3072503417        1.3141194908        2.0587725429
Ta            1.3027855189        1.3083874348        8.0945858582
Ta            1.3040074974        7.3758298264        2.0462309646
Ta            1.3077093989        7.3650862045        8.0860094931
Ta            4.0327496017        1.3141193007        2.0587724563
Ta            4.0372138797        1.3083869645        8.0945861790
Ta            4.0359925751        7.3758303160        2.0462312516
Ta            4.0322904919        7.3650873416        8.0860094887
Zr            2.6699998282        5.8662917860        3.5273815092
Zr            1.2438043247        4.3220767497        1.9999740092
Zr            1.2403551052        4.3541242883        8.1497817230
Zr            4.0961945892        4.3220761931        1.9999738676
Zr            4.0996448868        4.3541239474        8.1497820308
H             5.1228443095        5.1994054070        5.5682651039


     kinetic energy (Ekin) =           1.79776359 Ry
     temperature           =       13516.40104076 K 
     Ekin + Etot (const)   =       -2941.22822480 Ry
     Ions kinetic stress =           34.72 (kbar)
                                     52.12          45.09          26.07
                                     45.09          39.01          22.55
                                     26.07          22.55          13.04



     Writing config-only to output data dir outdir/pwscf.save/
     NEW-OLD atomic charge density approx. for the potential

     Check: negative core charge=   -0.000002

     negative rho (up, down):  9.096E-01 9.096E-01
     Generating pointlists ...
     new r_m :   0.0678 (alat units)  1.0937 (a.u.) for type    3
     new r_m :   0.0678 (alat units)  1.0937 (a.u.) for type    5

     total cpu time spent up to now is      320.3 secs

     Self-consistent Calculation

     iteration #  1     ecut=   120.00 Ry     beta= 0.70
     Davidson diagonalization with overlap
     c_bands:  1 eigenvalues not converged
     ethr =  1.00E-06,  avg # of iterations = 17.5

     negative rho (up, down):  9.097E-01 9.097E-01

     total cpu time spent up to now is      384.1 secs

     total energy              =   -2942.93759827 Ry
     estimated scf accuracy    <       0.29205992 Ry

     total magnetization       =    -0.04 Bohr mag/cell
     absolute magnetization    =     0.05 Bohr mag/cell

     iteration #  2     ecut=   120.00 Ry     beta= 0.70
     Davidson diagonalization with overlap
     ethr =  1.05E-04,  avg # of iterations =  2.0

     negative rho (up, down):  9.097E-01 9.097E-01

     total cpu time spent up to now is      397.7 secs

     total energy              =   -2942.95601912 Ry
     estimated scf accuracy    <       0.17057075 Ry

     total magnetization       =    -0.04 Bohr mag/cell
     absolute magnetization    =     0.05 Bohr mag/cell

     iteration #  3     ecut=   120.00 Ry     beta= 0.70
     Davidson diagonalization with overlap
     ethr =  6.16E-05,  avg # of iterations =  2.0

     negative rho (up, down):  9.096E-01 9.096E-01

     total cpu time spent up to now is      411.3 secs

     total energy              =   -2942.96517666 Ry
     estimated scf accuracy    <       0.00415080 Ry

     total magnetization       =    -0.04 Bohr mag/cell
     absolute magnetization    =     0.05 Bohr mag/cell

     iteration #  4     ecut=   120.00 Ry     beta= 0.70
     Davidson diagonalization with overlap
     ethr =  1.50E-06,  avg # of iterations = 12.5

     negative rho (up, down):  9.095E-01 9.095E-01

     total cpu time spent up to now is      428.3 secs

     total energy              =   -2942.96533455 Ry
     estimated scf accuracy    <       0.00192104 Ry

     total magnetization       =    -0.04 Bohr mag/cell
     absolute magnetization    =     0.05 Bohr mag/cell

     iteration #  5     ecut=   120.00 Ry     beta= 0.70
     Davidson diagonalization with overlap
     ethr =  6.94E-07,  avg # of iterations =  1.0

     negative rho (up, down):  9.095E-01 9.096E-01

     Magnetic moment per site  (integrated on atomic sphere of radius R)
     atom   1 (R=0.118)  charge=  9.1889  magn= -0.0000
     atom   2 (R=0.118)  charge=  8.8364  magn= -0.0000
     atom   3 (R=0.118)  charge=  8.8371  magn= -0.0001
     atom   4 (R=0.118)  charge=  8.8394  magn= -0.0001
     atom   5 (R=0.118)  charge=  8.8316  magn= -0.0002
     atom   6 (R=0.120)  charge= 10.3475  magn=  0.0001
     atom   7 (R=0.120)  charge= 10.3505  magn= -0.0001
     atom   8 (R=0.068)  charge=  4.4878  magn= -0.0000
     atom   9 (R=0.068)  charge=  4.5108  magn= -0.0000
     atom  10 (R=0.068)  charge=  4.4703  magn= -0.0002
     atom  11 (R=0.068)  charge=  4.4698  magn= -0.0001
     atom  12 (R=0.068)  charge=  4.4675  magn= -0.0004
     atom  13 (R=0.068)  charge=  4.4710  magn= -0.0002
     atom  14 (R=0.068)  charge=  4.4700  magn= -0.0003
     atom  15 (R=0.068)  charge=  4.4699  magn= -0.0002
     atom  16 (R=0.068)  charge=  4.4676  magn= -0.0004
     atom  17 (R=0.068)  charge=  4.4709  magn= -0.0002
     atom  18 (R=0.122)  charge=  9.4537  magn=  0.0001
     atom  19 (R=0.122)  charge=  8.9965  magn= -0.0015
     atom  20 (R=0.122)  charge=  8.9938  magn= -0.0001
     atom  21 (R=0.122)  charge=  8.9956  magn= -0.0015
     atom  22 (R=0.122)  charge=  8.9976  magn= -0.0004
     atom  23 (R=0.068)  charge=  0.8627  magn= -0.0000

     total cpu time spent up to now is      441.2 secs

     End of self-consistent calculation

 ------ SPIN UP ------------


          k = 0.0000 0.0000 0.0000 ( 56324 PWs)   bands (ev):

   -59.7651 -59.7630 -59.7195 -59.7191 -59.6862 -59.6733 -59.6412 -59.6364
   -59.5113 -59.0329 -53.3541 -53.3062 -53.2242 -53.1678 -51.6688 -45.2498
   -45.2444 -40.6141 -40.6131 -40.5258 -40.5130 -38.7874 -26.7667 -26.7615
   -26.6797 -26.6763 -26.5808 -26.5748 -26.4581 -26.4469 -26.3467 -26.3102
   -26.2822 -26.2468 -26.2432 -26.2106 -26.1959 -26.1568 -26.1423 -26.1272
   -26.0659 -25.9541 -25.9438 -25.9398 -25.9324 -25.9140 -25.8743 -25.8671
   -25.8443 -25.8434 -25.7467 -25.7142 -23.1385 -22.9215 -22.6328 -22.5378
   -22.2795 -22.1501 -22.1337 -22.0233 -21.8993 -21.8339 -21.8032 -21.5834
   -21.4949 -21.4416 -21.3749 -21.3322 -21.2524 -21.2052 -20.7315 -20.6597
   -20.6003 -19.1797 -18.9130 -18.8137 -18.8122 -18.6005 -18.5813 -18.5761
   -18.5664 -18.5527 -18.5131 -18.3457 -18.3405 -17.1333 -16.9263 -16.8061
     2.1659   3.1974   3.9454   4.1656   4.3337   4.4911   4.5427   4.7019
     4.7437   4.8377   4.9474   5.0726   5.2272   5.4963   5.6885   5.6988
     5.7885   5.8233   6.0587   6.1123   6.1933   6.2971   6.3070   6.3551
     6.3943   6.5694   6.6744   6.7291   6.7563   6.7675   6.7907   6.8633
     6.9859   7.0913   7.1889   7.2731   7.2813   7.3379   7.3850   7.3915
     7.3955   7.6324   7.6963   7.7651   7.9407   7.9906   8.0052   8.1234
     8.1518   8.2125   8.2938   8.3176   8.3315   8.4609   8.5437   8.5668
     8.6343   8.7936   8.8941   8.9741   9.0964   9.1034   9.2526   9.3222
     9.3366   9.3611   9.3814   9.4304   9.4691   9.6333   9.6870   9.7305
     9.9161   9.9836  10.0877  10.1262  10.1587  10.2827  10.2935

 ------ SPIN DOWN ----------


          k = 0.0000 0.0000 0.0000 ( 56324 PWs)   bands (ev):

   -59.7656 -59.7639 -59.7201 -59.7199 -59.6873 -59.6739 -59.6423 -59.6370
   -59.5114 -59.0330 -53.3542 -53.3063 -53.2242 -53.1679 -51.6688 -45.2499
   -45.2443 -40.6152 -40.6136 -40.5259 -40.5144 -38.7874 -26.7677 -26.7627
   -26.6811 -26.6772 -26.5819 -26.5758 -26.4589 -26.4483 -26.3471 -26.3109
   -26.2828 -26.2478 -26.2440 -26.2114 -26.1967 -26.1573 -26.1434 -26.1278
   -26.0662 -25.9548 -25.9449 -25.9405 -25.9334 -25.9148 -25.8751 -25.8684
   -25.8451 -25.8447 -25.7469 -25.7144 -23.1385 -22.9216 -22.6329 -22.5379
   -22.2796 -22.1502 -22.1338 -22.0233 -21.8993 -21.8340 -21.8032 -21.5835
   -21.4949 -21.4416 -21.3751 -21.3323 -21.2525 -21.2052 -20.7316 -20.6597
   -20.6003 -19.1811 -18.9129 -18.8151 -18.8136 -18.6009 -18.5827 -18.5764
   -18.5671 -18.5536 -18.5134 -18.3476 -18.3407 -17.1332 -16.9263 -16.8063
     2.1654   3.1967   3.9439   4.1651   4.3331   4.4901   4.5416   4.7015
     4.7432   4.8372   4.9459   5.0719   5.2262   5.4957   5.6878   5.6979
     5.7878   5.8224   6.0574   6.1113   6.1924   6.2962   6.3061   6.3541
     6.3929   6.5688   6.6739   6.7282   6.7552   6.7667   6.7899   6.8629
     6.9853   7.0900   7.1880   7.2722   7.2806   7.3368   7.3834   7.3908
     7.3945   7.6316   7.6954   7.7642   7.9395   7.9881   8.0037   8.1212
     8.1496   8.2084   8.2901   8.3152   8.3300   8.4570   8.5422   8.5640
     8.6325   8.7919   8.8929   8.9727   9.0950   9.1010   9.2510   9.3196
     9.3355   9.3591   9.3799   9.4289   9.4679   9.6315   9.6857   9.7293
     9.9151   9.9817  10.0854  10.1252  10.1577  10.2823  10.2927

     the Fermi energy is     8.2707 ev

!    total energy              =   -2942.96518774 Ry
     estimated scf accuracy    <       0.00028533 Ry
     smearing contrib. (-TS)   =      -0.10634270 Ry
     internal energy E=F+TS    =   -2942.85884503 Ry

     total magnetization       =    -0.04 Bohr mag/cell
     absolute magnetization    =     0.05 Bohr mag/cell

     convergence has been achieved in   5 iterations

     negative rho (up, down):  9.095E-01 9.096E-01

     Forces acting on atoms (cartesian axes, Ry/au):

     atom    1 type  1   force =     0.00132733   -0.02313706    0.01228876
     atom    2 type  1   force =    -0.12274648   -0.01658099    0.00328935
     atom    3 type  1   force =    -0.12210240    0.01217235    0.00884563
     atom    4 type  1   force =     0.12987025   -0.01200637    0.00141196
     atom    5 type  1   force =     0.12922981   -0.00975692    0.01213787
     atom    6 type  2   force =    -0.00754652   -0.02086606    0.00213903
     atom    7 type  2   force =    -0.02255062    0.01165522   -0.00886900
     atom    8 type  3   force =    -0.12241474    0.00879150    0.00462714
     atom    9 type  3   force =    -0.13559584   -0.23737935   -0.15815773
     atom   10 type  3   force =    -0.02330652   -0.02570692   -0.05949764
     atom   11 type  3   force =    -0.02525988   -0.03356265    0.05400664
     atom   12 type  3   force =    -0.02091744    0.03115728   -0.05676383
     atom   13 type  3   force =    -0.01387939    0.03030332    0.05936975
     atom   14 type  3   force =     0.02206578   -0.02693341   -0.05992343
     atom   15 type  3   force =     0.01973819   -0.03708577    0.05668916
     atom   16 type  3   force =     0.02126230    0.03542128   -0.05383911
     atom   17 type  3   force =     0.01292640    0.03813847    0.05847668
     atom   18 type  4   force =     0.00186337    0.02428991   -0.00836137
     atom   19 type  4   force =    -0.13651958   -0.00526583   -0.11556929
     atom   20 type  4   force =    -0.13802737    0.00401103    0.11176861
     atom   21 type  4   force =     0.13163281   -0.00752676   -0.11502176
     atom   22 type  4   force =     0.13620502    0.00354903    0.11328809
     atom   23 type  5   force =     0.28474551    0.25631871    0.13766449
     The non-local contrib.  to forces
     atom    1 type  1   force =     0.00668140   -0.00593217    0.03096142
     atom    2 type  1   force =    -0.24949465   -0.16317027    0.01816526
     atom    3 type  1   force =    -0.24339698    0.15374264   -0.01920744
     atom    4 type  1   force =     0.24958172   -0.16851619    0.02232377
     atom    5 type  1   force =     0.25016196    0.13830525   -0.01270286
     atom    6 type  2   force =     0.01046101   -0.06321042   -0.06976418
     atom    7 type  2   force =    -0.01157490    0.07345292    0.06538372
     atom    8 type  3   force =    -0.25218864    0.00127398    0.00031642
     atom    9 type  3   force =     0.13844573   -0.06847230   -0.03648483
     atom   10 type  3   force =    -0.22583866    0.00005354   -0.22188547
     atom   11 type  3   force =    -0.22657962    0.01120644    0.20087471
     atom   12 type  3   force =    -0.21294040   -0.02610620   -0.18225035
     atom   13 type  3   force =    -0.21359367   -0.00955264    0.20634450
     atom   14 type  3   force =     0.21594065    0.00611428   -0.22058804
     atom   15 type  3   force =     0.21932112    0.00524662    0.20326680
     atom   16 type  3   force =     0.21003807   -0.02403725   -0.18233163
     atom   17 type  3   force =     0.23001717   -0.01397318    0.20102786
     atom   18 type  4   force =    -0.01099160    0.06739279   -0.05461266
     atom   19 type  4   force =     0.06838911    0.00892979    0.07468360
     atom   20 type  4   force =     0.06180378   -0.01517241   -0.06631261
     atom   21 type  4   force =    -0.06403058    0.01187440    0.06861505
     atom   22 type  4   force =    -0.05682822   -0.00892531   -0.05438738
     atom   23 type  5   force =    -0.08113936   -0.06506667   -0.04374430
     The ionic contribution  to forces
     atom    1 type  1   force =    -0.26589788   -4.83949037   14.31671336
     atom    2 type  1   force =   -35.68958794   -6.16501756    0.74700718
     atom    3 type  1   force =   -35.71059582    6.25796929   -0.76045290
     atom    4 type  1   force =    35.55200051   -6.25133844    0.71708689
     atom    5 type  1   force =    35.20988711    6.98063711   -0.92375481
     atom    6 type  2   force =    -0.18692629   -3.71798829  -14.29448162
     atom    7 type  2   force =    -0.70758204    3.77794259   14.46966091
     atom    8 type  3   force =   -47.68848696   -0.03016358   -0.13644216
     atom    9 type  3   force =    45.00013706   -2.15069856   -1.36714079
     atom   10 type  3   force =   -32.20356458   -2.10284092  -23.48276172
     atom   11 type  3   force =   -31.28066503   -0.86007277   22.50824553
     atom   12 type  3   force =   -31.39727608    0.84521038  -22.56294497
     atom   13 type  3   force =   -32.20859445    2.26425288   23.53133223
     atom   14 type  3   force =    32.14090774   -2.12139151  -23.53150674
     atom   15 type  3   force =    31.18867604   -0.89788067   22.58067397
     atom   16 type  3   force =    31.29232691    0.91929154  -22.68160474
     atom   17 type  3   force =    32.00871445    2.45244466   23.76180105
     atom   18 type  4   force =    -0.36186494    4.45216358  -14.39522570
     atom   19 type  4   force =   -32.19503029    0.92512941  -25.96810485
     atom   20 type  4   force =   -32.19296752   -1.00839518   25.99614008
     atom   21 type  4   force =    32.06580742    0.87432667  -26.16052275
     atom   22 type  4   force =    31.89386308   -1.16167617   26.46593459
     atom   23 type  5   force =     5.73671950    1.55758591    1.17034795
     The local contribution  to forces
     atom    1 type  1   force =     0.26244143    4.81789113  -14.33003229
     atom    2 type  1   force =    35.82136650    6.31423501   -0.74540266
     atom    3 type  1   force =    35.83866179   -6.40423677    0.80827674
     atom    4 type  1   force =   -35.67595635    6.41348847   -0.72189483
     atom    5 type  1   force =   -35.33435037   -7.13474569    0.96727713
     atom    6 type  2   force =     0.17022159    3.76329692   14.38168647
     atom    7 type  2   force =     0.69529354   -3.83408303  -14.53779753
     atom    8 type  3   force =    47.84202533    0.03752198    0.15582679
     atom    9 type  3   force =   -45.27844961    1.99247339    1.26790897
     atom   10 type  3   force =    32.42394538    2.07331638   23.66567310
     atom   11 type  3   force =    31.50294630    0.79996892  -22.68496964
     atom   12 type  3   force =    31.60700590   -0.78190829   22.70696507
     atom   13 type  3   force =    32.42543465   -2.21035136  -23.70657023
     atom   14 type  3   force =   -32.35249845    2.08524083   23.71292110
     atom   15 type  3   force =   -31.40591798    0.84262996  -22.75626581
     atom   16 type  3   force =   -31.50004779   -0.85403199   22.82862946
     atom   17 type  3   force =   -32.24441181   -2.38649938  -23.93159793
     atom   18 type  4   force =     0.37457482   -4.49836807   14.45696859
     atom   19 type  4   force =    31.99623884   -0.93966187   25.79339478
     atom   20 type  4   force =    31.99318797    1.02835838  -25.83829054
     atom   21 type  4   force =   -31.87525308   -0.89425846   25.99432734
     atom   22 type  4   force =   -31.69988640    1.17264353  -26.31940677
     atom   23 type  5   force =    -5.37057620   -1.23691021   -0.98688797
     The core correction contribution to forces
     atom    1 type  1   force =     0.00072547    0.00224473   -0.00201645
     atom    2 type  1   force =    -0.01095734   -0.00141443    0.00054225
     atom    3 type  1   force =    -0.01200060    0.00275188   -0.00164760
     atom    4 type  1   force =     0.01144328   -0.00234843    0.00216733
     atom    5 type  1   force =     0.00798849    0.00479233   -0.00155185
     atom    6 type  2   force =    -0.00011579    0.00350848    0.00353246
     atom    7 type  2   force =     0.00059181   -0.00363683   -0.00253832
     atom    8 type  3   force =    -0.02932859    0.00093849    0.00022802
     atom    9 type  3   force =     0.01012943   -0.01248801   -0.00760850
     atom   10 type  3   force =    -0.02275674    0.00816993   -0.01690293
     atom   11 type  3   force =    -0.02557277    0.00907167    0.01847395
     atom   12 type  3   force =    -0.02243647   -0.01005803   -0.01513961
     atom   13 type  3   force =    -0.02275180   -0.00934295    0.01591804
     atom   14 type  3   force =     0.02241228    0.00867723   -0.01708861
     atom   15 type  3   force =     0.02375042    0.00945326    0.01665278
     atom   16 type  3   force =     0.02293088   -0.01047619   -0.01477621
     atom   17 type  3   force =     0.02324744   -0.00820164    0.01534575
     atom   18 type  4   force =     0.00067264   -0.00357247    0.00274411
     atom   19 type  4   force =    -0.01015543    0.00007742   -0.00968981
     atom   20 type  4   force =    -0.00996712    0.00045490    0.00923009
     atom   21 type  4   force =     0.00987189   -0.00006981   -0.00929979
     atom   22 type  4   force =     0.00994713    0.00033802    0.00816276
     atom   23 type  5   force =     0.00000000    0.00000000    0.00000000
     The Hubbard contrib.    to forces
     atom    1 type  1   force =     0.00000000    0.00000000    0.00000000
     atom    2 type  1   force =     0.00000000    0.00000000    0.00000000
     atom    3 type  1   force =     0.00000000    0.00000000    0.00000000
     atom    4 type  1   force =     0.00000000    0.00000000    0.00000000
     atom    5 type  1   force =     0.00000000    0.00000000    0.00000000
     atom    6 type  2   force =     0.00000000    0.00000000    0.00000000
     atom    7 type  2   force =     0.00000000    0.00000000    0.00000000
     atom    8 type  3   force =     0.00000000    0.00000000    0.00000000
     atom    9 type  3   force =     0.00000000    0.00000000    0.00000000
     atom   10 type  3   force =     0.00000000    0.00000000    0.00000000
     atom   11 type  3   force =     0.00000000    0.00000000    0.00000000
     atom   12 type  3   force =     0.00000000    0.00000000    0.00000000
     atom   13 type  3   force =     0.00000000    0.00000000    0.00000000
     atom   14 type  3   force =     0.00000000    0.00000000    0.00000000
     atom   15 type  3   force =     0.00000000    0.00000000    0.00000000
     atom   16 type  3   force =     0.00000000    0.00000000    0.00000000
     atom   17 type  3   force =     0.00000000    0.00000000    0.00000000
     atom   18 type  4   force =     0.00000000    0.00000000    0.00000000
     atom   19 type  4   force =     0.00000000    0.00000000    0.00000000
     atom   20 type  4   force =     0.00000000    0.00000000    0.00000000
     atom   21 type  4   force =     0.00000000    0.00000000    0.00000000
     atom   22 type  4   force =     0.00000000    0.00000000    0.00000000
     atom   23 type  5   force =     0.00000000    0.00000000    0.00000000
     The SCF correction term to forces
     atom    1 type  1   force =    -0.00000000    0.00000000   -0.00000000
     atom    2 type  1   force =     0.00000000   -0.00000000   -0.00000000
     atom    3 type  1   force =     0.00000000    0.00000000   -0.00000000
     atom    4 type  1   force =    -0.00000000   -0.00000000   -0.00000000
     atom    5 type  1   force =    -0.00000000    0.00000000   -0.00000000
     atom    6 type  2   force =    -0.00000000   -0.00000000   -0.00000000
     atom    7 type  2   force =     0.00000000   -0.00000000   -0.00000000
     atom    8 type  3   force =     0.00000000   -0.00000000   -0.00000000
     atom    9 type  3   force =    -0.00000000    0.00000000   -0.00000000
     atom   10 type  3   force =     0.00500085   -0.00444182   -0.00258054
     atom   11 type  3   force =     0.00470402    0.00622711    0.01242217
     atom   12 type  3   force =     0.00482238    0.00398342   -0.00235390
     atom   13 type  3   force =     0.00571864   -0.00473859    0.01338527
     atom   14 type  3   force =    -0.00460366   -0.00561022   -0.00262105
     atom   15 type  3   force =    -0.00599864    0.00342907    0.01340149
     atom   16 type  3   force =    -0.00389299    0.00463919   -0.00271592
     atom   17 type  3   force =    -0.00454808   -0.00566798    0.01294002
     atom   18 type  4   force =    -0.00043479    0.00663810   -0.01719563
     atom   19 type  4   force =     0.00413095    0.00022344   -0.00481294
     atom   20 type  4   force =     0.01000830   -0.00127064    0.01204166
     atom   21 type  4   force =    -0.00467007    0.00056446   -0.00710153
     atom   22 type  4   force =    -0.01079778    0.00113297    0.01402497
     atom   23 type  5   force =    -0.00016565    0.00067369   -0.00101112

     Total force =     0.574550     Total SCF correction =     0.045961


     Computing stress (Cartesian axis) and pressure


     negative rho (up, down):  9.095E-01 9.096E-01
          total   stress  (Ry/bohr**3)                   (kbar)     P=       99.36
   0.00076339   0.00009222   0.00004256          112.30       13.57        6.26
[...]
     4.7391   4.8367   4.9466   5.0737   5.2254   5.4963   5.6855   5.7002
     5.7864   5.8220   6.0569   6.1109   6.1948   6.2933   6.3043   6.3553
     6.3926   6.5675   6.6684   6.7292   6.7537   6.7677   6.7884   6.8626
     6.9869   7.0863   7.1874   7.2692   7.2837   7.3364   7.3832   7.3918
     7.3946   7.6320   7.6949   7.7628   7.9395   7.9875   8.0021   8.1196
     8.1496   8.2083   8.2909   8.3119   8.3298   8.4552   8.5430   8.5644
     8.6318   8.7928   8.8939   8.9722   9.0957   9.1042   9.2504   9.3206
     9.3349   9.3597   9.3800   9.4295   9.4699   9.6276   9.6855   9.7276
     9.9108   9.9774  10.0845  10.1255  10.1542  10.2785  10.2908

     the Fermi energy is     8.2690 ev

!    total energy              =   -2942.98094375 Ry
     estimated scf accuracy    <       0.00048511 Ry
     smearing contrib. (-TS)   =      -0.10631538 Ry
     internal energy E=F+TS    =   -2942.87462837 Ry

     total magnetization       =    -0.01 Bohr mag/cell
     absolute magnetization    =     0.01 Bohr mag/cell

     convergence has been achieved in   4 iterations

     negative rho (up, down):  9.095E-01 9.095E-01

     Forces acting on atoms (cartesian axes, Ry/au):

     atom    1 type  1   force =     0.00170723   -0.01937122    0.00871403
     atom    2 type  1   force =    -0.12120114   -0.01654610   -0.00904923
     atom    3 type  1   force =    -0.12084202    0.01203600   -0.00380404
     atom    4 type  1   force =     0.12849126   -0.01088413   -0.01128053
     atom    5 type  1   force =     0.12884709   -0.01204780   -0.00093179
     atom    6 type  2   force =    -0.00801925   -0.02039948    0.00338617
     atom    7 type  2   force =    -0.02299073    0.00983107   -0.00567945
     atom    8 type  3   force =    -0.11978046    0.00859412    0.00099370
     atom    9 type  3   force =    -0.11867204   -0.22532144   -0.15329291
     atom   10 type  3   force =    -0.02310078   -0.02784341   -0.05633415
     atom   11 type  3   force =    -0.02421585   -0.03211957    0.06055261
     atom   12 type  3   force =    -0.02013718    0.03271447   -0.05320217
     atom   13 type  3   force =    -0.01303678    0.02862843    0.06571017
     atom   14 type  3   force =     0.02168257   -0.02928546   -0.05641337
     atom   15 type  3   force =     0.01828338   -0.03557003    0.06332077
     atom   16 type  3   force =     0.02039374    0.03703130   -0.05014256
     atom   17 type  3   force =     0.01158749    0.03711647    0.06550603
     atom   18 type  4   force =     0.00174008    0.02407648   -0.01029275
     atom   19 type  4   force =    -0.13518009   -0.00501761   -0.11205308
     atom   20 type  4   force =    -0.13357083    0.00402821    0.11590494
     atom   21 type  4   force =     0.13007602   -0.00735516   -0.11094219
     atom   22 type  4   force =     0.13153578    0.00282646    0.11727496
     atom   23 type  5   force =     0.26640251    0.24487839    0.13205482
     The non-local contrib.  to forces
     atom    1 type  1   force =     0.00705598   -0.00535100    0.02550597
     atom    2 type  1   force =    -0.24925605   -0.16307250    0.01069968
     atom    3 type  1   force =    -0.24281332    0.15369930   -0.02682788
     atom    4 type  1   force =     0.24907984   -0.16795728    0.01473591
     atom    5 type  1   force =     0.24966220    0.13618377   -0.01954301
     atom    6 type  2   force =     0.01029749   -0.06373576   -0.06888972
     atom    7 type  2   force =    -0.01192184    0.07468572    0.06414845
     atom    8 type  3   force =    -0.25041527    0.00136136   -0.00458877
     atom    9 type  3   force =     0.13103530   -0.07498118   -0.04406368
     atom   10 type  3   force =    -0.22433345   -0.00201066   -0.22042888
     atom   11 type  3   force =    -0.22711448    0.01185213    0.20398688
     atom   12 type  3   force =    -0.21083901   -0.02427853   -0.18053410
     atom   13 type  3   force =    -0.21457291   -0.01024347    0.20967935
     atom   14 type  3   force =     0.21476782    0.00372943   -0.21893358
     atom   15 type  3   force =     0.22007397    0.00619997    0.20649375
     atom   16 type  3   force =     0.20807757   -0.02216403   -0.18066591
     atom   17 type  3   force =     0.23142557   -0.01496714    0.20359663
     atom   18 type  4   force =    -0.01072267    0.06869091   -0.05789096
     atom   19 type  4   force =     0.06759602    0.00915703    0.07464015
     atom   20 type  4   force =     0.06298231   -0.01553815   -0.06357245
     atom   21 type  4   force =    -0.06370136    0.01229284    0.06851772
     atom   22 type  4   force =    -0.05841812   -0.00948885   -0.05153764
     atom   23 type  5   force =    -0.07814524   -0.06314407   -0.04252473
     The ionic contribution  to forces
     atom    1 type  1   force =    -0.26283248   -4.79845772   14.33292709
     atom    2 type  1   force =   -35.67667017   -6.15350892    0.74689932
     atom    3 type  1   force =   -35.70014094    6.24838732   -0.75952155
     atom    4 type  1   force =    35.54007519   -6.23565109    0.71731877
     atom    5 type  1   force =    35.19061185    6.98249610   -0.92730547
     atom    6 type  2   force =    -0.18527115   -3.66976940  -14.31064965
     atom    7 type  2   force =    -0.71326676    3.72894643   14.48767131
     atom    8 type  3   force =   -47.65480513   -0.03005781   -0.14051923
     atom    9 type  3   force =    45.04186085   -2.13112329   -1.34696133
     atom   10 type  3   force =   -32.18179568   -2.08105316  -23.44572019
     atom   11 type  3   force =   -31.26014660   -0.83761448   22.47175119
     atom   12 type  3   force =   -31.37935399    0.82489385  -22.52959824
     atom   13 type  3   force =   -32.18755724    2.24404695   23.49605685
     atom   14 type  3   force =    32.11910100   -2.09903743  -23.49479530
     atom   15 type  3   force =    31.16762252   -0.87321263   22.54406587
     atom   16 type  3   force =    31.27463441    0.89972112  -22.65035277
     atom   17 type  3   force =    31.98512932    2.43364758   23.73023398
     atom   18 type  4   force =    -0.36045730    4.39767106  -14.41101341
     atom   19 type  4   force =   -32.13783624    0.92461080  -25.88056009
     atom   20 type  4   force =   -32.13790108   -1.00793880   25.91165950
     atom   21 type  4   force =    32.01003058    0.87296921  -26.07300025
     atom   22 type  4   force =    31.83922976   -1.16416212   26.38083405
     atom   23 type  5   force =     5.66973927    1.52419642    1.15057955
     The local contribution  to forces
     atom    1 type  1   force =     0.26073907    4.78758064  -14.36749029
     atom    2 type  1   force =    35.81584607    6.30271403   -0.79386230
     atom    3 type  1   force =    35.83324306   -6.39511280    0.75700454
     atom    4 type  1   force =   -35.67054525    6.40059901   -0.77191640
     atom    5 type  1   force =   -35.31533138   -7.14191423    0.91868060
     atom    6 type  2   force =     0.17112797    3.71225747   14.36955848
     atom    7 type  2   force =     0.70122092   -3.79749825  -14.57971034
     atom    8 type  3   force =    47.81962841    0.03670192    0.11695694
     atom    9 type  3   force =   -45.30219613    1.98988383    1.21438151
     atom   10 type  3   force =    32.40323253    2.03934603   23.63183025
     atom   11 type  3   force =    31.49047569    0.78561808  -22.62387244
     atom   12 type  3   force =    31.59143520   -0.75308779   22.67786294
     atom   13 type  3   force =    32.41196796   -2.19816648  -23.64731309
     atom   14 type  3   force =   -32.33117365    2.05077377   23.68139425
     atom   15 type  3   force =   -31.39445512    0.82740544  -22.69617943
     atom   16 type  3   force =   -31.48416644   -0.82556669   22.80333781
     atom   17 type  3   force =   -32.23248633   -2.37355442  -23.87511793
     atom   18 type  4   force =     0.37468560   -4.43805447   14.44285957
     atom   19 type  4   force =    31.94144244   -0.93702112   25.71112806
     atom   20 type  4   force =    31.95296994    1.02794811  -25.73683342
     atom   21 type  4   force =   -31.82196986   -0.89144070   25.91343467
     atom   22 type  4   force =   -31.66111745    1.17249632  -26.21818744
     atom   23 type  5   force =    -5.32421278   -1.21587387   -0.98012183
     The core correction contribution to forces
     atom    1 type  1   force =     0.00074312    0.00232797   -0.00206511
     atom    2 type  1   force =    -0.01096428   -0.00142272    0.00050067
     atom    3 type  1   force =    -0.01193460    0.00278625   -0.00167327
     atom    4 type  1   force =     0.01146858   -0.00232648    0.00211014
     atom    5 type  1   force =     0.00777077    0.00475595   -0.00156868
     atom    6 type  2   force =    -0.00012787    0.00352332    0.00344620
     atom    7 type  2   force =     0.00063349   -0.00369625   -0.00251490
     atom    8 type  3   force =    -0.02929522    0.00096372    0.00024924
     atom    9 type  3   force =     0.00999016   -0.01271105   -0.00751370
     atom   10 type  3   force =    -0.02263509    0.00814228   -0.01681140
     atom   11 type  3   force =    -0.02566163    0.00909241    0.01849409
     atom   12 type  3   force =    -0.02224422   -0.00999911   -0.01497973
     atom   13 type  3   force =    -0.02284310   -0.00936443    0.01595692
     atom   14 type  3   force =     0.02221159    0.00865637   -0.01695817
     atom   15 type  3   force =     0.02383687    0.00946767    0.01672264
     atom   16 type  3   force =     0.02272343   -0.01043566   -0.01463879
     atom   17 type  3   force =     0.02346230   -0.00825492    0.01533440
     atom   18 type  4   force =     0.00066382   -0.00360134    0.00273704
     atom   19 type  4   force =    -0.01013283    0.00007421   -0.00967205
     atom   20 type  4   force =    -0.00995095    0.00047351    0.00918473
     atom   21 type  4   force =     0.00987016   -0.00008544   -0.00926658
     atom   22 type  4   force =     0.00994293    0.00036075    0.00810216
     atom   23 type  5   force =     0.00000000    0.00000000    0.00000000
     The Hubbard contrib.    to forces
     atom    1 type  1   force =     0.00000000    0.00000000    0.00000000
     atom    2 type  1   force =     0.00000000    0.00000000    0.00000000
     atom    3 type  1   force =     0.00000000    0.00000000    0.00000000
     atom    4 type  1   force =     0.00000000    0.00000000    0.00000000
     atom    5 type  1   force =     0.00000000    0.00000000    0.00000000
     atom    6 type  2   force =     0.00000000    0.00000000    0.00000000
     atom    7 type  2   force =     0.00000000    0.00000000    0.00000000
     atom    8 type  3   force =     0.00000000    0.00000000    0.00000000
     atom    9 type  3   force =     0.00000000    0.00000000    0.00000000
     atom   10 type  3   force =     0.00000000    0.00000000    0.00000000
     atom   11 type  3   force =     0.00000000    0.00000000    0.00000000
     atom   12 type  3   force =     0.00000000    0.00000000    0.00000000
     atom   13 type  3   force =     0.00000000    0.00000000    0.00000000
     atom   14 type  3   force =     0.00000000    0.00000000    0.00000000
     atom   15 type  3   force =     0.00000000    0.00000000    0.00000000
     atom   16 type  3   force =     0.00000000    0.00000000    0.00000000
     atom   17 type  3   force =     0.00000000    0.00000000    0.00000000
     atom   18 type  4   force =     0.00000000    0.00000000    0.00000000
     atom   19 type  4   force =     0.00000000    0.00000000    0.00000000
     atom   20 type  4   force =     0.00000000    0.00000000    0.00000000
     atom   21 type  4   force =     0.00000000    0.00000000    0.00000000
     atom   22 type  4   force =     0.00000000    0.00000000    0.00000000
     atom   23 type  5   force =     0.00000000    0.00000000    0.00000000
     The SCF correction term to forces
     atom    1 type  1   force =    -0.00000000   -0.00000000    0.00000000
     atom    2 type  1   force =     0.00000000   -0.00000000    0.00000000
     atom    3 type  1   force =     0.00000000    0.00000000    0.00000000
     atom    4 type  1   force =    -0.00000000   -0.00000000    0.00000000
     atom    5 type  1   force =    -0.00000000    0.00000000    0.00000000
     atom    6 type  2   force =    -0.00000000   -0.00000000    0.00000000
     atom    7 type  2   force =     0.00000000    0.00000000    0.00000000
     atom    8 type  3   force =    -0.00000000   -0.00000000    0.00000000
     atom    9 type  3   force =     0.00000000    0.00000000    0.00000000
     atom   10 type  3   force =     0.00260815    0.00777072   -0.00669668
     atom   11 type  3   force =    -0.00159160   -0.00102911   -0.01129986
     atom   12 type  3   force =     0.00104209   -0.00477534   -0.00744580
     atom   13 type  3   force =     0.00014576    0.00239447   -0.01016261
     atom   14 type  3   force =    -0.00304694    0.00663101   -0.00861334
     atom   15 type  3   force =     0.00138239   -0.00539187   -0.00927482
     atom   16 type  3   force =    -0.00069798   -0.00448482   -0.00931565
     atom   17 type  3   force =     0.00423388    0.00028399   -0.01003381
     atom   18 type  4   force =    -0.00225212   -0.00059106    0.01152225
     atom   19 type  4   force =     0.00392777   -0.00179991   -0.00908191
     atom   20 type  4   force =    -0.00149381   -0.00087783   -0.00602618
     atom   21 type  4   force =    -0.00397626   -0.00105245   -0.01212050
     atom   22 type  4   force =     0.00207592    0.00365897   -0.00342894
     atom   23 type  5   force =    -0.00080150   -0.00026148    0.00262908

     Total force =     0.557816     Total SCF correction =     0.037172


     Computing stress (Cartesian axis) and pressure


     negative rho (up, down):  9.095E-01 9.095E-01
          total   stress  (Ry/bohr**3)                   (kbar)     P=       98.62
   0.00076056   0.00008904   0.00004077          111.88       13.10        6.00
   0.00008904   0.00080124   0.00003727           13.10      117.87        5.48
   0.00004077   0.00003727   0.00044934            6.00        5.48       66.10


     Entering Dynamics:    iteration =    20
                           time      =   0.0041 pico-seconds


ATOMIC_POSITIONS (angstrom)
Hf            2.6699999570        2.8271230292        6.6039642186    0   0   0
Hf            1.2529906802        1.2862841814        5.0584662261    0   0   0
Hf            1.2554868986        7.3898042948        5.0880677674    0   0   0
Hf            4.0870092338        1.2862841814        5.0584662261    0   0   0
Hf            4.0845130154        7.3898042948        5.0880677674    0   0   0
Nb            2.6699999570        2.7969306055        3.5155832167    0   0   0
Nb            2.6699999570        5.8763786763        6.6349979432    0   0   0
Ta            1.2093730560        4.3409278516        5.0711258323    0   0   0
Ta            4.1306268580        4.3409278516        5.0711258323    0   0   0
Ta            1.3069635099        1.3138099691        2.0581053603
Ta            1.3025188722        1.3080115579        8.0952257232
Ta            1.3037762603        7.3761923774        2.0455953149
Ta            1.3075500723        7.3654067983        8.0866976968
Ta            4.0329747328        1.3138212770        2.0581250604
Ta            4.0374168812        1.3079932447        8.0952578999
Ta            4.0362145571        7.3762277473        2.0456375926
Ta            4.0324358226        7.3654622827        8.0866746146
Zr            2.6701423686        5.8668508764        3.5272231292
Zr            1.2407502685        4.3219564600        1.9973908877
Zr            1.2373029315        4.3541997260        8.1523100845
Zr            4.0991432553        4.3219197832        1.9974109647
Zr            4.1025995230        4.3541958609        8.1523667382
H             5.1912705654        5.2789484353        5.6092316490


     kinetic energy (Ekin) =           1.75325638 Ry
     temperature           =       13181.77566936 K 
     Ekin + Etot (const)   =       -2941.22768736 Ry
     Ions kinetic stress =           33.87 (kbar)
                                     49.09          43.98          25.04
                                     43.98          39.54          22.51
                                     25.04          22.51          12.96



     The maximum number of steps has been reached.

     End of molecular dynamics calculation

     diffusion coefficients :
     atom     1   D =       0.00000000 cm^2/s
     atom     2   D =       0.00000000 cm^2/s
     atom     3   D =       0.00000000 cm^2/s
     atom     4   D =       0.00000000 cm^2/s
     atom     5   D =       0.00000000 cm^2/s
     atom     6   D =       0.00000000 cm^2/s
     atom     7   D =       0.00000000 cm^2/s
     atom     8   D =       0.00000000 cm^2/s
     atom     9   D =       0.00000000 cm^2/s
     atom    10   D =       0.00000000 cm^2/s
     atom    11   D =       0.00000000 cm^2/s
     atom    12   D =       0.00000000 cm^2/s
     atom    13   D =       0.00000000 cm^2/s
     atom    14   D =       0.00000000 cm^2/s
     atom    15   D =       0.00000000 cm^2/s
     atom    16   D =       0.00000000 cm^2/s
     atom    17   D =       0.00000000 cm^2/s
     atom    18   D =       0.00000000 cm^2/s
     atom    19   D =       0.00000007 cm^2/s
     atom    20   D =       0.00000007 cm^2/s
     atom    21   D =       0.00000006 cm^2/s
     atom    22   D =       0.00000006 cm^2/s
     atom    23   D =       0.00003072 cm^2/s

     < D > =       0.00000221 cm^2/s

     Writing all to output data dir outdir/pwscf.save/

     init_run     :      8.74s CPU     10.46s WALL (       1 calls)
     electrons    :   1548.46s CPU   1976.95s WALL (      20 calls)
     update_pot   :     15.93s CPU     18.82s WALL (      19 calls)
     forces       :    193.16s CPU    256.21s WALL (      20 calls)
     stress       :    283.62s CPU    357.35s WALL (      20 calls)

     Called by init_run:
     wfcinit      :      6.33s CPU      7.66s WALL (       1 calls)
     potinit      :      0.42s CPU      0.51s WALL (       1 calls)
     hinit0       :      0.91s CPU      1.04s WALL (       1 calls)

     Called by electrons:
     c_bands      :   1222.34s CPU   1573.57s WALL (      99 calls)
     sum_band     :    214.13s CPU    262.14s WALL (      99 calls)
     v_of_rho     :      8.92s CPU     11.06s WALL (     119 calls)
     newd         :    127.24s CPU    160.38s WALL (     119 calls)
     mix_rho      :      0.75s CPU      1.07s WALL (      99 calls)

     Called by c_bands:
     init_us_2    :      3.11s CPU      3.26s WALL (     478 calls)
     init_us_2:cp :      3.11s CPU      3.26s WALL (     478 calls)
     regterg      :   1211.49s CPU   1559.98s WALL (     198 calls)

     Called by *egterg:
     rdiaghg      :     39.97s CPU     51.59s WALL (    1102 calls)
     h_psi        :    608.41s CPU    707.56s WALL (    1142 calls)
     s_psi        :    190.58s CPU    191.23s WALL (    1142 calls)
     g_psi        :      0.42s CPU      0.49s WALL (     942 calls)

     Called by h_psi:
     h_psi:calbec :    296.43s CPU    379.00s WALL (    1142 calls)
     vloc_psi     :     66.18s CPU     81.68s WALL (    1142 calls)
     add_vuspsi   :    244.90s CPU    245.89s WALL (    1142 calls)

     General routines
     calbec       :    549.84s CPU    734.75s WALL (    1540 calls)
     fft          :      9.15s CPU     25.95s WALL (    2484 calls)
     ffts         :      0.16s CPU      0.22s WALL (      99 calls)
     fftw         :     70.71s CPU     88.07s WALL (  100936 calls)

     Parallel routines

     PWSCF        :  34m35.00s CPU  44m12.09s WALL


   This run was terminated on:  21:48: 1  11Jun2023            

=------------------------------------------------------------------------------=
   JOB DONE.
=------------------------------------------------------------------------------=
