
     Program PWSCF v.7.2 starts on 12Jun2023 at  0:14: 7 

     This program is part of the open-source Quantum ESPRESSO suite
     for quantum simulation of materials; please cite
         "P. Giannozzi et al., J. Phys.:Condens. Matter 21 395502 (2009);
         "P. Giannozzi et al., J. Phys.:Condens. Matter 29 465901 (2017);
         "P. Giannozzi et al., J. Chem. Phys. 152 154105 (2020);
          URL http://www.quantum-espresso.org", 
     in publications or presentations arising from this work. More details at
     http://www.quantum-espresso.org/quote

     Parallel version (MPI), running on    42 processors

     MPI processes distributed on     1 nodes
     185357 MiB available memory on the printing compute node when the environment starts

     Reading input from md_data/md_Hf5Nb2Ta10Zr5H_20steps_100eV_incident45_polar30.in
Warning: card &CELL ignored
Warning: card / ignored

     Current dimensions of program PWSCF are:
     Max number of different atomic species (ntypx) = 10
     Max number of k-points (npk) =  40000
     Max angular momentum in pseudopotentials (lmaxx) =  4

     File outdir/pwscf.update deleted, as requested

     File outdir/pwscf.md deleted, as requested

     gamma-point specific algorithms are used

     R & G space division:  proc/nbgrp/npool/nimage =      42
     Subspace diagonalization in iterative solution of the eigenvalue problem:
     one sub-group per band group will be used
     custom distributed-memory algorithm (size of sub-group:  2*  2 procs)


     Parallelization info
     --------------------
     sticks:   dense  smooth     PW     G-vecs:    dense   smooth      PW
     Min         239     239     59                21459    21459    2676
     Max         242     242     62                21470    21470    2688
     Sum       10131   10131   2529               901547   901547  112647

     Using Slab Decomposition



     bravais-lattice index     =            0
     lattice parameter (alat)  =      16.1383  a.u.
     unit-cell volume          =    5077.2634 (a.u.)^3
     number of atoms/cell      =           23
     number of atomic types    =            5
     number of electrons       =       277.00
     number of Kohn-Sham states=          167
     kinetic-energy cutoff     =     120.0000  Ry
     charge density cutoff     =     480.0000  Ry
     scf convergence threshold =      1.0E-03
     mixing beta               =       0.7000
     number of iterations used =            8  TF        mixing
     energy convergence thresh.=      0.0E+00
     force convergence thresh. =      0.0E+00
     Exchange-correlation=  SLA  PW   PBX  PBC
                           (   1   4   3   4   0   0   0)
     nstep                     =           20


     celldm(1)=  16.138261  celldm(2)=   0.000000  celldm(3)=   0.000000
     celldm(4)=   0.000000  celldm(5)=   0.000000  celldm(6)=   0.000000

     crystal axes: (cart. coord. in units of alat)
               a(1) = (   1.000000   0.000000   0.000000 )  
               a(2) = (   0.000000   1.016393   0.000000 )  
               a(3) = (   0.000000   0.000000   1.188496 )  

     reciprocal axes: (cart. coord. in units 2 pi/alat)
               b(1) = (  1.000000  0.000000  0.000000 )  
               b(2) = (  0.000000  0.983871  0.000000 )  
               b(3) = (  0.000000  0.000000  0.841400 )  


     PseudoPot. # 1 for Hf read from file:
     q-e/pseudo/hf_pbe_v1.uspp.F.UPF
     MD5 check sum: 8ee9378dfe14276e333edf04c5e4aa26
     Pseudo is Ultrasoft + core correction, Zval = 12.0
     Generated by new atomic code, or converted to UPF format
     Using radial grid of  921 points,  8 beta functions with: 
                l(1) =   0
                l(2) =   0
                l(3) =   0
                l(4) =   1
                l(5) =   1
                l(6) =   2
                l(7) =   2
                l(8) =   3
     Q(r) pseudized with  6 coefficients,  rinner =    1.200   1.200   1.200
                                                       1.200   1.200   1.200
                                                       1.200

     PseudoPot. # 2 for Nb read from file:
     q-e/pseudo/nb_pbe_v1.uspp.F.UPF
     MD5 check sum: 573aab8a2fa660278ed4a62cd769473f
     Pseudo is Ultrasoft + core correction, Zval = 13.0
     Generated by new atomic code, or converted to UPF format
     Using radial grid of  887 points,  6 beta functions with: 
                l(1) =   0
                l(2) =   0
                l(3) =   1
                l(4) =   1
                l(5) =   2
                l(6) =   2
     Q(r) pseudized with  6 coefficients,  rinner =    1.000   1.000   1.000
                                                       1.000   1.000

     PseudoPot. # 3 for Ta read from file:
     q-e/pseudo/ta_pbe_v1.uspp.F.UPF
     MD5 check sum: f8bbe9446314a3b8ea5d9f3e3836c939
     Pseudo is Ultrasoft + core correction, Zval = 13.0
     Generated by new atomic code, or converted to UPF format
     Using radial grid of  921 points,  7 beta functions with: 
                l(1) =   0
                l(2) =   0
                l(3) =   1
                l(4) =   1
                l(5) =   2
                l(6) =   2
                l(7) =   3
     Q(r) pseudized with  6 coefficients,  rinner =    1.300   1.300   1.300
                                                       1.300   1.300   1.300
                                                       1.300

     PseudoPot. # 4 for Zr read from file:
     q-e/pseudo/zr_pbe_v1.uspp.F.UPF
     MD5 check sum: 5db81b1e868ab7776c4564c113de050b
     Pseudo is Ultrasoft + core correction, Zval = 12.0
     Generated by new atomic code, or converted to UPF format
     Using radial grid of  887 points,  6 beta functions with: 
                l(1) =   0
                l(2) =   0
                l(3) =   1
                l(4) =   1
                l(5) =   2
                l(6) =   2
     Q(r) pseudized with  6 coefficients,  rinner =    1.200   1.200   1.200
                                                       1.200   1.200

     PseudoPot. # 5 for H  read from file:
     q-e/pseudo/h_pbe_v1.4.uspp.F.UPF
     MD5 check sum: 761ae9a214b05c3daf00ab9f6b793d6f
     Pseudo is Ultrasoft, Zval =  1.0
     Generated by new atomic code, or converted to UPF format
     Using radial grid of  615 points,  2 beta functions with: 
                l(1) =   0
                l(2) =   0
     Q(r) pseudized with  8 coefficients,  rinner =    0.700

     atomic species   valence    mass     pseudopotential
        Hf            12.00   178.49000     Hf( 1.00)
        Nb            13.00    92.90637     Nb( 1.00)
        Ta            13.00   180.94788     Ta( 1.00)
        Zr            12.00    91.22400     Zr( 1.00)
        H              1.00     2.01400     H ( 1.00)

     Starting magnetic structure 
     atomic species   magnetization
        Hf           0.000
        Nb           0.000
        Ta           0.000
        Zr           0.000
        H            0.000

     No symmetry found



   Cartesian axes

     site n.     atom                  positions (alat units)
         1           Hf  tau(   1) = (   0.3126464   0.3310449   0.7732979  )
         2           Hf  tau(   2) = (   0.1467202   0.1506188   0.5923263  )
         3           Hf  tau(   3) = (   0.1470125   0.8653167   0.5957925  )
         4           Hf  tau(   4) = (   0.4785725   0.1506188   0.5923263  )
         5           Hf  tau(   5) = (   0.4782802   0.8653167   0.5957925  )
         6           Nb  tau(   6) = (   0.3126464   0.3275094   0.4116608  )
         7           Nb  tau(   7) = (   0.3126464   0.6881006   0.7769319  )
         8           Ta  tau(   8) = (   0.1416128   0.5083054   0.5938087  )
         9           Ta  tau(   9) = (   0.4836800   0.5083054   0.5938087  )
        10           Ta  tau(  10) = (   0.1530741   0.1538785   0.2410748  )
        11           Ta  tau(  11) = (   0.1525513   0.1532074   0.9478430  )
        12           Ta  tau(  12) = (   0.1526943   0.8636799   0.2396062  )
        13           Ta  tau(  13) = (   0.1531277   0.8624219   0.9468387  )
        14           Ta  tau(  14) = (   0.4722187   0.1538785   0.2410748  )
        15           Ta  tau(  15) = (   0.4727414   0.1532074   0.9478430  )
        16           Ta  tau(  16) = (   0.4725984   0.8636799   0.2396062  )
        17           Ta  tau(  17) = (   0.4721650   0.8624219   0.9468387  )
        18           Zr  tau(  18) = (   0.3126464   0.6869187   0.4130426  )
        19           Zr  tau(  19) = (   0.1456481   0.5060981   0.2341920  )
        20           Zr  tau(  20) = (   0.1452442   0.5098505   0.9543040  )
        21           Zr  tau(  21) = (   0.4796447   0.5060981   0.2341920  )
        22           Zr  tau(  22) = (   0.4800486   0.5098505   0.9543040  )
        23           H   tau(  23) = (   0.6161590   0.6229269   0.6601716  )

     number of k points=     1  Gaussian smearing, width (Ry)=  0.0220
                       cart. coord. in units 2pi/alat
        k(    1) = (   0.0000000   0.0000000   0.0000000), wk =   1.0000000

     Dense  grid:   450774 G-vectors     FFT dimensions: ( 120, 120, 135)

     Estimated max dynamical RAM per process >     123.77 MB

     Estimated total dynamical RAM >       5.08 GB

     Check: negative core charge=   -0.000002
     Generating pointlists ...
     new r_m :   0.1181 (alat units)  1.9052 (a.u.) for type    1
     new r_m :   0.1201 (alat units)  1.9374 (a.u.) for type    2
     new r_m :   0.0773 (alat units)  1.2471 (a.u.) for type    3
     new r_m :   0.1216 (alat units)  1.9625 (a.u.) for type    4
     new r_m :   0.0773 (alat units)  1.2471 (a.u.) for type    5

     Initial potential from superposition of free atoms

     starting charge     266.9726, renormalised to     277.0000

     negative rho (up, down):  9.226E-01 9.226E-01
     Starting wfcs are  287 randomized atomic wfcs

     total cpu time spent up to now is       10.9 secs

     Self-consistent Calculation

     iteration #  1     ecut=   120.00 Ry     beta= 0.70
     Davidson diagonalization with overlap
     ethr =  1.00E-02,  avg # of iterations =  2.0

     negative rho (up, down):  9.852E-01 9.851E-01

     total cpu time spent up to now is       26.5 secs

     total energy              =   -2931.88113744 Ry
     estimated scf accuracy    <     287.24461499 Ry

     total magnetization       =    -0.00 Bohr mag/cell
     absolute magnetization    =     0.11 Bohr mag/cell

     iteration #  2     ecut=   120.00 Ry     beta= 0.70
     Davidson diagonalization with overlap
     ethr =  1.00E-02,  avg # of iterations =  5.0

     negative rho (up, down):  9.444E-01 9.451E-01

     total cpu time spent up to now is       43.2 secs

     total energy              =   -2942.19949088 Ry
     estimated scf accuracy    <      34.81744859 Ry

     total magnetization       =    -0.06 Bohr mag/cell
     absolute magnetization    =     0.39 Bohr mag/cell

     iteration #  3     ecut=   120.00 Ry     beta= 0.70
     Davidson diagonalization with overlap
     ethr =  1.00E-02,  avg # of iterations =  2.0

     negative rho (up, down):  9.721E-01 9.744E-01

     total cpu time spent up to now is       58.7 secs

     total energy              =   -2942.66134207 Ry
     estimated scf accuracy    <      14.80646083 Ry

     total magnetization       =    -0.01 Bohr mag/cell
     absolute magnetization    =     0.46 Bohr mag/cell

     iteration #  4     ecut=   120.00 Ry     beta= 0.70
     Davidson diagonalization with overlap
     ethr =  5.35E-03,  avg # of iterations =  4.0

     negative rho (up, down):  9.664E-01 9.698E-01

     total cpu time spent up to now is       73.7 secs

     total energy              =   -2942.93067980 Ry
     estimated scf accuracy    <       3.17459475 Ry

     total magnetization       =    -0.22 Bohr mag/cell
     absolute magnetization    =     0.57 Bohr mag/cell

     iteration #  5     ecut=   120.00 Ry     beta= 0.70
     Davidson diagonalization with overlap
     ethr =  1.15E-03,  avg # of iterations =  7.0

     negative rho (up, down):  9.431E-01 9.448E-01

     total cpu time spent up to now is       92.5 secs

     total energy              =   -2943.07160122 Ry
     estimated scf accuracy    <       1.62800254 Ry

     total magnetization       =    -0.12 Bohr mag/cell
     absolute magnetization    =     0.28 Bohr mag/cell

     iteration #  6     ecut=   120.00 Ry     beta= 0.70
     Davidson diagonalization with overlap
     ethr =  5.88E-04,  avg # of iterations =  2.0

     negative rho (up, down):  9.307E-01 9.316E-01

     total cpu time spent up to now is      106.4 secs

     total energy              =   -2943.07350701 Ry
     estimated scf accuracy    <       1.11890042 Ry

     total magnetization       =    -0.09 Bohr mag/cell
     absolute magnetization    =     0.21 Bohr mag/cell

     iteration #  7     ecut=   120.00 Ry     beta= 0.70
     Davidson diagonalization with overlap
     ethr =  4.04E-04,  avg # of iterations =  2.0

     negative rho (up, down):  9.129E-01 9.130E-01

     total cpu time spent up to now is      120.3 secs

     total energy              =   -2943.04694683 Ry
     estimated scf accuracy    <       0.30647776 Ry

     total magnetization       =    -0.09 Bohr mag/cell
     absolute magnetization    =     0.18 Bohr mag/cell

     iteration #  8     ecut=   120.00 Ry     beta= 0.70
     Davidson diagonalization with overlap
     ethr =  1.11E-04,  avg # of iterations = 12.0

     negative rho (up, down):  9.070E-01 9.070E-01

     total cpu time spent up to now is      136.9 secs

     total energy              =   -2943.05098466 Ry
     estimated scf accuracy    <       0.24076859 Ry

     total magnetization       =    -0.08 Bohr mag/cell
     absolute magnetization    =     0.14 Bohr mag/cell

     iteration #  9     ecut=   120.00 Ry     beta= 0.70
     Davidson diagonalization with overlap
     ethr =  8.69E-05,  avg # of iterations =  2.0

     negative rho (up, down):  9.080E-01 9.080E-01

     total cpu time spent up to now is      150.5 secs

     total energy              =   -2943.05629391 Ry
     estimated scf accuracy    <       0.05208172 Ry

     total magnetization       =    -0.06 Bohr mag/cell
     absolute magnetization    =     0.10 Bohr mag/cell

     iteration # 10     ecut=   120.00 Ry     beta= 0.70
     Davidson diagonalization with overlap
     ethr =  1.88E-05,  avg # of iterations = 10.0

     negative rho (up, down):  9.090E-01 9.090E-01

     total cpu time spent up to now is      168.4 secs

     total energy              =   -2943.06014148 Ry
     estimated scf accuracy    <       0.04983533 Ry

     total magnetization       =    -0.05 Bohr mag/cell
     absolute magnetization    =     0.08 Bohr mag/cell

     iteration # 11     ecut=   120.00 Ry     beta= 0.70
     Davidson diagonalization with overlap
     ethr =  1.80E-05,  avg # of iterations =  1.0

     negative rho (up, down):  9.098E-01 9.098E-01

     total cpu time spent up to now is      181.3 secs

     total energy              =   -2943.06355017 Ry
     estimated scf accuracy    <       0.00642951 Ry

     total magnetization       =    -0.05 Bohr mag/cell
     absolute magnetization    =     0.08 Bohr mag/cell

     iteration # 12     ecut=   120.00 Ry     beta= 0.70
     Davidson diagonalization with overlap
     ethr =  2.32E-06,  avg # of iterations = 15.0

     negative rho (up, down):  9.100E-01 9.100E-01

     total cpu time spent up to now is      202.1 secs

     total energy              =   -2943.06517649 Ry
     estimated scf accuracy    <       0.00121222 Ry

     total magnetization       =    -0.05 Bohr mag/cell
     absolute magnetization    =     0.06 Bohr mag/cell

     iteration # 13     ecut=   120.00 Ry     beta= 0.70
     Davidson diagonalization with overlap
     ethr =  4.38E-07,  avg # of iterations =  3.5

     negative rho (up, down):  9.098E-01 9.098E-01

     Magnetic moment per site  (integrated on atomic sphere of radius R)
     atom   1 (R=0.118)  charge=  9.1887    0.0000
     atom   2 (R=0.118)  charge=  8.8379   -0.0001
     atom   3 (R=0.118)  charge=  8.8376   -0.0003
     atom   4 (R=0.118)  charge=  8.8398   -0.0001
     atom   5 (R=0.118)  charge=  8.8328   -0.0003
     atom   6 (R=0.120)  charge= 10.3504   -0.0002
     atom   7 (R=0.120)  charge= 10.3516   -0.0001
     atom   8 (R=0.077)  charge=  5.9459   -0.0001
     atom   9 (R=0.077)  charge=  5.9637   -0.0000
     atom  10 (R=0.077)  charge=  5.9287   -0.0004
     atom  11 (R=0.077)  charge=  5.9284   -0.0003
     atom  12 (R=0.077)  charge=  5.9279   -0.0009
     atom  13 (R=0.077)  charge=  5.9289   -0.0003
     atom  14 (R=0.077)  charge=  5.9289   -0.0007
     atom  15 (R=0.077)  charge=  5.9288   -0.0004
     atom  16 (R=0.077)  charge=  5.9284   -0.0005
     atom  17 (R=0.077)  charge=  5.9305   -0.0004
     atom  18 (R=0.122)  charge=  9.4536    0.0002
     atom  19 (R=0.122)  charge=  8.9958   -0.0023
     atom  20 (R=0.122)  charge=  8.9941    0.0009
     atom  21 (R=0.122)  charge=  8.9948   -0.0016
     atom  22 (R=0.122)  charge=  8.9974   -0.0000
     atom  23 (R=0.077)  charge=  0.9042   -0.0000

     total cpu time spent up to now is      217.4 secs

     End of self-consistent calculation

 ------ SPIN UP ------------


          k = 0.0000 0.0000 0.0000 ( 56324 PWs)   bands (ev):

   -59.7646 -59.7612 -59.7188 -59.7186 -59.6821 -59.6741 -59.6366 -59.6362
   -59.5076 -59.1609 -53.3504 -53.3009 -53.2213 -53.1661 -51.6700 -45.2545
   -45.2370 -40.6207 -40.6043 -40.5308 -40.5036 -38.7808 -26.7653 -26.7581
   -26.6760 -26.6754 -26.5796 -26.5742 -26.4550 -26.4432 -26.3413 -26.3092
   -26.2777 -26.2472 -26.2415 -26.2094 -26.1959 -26.1522 -26.1394 -26.1257
   -26.0638 -25.9431 -25.9424 -25.9406 -25.9249 -25.8821 -25.8682 -25.8593
   -25.8409 -25.8394 -25.8274 -25.8190 -23.1362 -22.9195 -22.6292 -22.5318
   -22.2772 -22.1495 -22.1315 -22.0228 -21.8971 -21.8272 -21.7994 -21.5772
   -21.4904 -21.4369 -21.3736 -21.3349 -21.2491 -21.2049 -20.7317 -20.6609
   -20.6007 -19.1707 -18.9182 -18.8061 -18.8031 -18.6099 -18.5790 -18.5759
   -18.5662 -18.5505 -18.5165 -18.3446 -18.3350 -17.1268 -16.9207 -16.7984
     2.2564   3.3360   3.9475   4.1661   4.3429   4.4803   4.5468   4.7030
     4.7343   4.8344   4.9497   5.0773   5.2255   5.5155   5.6892   5.7050
     5.7932   5.8308   6.0598   6.1197   6.2007   6.2946   6.3093   6.3615
     6.4018   6.5721   6.6517   6.7329   6.7562   6.7699   6.7907   6.8512
     6.9845   7.0866   7.1894   7.2687   7.2850   7.3268   7.3875   7.3923
     7.4117   7.6289   7.6926   7.7608   7.9398   7.9971   8.0070   8.1212
     8.1634   8.2173   8.3084   8.3207   8.3346   8.4670   8.5459   8.5751
     8.6337   8.8025   8.8966   8.9730   9.0983   9.1032   9.2589   9.3215
     9.3364   9.3628   9.3822   9.4238   9.4700   9.6342   9.6882   9.7319
     9.9125   9.9799  10.0914  10.1274  10.1681  10.2774  10.2944

 ------ SPIN DOWN ----------


          k = 0.0000 0.0000 0.0000 ( 56324 PWs)   bands (ev):

   -59.7651 -59.7623 -59.7195 -59.7193 -59.6834 -59.6746 -59.6379 -59.6367
   -59.5079 -59.1610 -53.3506 -53.3011 -53.2214 -53.1662 -51.6700 -45.2546
   -45.2373 -40.6204 -40.6060 -40.5302 -40.5053 -38.7807 -26.7662 -26.7597
   -26.6774 -26.6767 -26.5807 -26.5755 -26.4557 -26.4448 -26.3417 -26.3100
   -26.2783 -26.2481 -26.2422 -26.2103 -26.1968 -26.1528 -26.1407 -26.1262
   -26.0644 -25.9441 -25.9436 -25.9414 -25.9265 -25.8829 -25.8694 -25.8603
   -25.8422 -25.8399 -25.8278 -25.8192 -23.1364 -22.9196 -22.6295 -22.5319
   -22.2774 -22.1498 -22.1318 -22.0230 -21.8973 -21.8274 -21.7994 -21.5772
   -21.4907 -21.4371 -21.3738 -21.3351 -21.2494 -21.2051 -20.7318 -20.6608
   -20.6006 -19.1725 -18.9167 -18.8073 -18.8052 -18.6102 -18.5784 -18.5770
   -18.5666 -18.5517 -18.5161 -18.3437 -18.3374 -17.1265 -16.9207 -16.7986
     2.2557   3.3353   3.9457   4.1655   4.3421   4.4790   4.5455   4.7026
     4.7337   4.8335   4.9477   5.0765   5.2244   5.5149   5.6885   5.7038
     5.7924   5.8298   6.0583   6.1189   6.1994   6.2936   6.3083   6.3602
     6.4002   6.5714   6.6514   6.7322   6.7550   6.7692   6.7901   6.8505
     6.9838   7.0850   7.1883   7.2675   7.2843   7.3254   7.3858   7.3914
     7.4104   7.6281   7.6918   7.7598   7.9385   7.9943   8.0050   8.1189
     8.1607   8.2119   8.3048   8.3181   8.3324   8.4622   8.5448   8.5718
     8.6316   8.8006   8.8951   8.9711   9.0967   9.1006   9.2569   9.3181
     9.3352   9.3604   9.3806   9.4219   9.4687   9.6323   9.6868   9.7308
     9.9113   9.9780  10.0885  10.1266  10.1671  10.2765  10.2934

     the Fermi energy is     8.2757 ev

!    total energy              =   -2943.06566346 Ry
     estimated scf accuracy    <       0.00024436 Ry
     smearing contrib. (-TS)   =      -0.10600411 Ry
     internal energy E=F+TS    =   -2942.95965935 Ry

     total magnetization       =    -0.05 Bohr mag/cell
     absolute magnetization    =     0.06 Bohr mag/cell

     convergence has been achieved in  13 iterations

     negative rho (up, down):  9.098E-01 9.098E-01

     Forces acting on atoms (cartesian axes, Ry/au):

     atom    1 type  1   force =     0.00027138   -0.02307948    0.01013522
     atom    2 type  1   force =    -0.12031630   -0.01791820   -0.00093694
     atom    3 type  1   force =    -0.11996460    0.01447184    0.00589085
     atom    4 type  1   force =     0.12539401   -0.01138459   -0.00338721
     atom    5 type  1   force =     0.13075262   -0.01139694    0.00881750
     atom    6 type  2   force =    -0.01060964   -0.02218512    0.00191678
     atom    7 type  2   force =    -0.02399494    0.01096203   -0.00963625
     atom    8 type  3   force =    -0.11818110    0.00669421    0.00182506
     atom    9 type  3   force =     0.03473815   -0.08502233   -0.06694032
     atom   10 type  3   force =    -0.02238781   -0.02675673   -0.05832154
     atom   11 type  3   force =    -0.02491606   -0.03330647    0.05570748
     atom   12 type  3   force =    -0.02076550    0.03260572   -0.05549480
     atom   13 type  3   force =    -0.01237314    0.02968837    0.06141004
     atom   14 type  3   force =     0.02250855   -0.02838590   -0.05905048
     atom   15 type  3   force =     0.02006200   -0.03765624    0.05862184
     atom   16 type  3   force =     0.02175955    0.03705363   -0.05289903
     atom   17 type  3   force =     0.01169281    0.04015671    0.06150712
     atom   18 type  4   force =    -0.00012667    0.02458031   -0.00877123
     atom   19 type  4   force =    -0.13657251   -0.00588614   -0.11626829
     atom   20 type  4   force =    -0.13597442    0.00465053    0.11459373
     atom   21 type  4   force =     0.13197034   -0.00846084   -0.11567642
     atom   22 type  4   force =     0.13687622    0.00270329    0.11474688
     atom   23 type  5   force =     0.11015707    0.10787235    0.05221001
     The non-local contrib.  to forces
     atom    1 type  1   force =     0.00474057   -0.00705361    0.03121841
     atom    2 type  1   force =    -0.24842098   -0.16332278    0.01541512
     atom    3 type  1   force =    -0.24105620    0.15465979   -0.02014460
     atom    4 type  1   force =     0.24710842   -0.16929803    0.02017887
     atom    5 type  1   force =     0.24570030    0.14131176   -0.01095546
     atom    6 type  2   force =     0.00974911   -0.06391193   -0.06987777
     atom    7 type  2   force =    -0.01660447    0.07353462    0.06525484
     atom    8 type  3   force =    -0.25413179    0.00275101    0.00053122
     atom    9 type  3   force =     0.09332181   -0.10243018   -0.05269755
     atom   10 type  3   force =    -0.22339737    0.00198913   -0.21626953
     atom   11 type  3   force =    -0.22554051    0.00982355    0.20109091
     atom   12 type  3   force =    -0.21323429   -0.02502530   -0.18008479
     atom   13 type  3   force =    -0.21470082   -0.00810356    0.20600765
     atom   14 type  3   force =     0.21677067    0.00489127   -0.21929972
     atom   15 type  3   force =     0.22033132    0.00486817    0.20223149
     atom   16 type  3   force =     0.21138657   -0.02213117   -0.18235854
     atom   17 type  3   force =     0.23832451   -0.01843889    0.19206387
     atom   18 type  4   force =    -0.01077552    0.06789993   -0.05658140
     atom   19 type  4   force =     0.06646278    0.00800711    0.07320923
     atom   20 type  4   force =     0.06201329   -0.01616948   -0.06393054
     atom   21 type  4   force =    -0.06347972    0.01177066    0.06789897
     atom   22 type  4   force =    -0.05800350   -0.00909529   -0.05436142
     atom   23 type  5   force =    -0.05808069   -0.04012882   -0.02993047
     The ionic contribution  to forces
     atom    1 type  1   force =    -0.23510887   -4.81049640   14.29096586
     atom    2 type  1   force =   -35.67712726   -6.15349815    0.74348569
     atom    3 type  1   force =   -35.68711713    6.25399606   -0.76748211
     atom    4 type  1   force =    35.54768964   -6.21098584    0.71287282
     atom    5 type  1   force =    35.13761014    6.96771213   -0.96199999
     atom    6 type  2   force =    -0.16104634   -3.69321465  -14.27267522
     atom    7 type  2   force =    -0.67427098    3.72704034   14.42189695
     atom    8 type  3   force =   -47.63700849   -0.03666213   -0.14193147
     atom    9 type  3   force =    45.61086415   -1.62348681   -1.06376682
     atom   10 type  3   force =   -32.19773227   -2.09736529  -23.47894396
     atom   11 type  3   force =   -31.27301652   -0.85306825   22.50679000
     atom   12 type  3   force =   -31.38879337    0.84288512  -22.56036452
     atom   13 type  3   force =   -32.19710959    2.26501361   23.53391519
     atom   14 type  3   force =    32.13921473   -2.10984467  -23.52266297
     atom   15 type  3   force =    31.18291246   -0.88074550   22.57480069
     atom   16 type  3   force =    31.28596148    0.91081949  -22.67483787
     atom   17 type  3   force =    31.97753412    2.46220855   23.78040217
     atom   18 type  4   force =    -0.32644958    4.42202953  -14.36542747
     atom   19 type  4   force =   -32.18376600    0.92274868  -25.96068389
     atom   20 type  4   force =   -32.17471779   -1.01469542   25.99239216
     atom   21 type  4   force =    32.06596401    0.87335671  -26.12588625
     atom   22 type  4   force =    31.87110698   -1.18295271   26.43265233
     atom   23 type  5   force =     4.99440647    1.01920559    0.90648868
     The local contribution  to forces
     atom    1 type  1   force =     0.23345957    4.79009054  -14.31381109
     atom    2 type  1   force =    35.81770656    6.29696943   -0.75650552
     atom    3 type  1   force =    35.82221763   -6.39218074    0.80187041
     atom    4 type  1   force =   -35.68084364    6.37010124   -0.73436228
     atom    5 type  1   force =   -35.26027042   -7.12282157    0.98945342
     atom    6 type  2   force =     0.14406554    3.72994337   14.35183046
     atom    7 type  2   force =     0.66850282   -3.78313877  -14.49645633
     atom    8 type  3   force =    47.79919235    0.03785116    0.14745314
     atom    9 type  3   force =   -45.67254214    1.65180576    1.06050080
     atom   10 type  3   force =    32.41885649    2.06502446   23.66179424
     atom   11 type  3   force =    31.50051248    0.79800731  -22.67978933
     atom   12 type  3   force =    31.59995466   -0.77415247   22.70472666
     atom   13 type  3   force =    32.42379450   -2.21685610  -23.70203810
     atom   14 type  3   force =   -32.35118001    2.07117270   23.70751859
     atom   15 type  3   force =   -31.40514893    0.82609009  -22.74318836
     atom   16 type  3   force =   -31.49232225   -0.84064488   22.82435206
     atom   17 type  3   force =   -32.22747865   -2.39223739  -23.93301775
     atom   18 type  4   force =     0.34064632   -4.46406933   14.42297830
     atom   19 type  4   force =    31.98434461   -0.94063336   25.78492556
     atom   20 type  4   force =    31.98311228    1.03594253  -25.82829450
     atom   21 type  4   force =   -31.87177787   -0.89631798   25.95783518
     atom   22 type  4   force =   -31.68029654    1.19382995  -26.27871302
     atom   23 type  5   force =    -4.82541868   -0.87168769   -0.82412885
     The core correction contribution to forces
     atom    1 type  1   force =     0.00047485    0.00231610   -0.00153865
     atom    2 type  1   force =    -0.01086970   -0.00124611    0.00046910
     atom    3 type  1   force =    -0.01191481    0.00266190   -0.00156197
     atom    4 type  1   force =     0.01134628   -0.00233336    0.00222775
     atom    5 type  1   force =     0.00718545    0.00547273   -0.00180541
     atom    6 type  2   force =    -0.00027513    0.00330663    0.00325624
     atom    7 type  2   force =     0.00088280   -0.00367426   -0.00255819
     atom    8 type  3   force =    -0.02965689    0.00113267    0.00030768
     atom    9 type  3   force =     0.00998670   -0.01298438   -0.00715419
     atom   10 type  3   force =    -0.02280371    0.00824976   -0.01680011
     atom   11 type  3   force =    -0.02556168    0.00888120    0.01855384
     atom   12 type  3   force =    -0.02233857   -0.00993208   -0.01499998
     atom   13 type  3   force =    -0.02293924   -0.00920419    0.01594918
     atom   14 type  3   force =     0.02239007    0.00871721   -0.01687136
     atom   15 type  3   force =     0.02385516    0.00947597    0.01643543
     atom   16 type  3   force =     0.02319071   -0.01053996   -0.01481164
     atom   17 type  3   force =     0.02400028   -0.00864643    0.01440910
     atom   18 type  4   force =     0.00062607   -0.00355644    0.00276189
     atom   19 type  4   force =    -0.01006533    0.00009829   -0.00960787
     atom   20 type  4   force =    -0.00993064    0.00050130    0.00911523
     atom   21 type  4   force =     0.00988060   -0.00007469   -0.00927247
     atom   22 type  4   force =     0.01004562    0.00040307    0.00810789
     atom   23 type  5   force =     0.00000000    0.00000000    0.00000000
     The Hubbard contrib.    to forces
     atom    1 type  1   force =     0.00000000    0.00000000    0.00000000
     atom    2 type  1   force =     0.00000000    0.00000000    0.00000000
     atom    3 type  1   force =     0.00000000    0.00000000    0.00000000
     atom    4 type  1   force =     0.00000000    0.00000000    0.00000000
     atom    5 type  1   force =     0.00000000    0.00000000    0.00000000
     atom    6 type  2   force =     0.00000000    0.00000000    0.00000000
     atom    7 type  2   force =     0.00000000    0.00000000    0.00000000
     atom    8 type  3   force =     0.00000000    0.00000000    0.00000000
     atom    9 type  3   force =     0.00000000    0.00000000    0.00000000
     atom   10 type  3   force =     0.00000000    0.00000000    0.00000000
     atom   11 type  3   force =     0.00000000    0.00000000    0.00000000
     atom   12 type  3   force =     0.00000000    0.00000000    0.00000000
     atom   13 type  3   force =     0.00000000    0.00000000    0.00000000
     atom   14 type  3   force =     0.00000000    0.00000000    0.00000000
     atom   15 type  3   force =     0.00000000    0.00000000    0.00000000
     atom   16 type  3   force =     0.00000000    0.00000000    0.00000000
     atom   17 type  3   force =     0.00000000    0.00000000    0.00000000
     atom   18 type  4   force =     0.00000000    0.00000000    0.00000000
     atom   19 type  4   force =     0.00000000    0.00000000    0.00000000
     atom   20 type  4   force =     0.00000000    0.00000000    0.00000000
     atom   21 type  4   force =     0.00000000    0.00000000    0.00000000
     atom   22 type  4   force =     0.00000000    0.00000000    0.00000000
     atom   23 type  5   force =     0.00000000    0.00000000    0.00000000
     The SCF correction term to forces
     atom    1 type  1   force =    -0.00000000    0.00000000    0.00000000
     atom    2 type  1   force =    -0.00000000    0.00000000   -0.00000000
     atom    3 type  1   force =    -0.00000000   -0.00000000   -0.00000000
     atom    4 type  1   force =     0.00000000    0.00000000   -0.00000000
     atom    5 type  1   force =     0.00000000   -0.00000000   -0.00000000
     atom    6 type  2   force =    -0.00000000    0.00000000   -0.00000000
     atom    7 type  2   force =    -0.00000000   -0.00000000    0.00000000
     atom    8 type  3   force =     0.00000000    0.00000000   -0.00000000
     atom    9 type  3   force =    -0.00000000    0.00000000   -0.00000000
     atom   10 type  3   force =     0.00291734   -0.00466868   -0.00780072
     atom   11 type  3   force =    -0.00108154    0.00303584    0.00936353
     atom   12 type  3   force =     0.00387436   -0.00118345   -0.00447070
     atom   13 type  3   force =    -0.00118970   -0.00117528    0.00787759
     atom   14 type  3   force =    -0.00445863   -0.00333630   -0.00743355
     atom   15 type  3   force =    -0.00165973    0.00264113    0.00864406
     atom   16 type  3   force =    -0.00622867   -0.00046373   -0.00494157
     atom   17 type  3   force =    -0.00045916   -0.00274303    0.00795120
     atom   18 type  4   force =    -0.00394566    0.00226274   -0.01220108
     atom   19 type  4   force =     0.00667972    0.00387926   -0.00380987
     atom   20 type  4   force =     0.00377674   -0.00094229    0.00561284
     atom   21 type  4   force =    -0.00838839    0.00279057   -0.00595036
     atom   22 type  4   force =    -0.00574805    0.00050438    0.00736257
     atom   23 type  5   force =    -0.00052174    0.00046938    0.00008213

     Total force =     0.439168     Total SCF correction =     0.032978


     Computing stress (Cartesian axis) and pressure


     negative rho (up, down):  9.098E-01 9.098E-01
          total   stress  (Ry/bohr**3)                   (kbar)     P=       93.77
   0.00070793   0.00004502   0.00001666          104.14        6.62        2.45
   0.00004502   0.00076155   0.00001598            6.62      112.03        2.35
   0.00001666   0.00001598   0.00044292            2.45        2.35       65.16


     Molecular Dynamics Calculation

     Starting temperature  =   300.00 K

     temperature is set once at start

     mass Hf               =   178.49
     mass Nb               =    92.91
     mass Ta               =   180.95
     mass Zr               =    91.22
     mass H                =     2.01
     Time step             =     4.20 a.u.,  0.2032 femto-seconds

     Entering Dynamics:    iteration =     1
                           time      =   0.0002 pico-seconds


ATOMIC_POSITIONS (angstrom)
Hf            2.6699999570        2.8271230292        6.6039642186    0   0   0
Hf            1.2529906802        1.2862841814        5.0584662261    0   0   0
Hf            1.2554868986        7.3898042948        5.0880677674    0   0   0
Hf            4.0870092338        1.2862841814        5.0584662261    0   0   0
Hf            4.0845130154        7.3898042948        5.0880677674    0   0   0
Nb            2.6699999570        2.7969306055        3.5155832167    0   0   0
Nb            2.6699999570        5.8763786763        6.6349979432    0   0   0
Ta            1.2093730560        4.3409278516        5.0711258323    0   0   0
Ta            4.1306268580        4.3409278516        5.0711258323    0   0   0
Ta            1.3072520505        1.3141218322        2.0587774596
Ta            1.3027876091        1.3083901934        8.0945807789
Ta            1.3040090344        7.3758270468        2.0462356093
Ta            1.3077104482        7.3650837886        8.0860039587
Ta            4.0327478669        1.3141217861        2.0587774390
Ta            4.0372121676        1.3083900703        8.0945808614
Ta            4.0359909077        7.3758271727        2.0462356828
Ta            4.0322894465        7.3650840848        8.0860039615
Zr            2.6699999499        5.8662872232        3.5273834380
Zr            1.2438269526        4.3220776341        1.9999934733
Zr            1.2403777798        4.3541235456        8.1497619820
Zr            4.0961727031        4.3220774896        1.9999935066
Zr            4.0996221848        4.3541234362        8.1497619906
H             5.1582182712        5.2299459541        5.5859682078


     kinetic energy (Ekin) =           4.02414856 Ry
     temperature           =       30255.37169059 K 
     Ekin + Etot (const)   =       -2939.04151490 Ry
     Ions kinetic stress =           77.73 (kbar)
                                    116.59         100.97          58.29
                                    100.97          87.45          50.49
                                     58.29          50.49          29.15



     File outdir/pwscf.msd.dat deleted, as requested

     Writing config-only to output data dir outdir/pwscf.save/
     NEW-OLD atomic charge density approx. for the potential

     Check: negative core charge=   -0.000002

     negative rho (up, down):  9.097E-01 9.097E-01
     Generating pointlists ...
     new r_m :   0.0702 (alat units)  1.1327 (a.u.) for type    3
     new r_m :   0.0702 (alat units)  1.1327 (a.u.) for type    5

     total cpu time spent up to now is      240.4 secs

     Self-consistent Calculation

     iteration #  1     ecut=   120.00 Ry     beta= 0.70
     Davidson diagonalization with overlap
     ethr =  1.00E-06,  avg # of iterations =  9.0

     negative rho (up, down):  9.099E-01 9.099E-01

     total cpu time spent up to now is      267.1 secs

     total energy              =   -2942.99706466 Ry
     estimated scf accuracy    <       0.02559821 Ry

     total magnetization       =    -0.05 Bohr mag/cell
     absolute magnetization    =     0.06 Bohr mag/cell

     iteration #  2     ecut=   120.00 Ry     beta= 0.70
     Davidson diagonalization with overlap
     ethr =  9.24E-06,  avg # of iterations =  2.0

     negative rho (up, down):  9.098E-01 9.098E-01

     total cpu time spent up to now is      281.6 secs

     total energy              =   -2942.99940631 Ry
     estimated scf accuracy    <       0.00913755 Ry

     total magnetization       =    -0.05 Bohr mag/cell
     absolute magnetization    =     0.05 Bohr mag/cell

     iteration #  3     ecut=   120.00 Ry     beta= 0.70
     Davidson diagonalization with overlap
     ethr =  3.30E-06,  avg # of iterations =  1.0

     negative rho (up, down):  9.097E-01 9.097E-01

     total cpu time spent up to now is      294.3 secs

     total energy              =   -2942.99989203 Ry
     estimated scf accuracy    <       0.00134044 Ry

     total magnetization       =    -0.05 Bohr mag/cell
     absolute magnetization    =     0.05 Bohr mag/cell

     iteration #  4     ecut=   120.00 Ry     beta= 0.70
     Davidson diagonalization with overlap
     ethr =  4.84E-07,  avg # of iterations =  2.0

     negative rho (up, down):  9.096E-01 9.096E-01

     Magnetic moment per site  (integrated on atomic sphere of radius R)
     atom   1 (R=0.118)  charge=  9.1899    0.0000
     atom   2 (R=0.118)  charge=  8.8375   -0.0001
     atom   3 (R=0.118)  charge=  8.8375   -0.0002
     atom   4 (R=0.118)  charge=  8.8402   -0.0001
     atom   5 (R=0.118)  charge=  8.8323   -0.0002
     atom   6 (R=0.120)  charge= 10.3487    0.0000
     atom   7 (R=0.120)  charge= 10.3509   -0.0001
     atom   8 (R=0.070)  charge=  4.8739   -0.0001
     atom   9 (R=0.070)  charge=  4.8961   -0.0000
     atom  10 (R=0.070)  charge=  4.8624   -0.0003
     atom  11 (R=0.070)  charge=  4.8621   -0.0002
     atom  12 (R=0.070)  charge=  4.8631   -0.0006
     atom  13 (R=0.070)  charge=  4.8618   -0.0002
     atom  14 (R=0.070)  charge=  4.8622   -0.0004
     atom  15 (R=0.070)  charge=  4.8614   -0.0003
     atom  16 (R=0.070)  charge=  4.8627   -0.0004
     atom  17 (R=0.070)  charge=  4.8623   -0.0003
     atom  18 (R=0.122)  charge=  9.4545    0.0001
     atom  19 (R=0.122)  charge=  8.9975   -0.0019
     atom  20 (R=0.122)  charge=  8.9948    0.0003
     atom  21 (R=0.122)  charge=  8.9971   -0.0017
     atom  22 (R=0.122)  charge=  8.9984   -0.0001
     atom  23 (R=0.070)  charge=  0.8720   -0.0000

     total cpu time spent up to now is      308.4 secs

     End of self-consistent calculation

 ------ SPIN UP ------------


          k = 0.0000 0.0000 0.0000 ( 56324 PWs)   bands (ev):

   -59.7652 -59.7647 -59.7209 -59.7184 -59.6895 -59.6762 -59.6443 -59.6380
   -59.5071 -59.0592 -53.3654 -53.3187 -53.2354 -53.1806 -51.6809 -45.2532
   -45.2446 -40.6231 -40.6162 -40.5340 -40.5156 -38.7873 -26.7688 -26.7641
   -26.6827 -26.6782 -26.5824 -26.5768 -26.4591 -26.4504 -26.3427 -26.3118
   -26.2795 -26.2495 -26.2419 -26.2139 -26.1992 -26.1562 -26.1458 -26.1265
   -26.0632 -25.9485 -25.9436 -25.9422 -25.9316 -25.8899 -25.8750 -25.8669
   -25.8465 -25.8441 -25.7725 -25.7401 -23.1481 -22.9323 -22.6403 -22.5465
   -22.2898 -22.1603 -22.1428 -22.0330 -21.9089 -21.8432 -21.8124 -21.5931
   -21.4958 -21.4437 -21.3806 -21.3388 -21.2585 -21.2116 -20.7417 -20.6707
   -20.6107 -19.1819 -18.9221 -18.8166 -18.8158 -18.6107 -18.5851 -18.5831
   -18.5726 -18.5593 -18.5206 -18.3487 -18.3470 -17.1337 -16.9277 -16.8064
     2.1908   3.2311   3.9395   4.1609   4.3331   4.4841   4.5393   4.6996
     4.7379   4.8317   4.9428   5.0712   5.2247   5.4983   5.6847   5.6965
     5.7860   5.8216   6.0536   6.1076   6.1905   6.2915   6.3014   6.3511
     6.3910   6.5655   6.6639   6.7257   6.7511   6.7634   6.7866   6.8565
     6.9815   7.0862   7.1861   7.2669   7.2773   7.3314   7.3808   7.3864
     7.3954   7.6286   7.6923   7.7606   7.9371   7.9881   8.0031   8.1174
     8.1501   8.2087   8.2922   8.3136   8.3273   8.4581   8.5401   8.5639
     8.6284   8.7925   8.8886   8.9704   9.0916   9.0975   9.2505   9.3185
     9.3353   9.3571   9.3776   9.4279   9.4679   9.6295   9.6831   9.7273
     9.9112   9.9791  10.0833  10.1224  10.1578  10.2802  10.2883

 ------ SPIN DOWN ----------


          k = 0.0000 0.0000 0.0000 ( 56324 PWs)   bands (ev):

   -59.7662 -59.7652 -59.7219 -59.7190 -59.6907 -59.6768 -59.6455 -59.6385
   -59.5073 -59.0593 -53.3655 -53.3188 -53.2354 -53.1807 -51.6809 -45.2533
   -45.2446 -40.6231 -40.6178 -40.5338 -40.5172 -38.7872 -26.7700 -26.7653
   -26.6843 -26.6791 -26.5836 -26.5778 -26.4601 -26.4519 -26.3433 -26.3126
   -26.2800 -26.2506 -26.2427 -26.2149 -26.2000 -26.1569 -26.1469 -26.1270
   -26.0635 -25.9499 -25.9445 -25.9430 -25.9331 -25.8906 -25.8761 -25.8681
   -25.8479 -25.8449 -25.7726 -25.7403 -23.1483 -22.9324 -22.6404 -22.5466
   -22.2899 -22.1605 -22.1430 -22.0331 -21.9090 -21.8433 -21.8124 -21.5931
   -21.4959 -21.4437 -21.3807 -21.3389 -21.2587 -21.2116 -20.7418 -20.6707
   -20.6107 -19.1836 -18.9214 -18.8181 -18.8176 -18.6109 -18.5866 -18.5831
   -18.5731 -18.5603 -18.5205 -18.3501 -18.3476 -17.1336 -16.9278 -16.8066
     2.1902   3.2303   3.9379   4.1604   4.3324   4.4830   4.5382   4.6991
     4.7373   4.8309   4.9410   5.0704   5.2237   5.4976   5.6839   5.6954
     5.7852   5.8206   6.0521   6.1065   6.1894   6.2906   6.3004   6.3499
     6.3895   6.5648   6.6633   6.7248   6.7499   6.7626   6.7858   6.8560
     6.9808   7.0848   7.1850   7.2660   7.2765   7.3302   7.3792   7.3856
     7.3942   7.6277   7.6914   7.7597   7.9358   7.9852   8.0014   8.1150
     8.1478   8.2039   8.2883   8.3109   8.3257   8.4537   8.5388   8.5608
     8.6264   8.7906   8.8873   8.9688   9.0901   9.0950   9.2487   9.3155
     9.3341   9.3548   9.3760   9.4262   9.4666   9.6276   9.6817   9.7260
     9.9100   9.9772  10.0807  10.1213  10.1567  10.2793  10.2872

     the Fermi energy is     8.2672 ev

!    total energy              =   -2942.99984411 Ry
     estimated scf accuracy    <       0.00020962 Ry
     smearing contrib. (-TS)   =      -0.10638362 Ry
     internal energy E=F+TS    =   -2942.89346049 Ry

     total magnetization       =    -0.05 Bohr mag/cell
     absolute magnetization    =     0.05 Bohr mag/cell

     convergence has been achieved in   4 iterations

     negative rho (up, down):  9.096E-01 9.096E-01

     Forces acting on atoms (cartesian axes, Ry/au):

     atom    1 type  1   force =    -0.00071247   -0.02393787    0.01449644
     atom    2 type  1   force =    -0.11853520   -0.01801726   -0.00270498
     atom    3 type  1   force =    -0.11799069    0.01425308    0.00163843
     atom    4 type  1   force =     0.12502389   -0.01466528   -0.00508762
     atom    5 type  1   force =     0.12552511   -0.00795608    0.00544286
     atom    6 type  2   force =    -0.00853409   -0.02217826    0.00202501
     atom    7 type  2   force =    -0.02273187    0.01125530   -0.00779697
     atom    8 type  3   force =    -0.11979428    0.00810577    0.00315350
     atom    9 type  3   force =    -0.08124803   -0.18646995   -0.12871754
     atom   10 type  3   force =    -0.02117876   -0.02745552   -0.05964969
     atom   11 type  3   force =    -0.02378785   -0.03224497    0.05892526
     atom   12 type  3   force =    -0.01857842    0.03199725   -0.05661853
     atom   13 type  3   force =    -0.01188734    0.02934545    0.06470624
     atom   14 type  3   force =     0.02084227   -0.02896172   -0.06031060
     atom   15 type  3   force =     0.01876019   -0.03671227    0.06195456
     atom   16 type  3   force =     0.01961118    0.03645845   -0.05409032
     atom   17 type  3   force =     0.01198308    0.03734215    0.06377348
     atom   18 type  4   force =     0.00075096    0.02705722   -0.01196220
     atom   19 type  4   force =    -0.13456265   -0.00463041   -0.11722924
     atom   20 type  4   force =    -0.13421326    0.00358811    0.11671674
     atom   21 type  4   force =     0.13009813   -0.00712201   -0.11751712
     atom   22 type  4   force =     0.13346859    0.00373856    0.11827140
     atom   23 type  5   force =     0.22769150    0.20721024    0.11058092
     The non-local contrib.  to forces
     atom    1 type  1   force =     0.00488978   -0.00721346    0.03212100
     atom    2 type  1   force =    -0.24819894   -0.16343861    0.01445090
     atom    3 type  1   force =    -0.24189170    0.15454405   -0.02320263
     atom    4 type  1   force =     0.24715469   -0.17012674    0.01878437
     atom    5 type  1   force =     0.24611721    0.14098826   -0.01555926
     atom    6 type  2   force =     0.01026153   -0.06347582   -0.07014976
     atom    7 type  2   force =    -0.01271566    0.07359549    0.06534527
     atom    8 type  3   force =    -0.25335022    0.00179464   -0.00106740
     atom    9 type  3   force =     0.11674747   -0.08304327   -0.04568234
     atom   10 type  3   force =    -0.22328544   -0.00073421   -0.22174247
     atom   11 type  3   force =    -0.22597983    0.01181072    0.20403336
     atom   12 type  3   force =    -0.21086751   -0.02518468   -0.18275596
     atom   13 type  3   force =    -0.21363220   -0.00972556    0.20958519
     atom   14 type  3   force =     0.21387099    0.00428344   -0.22189540
     atom   15 type  3   force =     0.21903140    0.00573843    0.20616494
     atom   16 type  3   force =     0.20790678   -0.02273237   -0.18383525
     atom   17 type  3   force =     0.23253413   -0.01643898    0.20092935
     atom   18 type  4   force =    -0.01139710    0.06891698   -0.05846148
     atom   19 type  4   force =     0.06904562    0.00932364    0.07219936
     atom   20 type  4   force =     0.06369367   -0.01593098   -0.06268306
     atom   21 type  4   force =    -0.06542552    0.01250901    0.06619916
     atom   22 type  4   force =    -0.05946816   -0.00847691   -0.05121306
     atom   23 type  5   force =    -0.07470086   -0.05793022   -0.03969650
     The ionic contribution  to forces
     atom    1 type  1   force =    -0.25790267   -4.83211100   14.30959366
     atom    2 type  1   force =   -35.68642268   -6.16207532    0.74610937
     atom    3 type  1   force =   -35.70494873    6.25696931   -0.76222689
     atom    4 type  1   force =    35.55090573   -6.24076032    0.71598153
     atom    5 type  1   force =    35.19117079    6.97933115   -0.93365542
     atom    6 type  2   force =    -0.18004565   -3.71160624  -14.28847257
     atom    7 type  2   force =    -0.70025097    3.76481404   14.45723367
     atom    8 type  3   force =   -47.67513229   -0.03182381   -0.13782419
     atom    9 type  3   force =    45.17886797   -1.99637191   -1.27833068
     atom   10 type  3   force =   -32.20216386   -2.10152983  -23.48194654
     atom   11 type  3   force =   -31.27885251   -0.85842338   22.50803557
     atom   12 type  3   force =   -31.39523463    0.84472255  -22.56244868
     atom   13 type  3   force =   -32.20601752    2.26457330   23.53215370
     atom   14 type  3   force =    32.14055042   -2.11846711  -23.52937940
     atom   15 type  3   force =    31.18729178   -0.89370995   22.57933760
     atom   16 type  3   force =    31.29068699    0.91733294  -22.68022021
     atom   17 type  3   force =    32.00112955    2.45539029   23.76694091
     atom   18 type  4   force =    -0.35291654    4.44424456  -14.38740844
     atom   19 type  4   force =   -32.19236976    0.92450578  -25.96660324
     atom   20 type  4   force =   -32.18872270   -1.01000007   25.99557597
     atom   21 type  4   force =    32.06597897    0.87393376  -26.15192720
     atom   22 type  4   force =    31.88781716   -1.16754840   26.45867041
     atom   23 type  5   force =     5.52658116    1.39860966    1.09081107
     The local contribution  to forces
     atom    1 type  1   force =     0.24790426    4.80852733  -14.31954698
     atom    2 type  1   force =    35.83139337    6.30625611   -0.76694413
     atom    3 type  1   force =    35.84597563   -6.39607237    0.78195600
     atom    4 type  1   force =   -35.69230729    6.39284932   -0.74555161
     atom    5 type  1   force =   -35.33165262   -7.12525317    0.95087969
     atom    6 type  2   force =     0.15755495    3.74201231   14.34704279
     atom    7 type  2   force =     0.68902292   -3.81909136  -14.52122240
     atom    8 type  3   force =    47.84253141    0.03671513    0.13915044
     atom    9 type  3   force =   -45.39370333    1.91170984    1.20377687
     atom   10 type  3   force =    32.42951957    2.06132101   23.65456915
     atom   11 type  3   force =    31.50927339    0.80608120  -22.66287957
     atom   12 type  3   force =    31.61271094   -0.77676132   22.69684360
     atom   13 type  3   force =    32.43338664   -2.21441045  -23.68166711
     atom   14 type  3   force =   -32.36172811    2.07131599   23.70028993
     atom   15 type  3   force =   -31.41796442    0.84044675  -22.73060417
     atom   16 type  3   force =   -31.50887164   -0.84586555   22.81699494
     atom   17 type  3   force =   -32.24884913   -2.39399271  -23.90975835
     atom   18 type  4   force =     0.36142988   -4.47408803   14.41950577
     atom   19 type  4   force =    32.00255074   -0.93528441   25.77755272
     atom   20 type  4   force =    32.00625799    1.02738329  -25.81503239
     atom   21 type  4   force =   -31.88697010   -0.89079011   25.96728727
     atom   22 type  4   force =   -31.71344920    1.18084141  -26.28661283
     atom   23 type  5   force =    -5.22680201   -1.13425108   -0.94086224
     The core correction contribution to forces
     atom    1 type  1   force =     0.00064192    0.00215828   -0.00184262
     atom    2 type  1   force =    -0.01092913   -0.00134423    0.00046088
     atom    3 type  1   force =    -0.01198638    0.00272426   -0.00165637
     atom    4 type  1   force =     0.01139646   -0.00242697    0.00215653
     atom    5 type  1   force =     0.00762999    0.00504035   -0.00165643
     atom    6 type  2   force =    -0.00016141    0.00345406    0.00345350
     atom    7 type  2   force =     0.00065495   -0.00363437   -0.00253548
     atom    8 type  3   force =    -0.02952729    0.00104513    0.00028158
     atom    9 type  3   force =     0.00964071   -0.01292363   -0.00764837
     atom   10 type  3   force =    -0.02265226    0.00817072   -0.01686615
     atom   11 type  3   force =    -0.02558792    0.00900356    0.01856511
     atom   12 type  3   force =    -0.02226505   -0.00998716   -0.01505859
     atom   13 type  3   force =    -0.02282507   -0.00934609    0.01595301
     atom   14 type  3   force =     0.02226808    0.00866365   -0.01703077
     atom   15 type  3   force =     0.02382317    0.00947053    0.01663804
     atom   16 type  3   force =     0.02285874   -0.01047312   -0.01476541
     atom   17 type  3   force =     0.02349442   -0.00833185    0.01508611
     atom   18 type  4   force =     0.00066113   -0.00355224    0.00274001
     atom   19 type  4   force =    -0.01014645    0.00007613   -0.00965813
     atom   20 type  4   force =    -0.00997021    0.00047970    0.00917812
     atom   21 type  4   force =     0.00988716   -0.00007780   -0.00930246
     atom   22 type  4   force =     0.00999343    0.00034379    0.00813009
     atom   23 type  5   force =     0.00000000    0.00000000    0.00000000
     The Hubbard contrib.    to forces
     atom    1 type  1   force =     0.00000000    0.00000000    0.00000000
     atom    2 type  1   force =     0.00000000    0.00000000    0.00000000
     atom    3 type  1   force =     0.00000000    0.00000000    0.00000000
     atom    4 type  1   force =     0.00000000    0.00000000    0.00000000
     atom    5 type  1   force =     0.00000000    0.00000000    0.00000000
     atom    6 type  2   force =     0.00000000    0.00000000    0.00000000
     atom    7 type  2   force =     0.00000000    0.00000000    0.00000000
     atom    8 type  3   force =     0.00000000    0.00000000    0.00000000
     atom    9 type  3   force =     0.00000000    0.00000000    0.00000000
     atom   10 type  3   force =     0.00000000    0.00000000    0.00000000
     atom   11 type  3   force =     0.00000000    0.00000000    0.00000000
     atom   12 type  3   force =     0.00000000    0.00000000    0.00000000
     atom   13 type  3   force =     0.00000000    0.00000000    0.00000000
     atom   14 type  3   force =     0.00000000    0.00000000    0.00000000
     atom   15 type  3   force =     0.00000000    0.00000000    0.00000000
     atom   16 type  3   force =     0.00000000    0.00000000    0.00000000
     atom   17 type  3   force =     0.00000000    0.00000000    0.00000000
     atom   18 type  4   force =     0.00000000    0.00000000    0.00000000
     atom   19 type  4   force =     0.00000000    0.00000000    0.00000000
     atom   20 type  4   force =     0.00000000    0.00000000    0.00000000
     atom   21 type  4   force =     0.00000000    0.00000000    0.00000000
     atom   22 type  4   force =     0.00000000    0.00000000    0.00000000
     atom   23 type  5   force =     0.00000000    0.00000000    0.00000000
     The SCF correction term to forces
     atom    1 type  1   force =     0.00000000    0.00000000   -0.00000000
     atom    2 type  1   force =    -0.00000000    0.00000000    0.00000000
     atom    3 type  1   force =    -0.00000000   -0.00000000    0.00000000
     atom    4 type  1   force =     0.00000000    0.00000000    0.00000000
     atom    5 type  1   force =     0.00000000   -0.00000000    0.00000000
     atom    6 type  2   force =     0.00000000    0.00000000    0.00000000
     atom    7 type  2   force =     0.00000000   -0.00000000   -0.00000000
     atom    8 type  3   force =    -0.00000000    0.00000000    0.00000000
     atom    9 type  3   force =     0.00000000   -0.00000000   -0.00000000
     atom   10 type  3   force =    -0.00296583    0.00533985    0.00616633
     atom   11 type  3   force =    -0.00301003   -0.00069401   -0.00899919
     atom   12 type  3   force =    -0.00329122   -0.00076908    0.00663112
     atom   13 type  3   force =    -0.00316823   -0.00172270   -0.01148854
     atom   14 type  3   force =     0.00551184    0.00526536    0.00753505
     atom   15 type  3   force =     0.00620921    0.00136504   -0.00975184
     atom   16 type  3   force =     0.00666126   -0.00178039    0.00756561
     atom   17 type  3   force =     0.00330507    0.00073846   -0.00959454
     atom   18 type  4   force =     0.00260454   -0.00844100    0.01149196
     atom   19 type  4   force =    -0.00401186   -0.00322850    0.00911006
     atom   20 type  4   force =    -0.00584106    0.00167924   -0.01049190
     atom   21 type  4   force =     0.00625856   -0.00267381    0.01005613
     atom   22 type  4   force =     0.00820630   -0.00139828   -0.01087320
     atom   23 type  5   force =     0.00224415    0.00080495    0.00015861

     Total force =     0.523738     Total SCF correction =     0.040401


     Computing stress (Cartesian axis) and pressure


     negative rho (up, down):  9.096E-01 9.096E-01
          total   stress  (Ry/bohr**3)                   (kbar)     P=       97.90
   0.00076175   0.00007595   0.00003440          112.06       11.17        5.06
   0.00007595   0.00078958   0.00003092           11.17      116.15        4.55
   0.00003440   0.00003092   0.00044530            5.06        4.55       65.51


     Entering Dynamics:    iteration =     2
                           time      =   0.0004 pico-seconds


ATOMIC_POSITIONS (angstrom)
Hf            2.6699999570        2.8271230292        6.6039642186    0   0   0
Hf            1.2529906802        1.2862841814        5.0584662261    0   0   0
Hf            1.2554868986        7.3898042948        5.0880677674    0   0   0
Hf            4.0870092338        1.2862841814        5.0584662261    0   0   0
Hf            4.0845130154        7.3898042948        5.0880677674    0   0   0
Nb            2.6699999570        2.7969306055        3.5155832167    0   0   0
Nb            2.6699999570        5.8763786763        6.6349979432    0   0   0
Ta            1.2093730560        4.3409278516        5.0711258323    0   0   0
Ta            4.1306268580        4.3409278516        5.0711258323    0   0   0
Ta            1.3072502182        1.3141195210        2.0587724329
Ta            1.3027855576        1.3083874258        8.0945856906
Ta            1.3040073952        7.3758297806        2.0462308342
Ta            1.3077094253        7.3650862897        8.0860093590
Ta            4.0327496836        1.3141193435        2.0587723543
Ta            4.0372137971        1.3083869267        8.0945860270
Ta            4.0359926335        7.3758302849        2.0462311242
Ta            4.0322904557        7.3650873348        8.0860093117
Zr            2.6700000271        5.8662916407        3.5273816027
Zr            1.2438041789        4.3220767838        1.9999737854
Zr            1.2403550790        4.3541242094        8.1497815183
Zr            4.0961947172        4.3220762150        1.9999738196
Zr            4.0996448527        4.3541240077        8.1497817101
H             5.0555966969        5.1411497715        5.5346335247


     kinetic energy (Ekin) =           3.95640059 Ry
     temperature           =       29746.01177229 K 
     Ekin + Etot (const)   =       -2939.04344352 Ry
     Ions kinetic stress =           76.42 (kbar)
                                    114.67          99.25          57.35
                                     99.25          85.90          49.64
                                     57.35          49.64          28.69



     Writing config-only to output data dir outdir/pwscf.save/
     NEW-OLD atomic charge density approx. for the potential

     Check: negative core charge=   -0.000002

     negative rho (up, down):  9.095E-01 9.095E-01
     Generating pointlists ...
     new r_m :   0.0632 (alat units)  1.0196 (a.u.) for type    3
     new r_m :   0.0632 (alat units)  1.0196 (a.u.) for type    5

     total cpu time spent up to now is      331.0 secs

     Self-consistent Calculation

     iteration #  1     ecut=   120.00 Ry     beta= 0.70
     Davidson diagonalization with overlap
     ethr =  1.00E-06,  avg # of iterations =  6.0

     negative rho (up, down):  9.096E-01 9.096E-01

     total cpu time spent up to now is      357.7 secs

     total energy              =   -2942.86937907 Ry
     estimated scf accuracy    <       0.05052038 Ry

     total magnetization       =    -0.04 Bohr mag/cell
     absolute magnetization    =     0.05 Bohr mag/cell

     iteration #  2     ecut=   120.00 Ry     beta= 0.70
     Davidson diagonalization with overlap
     ethr =  1.82E-05,  avg # of iterations =  2.0

     negative rho (up, down):  9.095E-01 9.095E-01

     total cpu time spent up to now is      372.6 secs

     total energy              =   -2942.87474208 Ry
     estimated scf accuracy    <       0.00757623 Ry

     total magnetization       =    -0.04 Bohr mag/cell
     absolute magnetization    =     0.05 Bohr mag/cell

     iteration #  3     ecut=   120.00 Ry     beta= 0.70
     Davidson diagonalization with overlap
     ethr =  2.74E-06,  avg # of iterations =  1.0

     negative rho (up, down):  9.094E-01 9.094E-01

     total cpu time spent up to now is      385.5 secs

     total energy              =   -2942.87520445 Ry
     estimated scf accuracy    <       0.00149272 Ry

     total magnetization       =    -0.04 Bohr mag/cell
     absolute magnetization    =     0.05 Bohr mag/cell

     iteration #  4     ecut=   120.00 Ry     beta= 0.70
     Davidson diagonalization with overlap
     ethr =  5.39E-07,  avg # of iterations =  2.0

     negative rho (up, down):  9.093E-01 9.093E-01

     Magnetic moment per site  (integrated on atomic sphere of radius R)
     atom   1 (R=0.118)  charge=  9.1895    0.0000
     atom   2 (R=0.118)  charge=  8.8372   -0.0001
     atom   3 (R=0.118)  charge=  8.8377   -0.0001
     atom   4 (R=0.118)  charge=  8.8404   -0.0001
     atom   5 (R=0.118)  charge=  8.8323   -0.0002
     atom   6 (R=0.120)  charge= 10.3470    0.0000
     atom   7 (R=0.120)  charge= 10.3491   -0.0001
     atom   8 (R=0.063)  charge=  3.7077   -0.0000
     atom   9 (R=0.063)  charge=  3.7303   -0.0000
     atom  10 (R=0.063)  charge=  3.6985   -0.0002
     atom  11 (R=0.063)  charge=  3.6980   -0.0001
     atom  12 (R=0.063)  charge=  3.7001   -0.0003
     atom  13 (R=0.063)  charge=  3.6975   -0.0001
     atom  14 (R=0.063)  charge=  3.6983   -0.0002
     atom  15 (R=0.063)  charge=  3.6975   -0.0002
     atom  16 (R=0.063)  charge=  3.7002   -0.0003
     atom  17 (R=0.063)  charge=  3.6973   -0.0002
     atom  18 (R=0.122)  charge=  9.4541    0.0001
     atom  19 (R=0.122)  charge=  8.9982   -0.0015
     atom  20 (R=0.122)  charge=  8.9950    0.0000
     atom  21 (R=0.122)  charge=  8.9981   -0.0016
     atom  22 (R=0.122)  charge=  8.9988   -0.0004
     atom  23 (R=0.063)  charge=  0.8425   -0.0000

     total cpu time spent up to now is      399.3 secs

     End of self-consistent calculation

 ------ SPIN UP ------------


          k = 0.0000 0.0000 0.0000 ( 56324 PWs)   bands (ev):

   -59.7698 -59.7609 -59.7249 -59.7151 -59.6943 -59.6715 -59.6484 -59.6337
   -59.5004 -58.9831 -53.3603 -53.3129 -53.2302 -53.1733 -51.6798 -45.2599
   -45.2439 -40.6194 -40.6159 -40.5292 -40.5186 -38.7958 -26.7708 -26.7615
   -26.6857 -26.6736 -26.5875 -26.5730 -26.4592 -26.4512 -26.3695 -26.3110
   -26.2918 -26.2518 -26.2399 -26.2151 -26.1945 -26.1555 -26.1457 -26.1223
   -26.0733 -26.0440 -25.9513 -25.9367 -25.9353 -25.9300 -25.8738 -25.8721
   -25.8510 -25.8416 -25.6785 -25.6441 -23.1446 -22.9276 -22.6383 -22.5443
   -22.2857 -22.1544 -22.1383 -22.0277 -21.9056 -21.8404 -21.8098 -21.5902
   -21.5042 -21.4445 -21.3783 -21.3334 -21.2602 -21.2107 -20.7400 -20.6684
   -20.6085 -19.1861 -18.9158 -18.8188 -18.8182 -18.6009 -18.5864 -18.5795
   -18.5705 -18.5560 -18.5169 -18.3517 -18.3441 -17.1407 -16.9333 -16.8143
     2.1351   3.1501   3.9433   4.1639   4.3283   4.4949   4.5391   4.7013
     4.7463   4.8407   4.9452   5.0686   5.2258   5.4800   5.6857   5.6970
     5.7835   5.8215   6.0561   6.1064   6.1893   6.2958   6.3070   6.3497
     6.3912   6.5667   6.6866   6.7269   6.7551   6.7659   6.7896   6.8701
     6.9868   7.0945   7.1884   7.2721   7.2774   7.3454   7.3829   7.3864
     7.3890   7.6333   7.6978   7.7674   7.9398   7.9848   8.0035   8.1234
     8.1469   8.2119   8.2866   8.3154   8.3299   8.4570   8.5412   8.5638
     8.6345   8.7909   8.8913   8.9740   9.0949   9.1016   9.2472   9.3207
     9.3368   9.3595   9.3802   9.4326   9.4675   9.6311   9.6864   9.7281
     9.9170   9.9848  10.0860  10.1242  10.1551  10.2860  10.2905

 ------ SPIN DOWN ----------


          k = 0.0000 0.0000 0.0000 ( 56324 PWs)   bands (ev):

   -59.7707 -59.7615 -59.7257 -59.7157 -59.6954 -59.6721 -59.6494 -59.6343
   -59.5005 -58.9832 -53.3604 -53.3130 -53.2303 -53.1733 -51.6798 -45.2599
   -45.2440 -40.6208 -40.6161 -40.5293 -40.5200 -38.7958 -26.7721 -26.7623
   -26.6871 -26.6745 -26.5888 -26.5739 -26.4605 -26.4523 -26.3698 -26.3118
   -26.2924 -26.2528 -26.2406 -26.2161 -26.1952 -26.1564 -26.1465 -26.1229
   -26.0736 -26.0442 -25.9526 -25.9376 -25.9362 -25.9313 -25.8752 -25.8730
   -25.8525 -25.8423 -25.6786 -25.6443 -23.1447 -22.9276 -22.6385 -22.5444
   -22.2858 -22.1545 -22.1384 -22.0278 -21.9057 -21.8405 -21.8099 -21.5903
   -21.5042 -21.4446 -21.3784 -21.3335 -21.2603 -21.2108 -20.7401 -20.6684
   -20.6085 -19.1876 -18.9156 -18.8202 -18.8197 -18.6012 -18.5878 -18.5799
   -18.5712 -18.5567 -18.5172 -18.3536 -18.3442 -17.1407 -16.9334 -16.8144
     2.1346   3.1493   3.9418   4.1634   4.3277   4.4939   4.5380   4.7009
     4.7456   4.8401   4.9436   5.0679   5.2248   5.4793   5.6850   5.6961
     5.7827   5.8205   6.0547   6.1054   6.1884   6.2948   6.3061   6.3487
     6.3897   6.5660   6.6860   6.7259   6.7540   6.7651   6.7888   6.8696
     6.9861   7.0931   7.1875   7.2713   7.2767   7.3443   7.3813   7.3853
     7.3882   7.6324   7.6970   7.7665   7.9386   7.9823   8.0021   8.1211
     8.1446   8.2076   8.2827   8.3129   8.3285   8.4530   8.5396   8.5609
     8.6326   8.7893   8.8901   8.9726   9.0935   9.0992   9.2456   9.3180
     9.3356   9.3574   9.3786   9.4310   9.4663   9.6293   9.6850   9.7269
     9.9158   9.9829  10.0836  10.1232  10.1541  10.2851  10.2895

     the Fermi energy is     8.2679 ev

!    total energy              =   -2942.87519034 Ry
     estimated scf accuracy    <       0.00020547 Ry
     smearing contrib. (-TS)   =      -0.10643320 Ry
     internal energy E=F+TS    =   -2942.76875715 Ry

     total magnetization       =    -0.04 Bohr mag/cell
     absolute magnetization    =     0.05 Bohr mag/cell

     convergence has been achieved in   4 iterations

     negative rho (up, down):  9.093E-01 9.093E-01

     Forces acting on atoms (cartesian axes, Ry/au):

     atom    1 type  1   force =     0.00048577   -0.02324895    0.01196618
     atom    2 type  1   force =    -0.12250464   -0.01700715   -0.00164130
     atom    3 type  1   force =    -0.12206015    0.01301361    0.00379150
     atom    4 type  1   force =     0.13057965   -0.01549752   -0.00339848
     atom    5 type  1   force =     0.12736953   -0.00528231    0.00680620
     atom    6 type  2   force =    -0.00493222   -0.02060706    0.00386380
     atom    7 type  2   force =    -0.02152049    0.01209260   -0.00715970
     atom    8 type  3   force =    -0.12645194    0.00982633    0.00534837
     atom    9 type  3   force =    -0.27656216   -0.36228839   -0.23336745
     atom   10 type  3   force =    -0.02303036   -0.02581607   -0.05642325
     atom   11 type  3   force =    -0.02545686   -0.03212390    0.05494194
     atom   12 type  3   force =    -0.02058052    0.03137527   -0.05404013
     atom   13 type  3   force =    -0.01460517    0.02844746    0.06004482
     atom   14 type  3   force =     0.02172754   -0.02740516   -0.05668943
     atom   15 type  3   force =     0.02027939   -0.03571654    0.05785438
     atom   16 type  3   force =     0.02131514    0.03570206   -0.05088668
     atom   17 type  3   force =     0.01436856    0.03533621    0.05910802
     atom   18 type  4   force =     0.00261183    0.02658755   -0.00982592
     atom   19 type  4   force =    -0.13669315   -0.00548152   -0.11363143
     atom   20 type  4   force =    -0.13741694    0.00362443    0.11209889
     atom   21 type  4   force =     0.13231152   -0.00740025   -0.11436756
     atom   22 type  4   force =     0.13462109    0.00382787    0.11543759
     atom   23 type  5   force =     0.42614458    0.37804146    0.21016966
     The non-local contrib.  to forces
     atom    1 type  1   force =     0.00673987   -0.00546403    0.02928935
     atom    2 type  1   force =    -0.24949781   -0.16382501    0.01592676
     atom    3 type  1   force =    -0.24392344    0.15471911   -0.02218794
     atom    4 type  1   force =     0.24994508   -0.16932643    0.01966889
     atom    5 type  1   force =     0.24968508    0.14053143   -0.01727644
     atom    6 type  2   force =     0.01019417   -0.06259214   -0.06962987
     atom    7 type  2   force =    -0.00942975    0.07320565    0.06491642
     atom    8 type  3   force =    -0.25296638    0.00048427   -0.00183046
     atom    9 type  3   force =     0.21098185   -0.00948823   -0.00683983
     atom   10 type  3   force =    -0.22597404   -0.00110894   -0.22236011
     atom   11 type  3   force =    -0.22855503    0.01296553    0.20037236
     atom   12 type  3   force =    -0.21244629   -0.02539753   -0.18123925
     atom   13 type  3   force =    -0.21502021   -0.01145689    0.20587291
     atom   14 type  3   force =     0.21488154    0.00558597   -0.21889810
     atom   15 type  3   force =     0.22098923    0.00625645    0.20359532
     atom   16 type  3   force =     0.20916948   -0.02359654   -0.18027629
     atom   17 type  3   force =     0.22912131   -0.01316136    0.20352854
     atom   18 type  4   force =    -0.01083964    0.06832199   -0.05609946
     atom   19 type  4   force =     0.06932847    0.00871877    0.07608114
     atom   20 type  4   force =     0.06226481   -0.01482259   -0.06661111
     atom   21 type  4   force =    -0.06395470    0.01195886    0.06911946
     atom   22 type  4   force =    -0.05680539   -0.00843996   -0.05289932
     atom   23 type  5   force =    -0.09757256   -0.08232462   -0.05319941
     The ionic contribution  to forces
     atom    1 type  1   force =    -0.28146580   -4.85462276   14.33094907
     atom    2 type  1   force =   -35.69595316   -6.17095447    0.74869217
     atom    3 type  1   force =   -35.72100061    6.26008299   -0.75718011
     atom    4 type  1   force =    35.55443069   -6.27242567    0.71922550
     atom    5 type  1   force =    35.24614770    6.97950883   -0.90483257
     atom    6 type  2   force =    -0.20064879   -3.73159086  -14.30645874
     atom    7 type  2   force =    -0.71913083    3.80439584   14.49317454
     atom    8 type  3   force =   -47.71529114   -0.02696263   -0.13377265
     atom    9 type  3   force =    44.60256696   -2.49407228   -1.56529070
     atom   10 type  3   force =   -32.20663152   -2.10575385  -23.48498836
     atom   11 type  3   force =   -31.28440830   -0.86355949   22.50934077
     atom   12 type  3   force =   -31.40135975    0.84643557  -22.56442916
     atom   13 type  3   force =   -32.21343289    2.26393724   23.53041782
     atom   14 type  3   force =    32.14201202   -2.12752832  -23.53630721
     atom   15 type  3   force =    31.19172502   -0.90609763   22.58392385
     atom   16 type  3   force =    31.29590734    0.92314870  -22.68442800
     atom   17 type  3   force =    32.02304689    2.44662478   23.75227494
     atom   18 type  4   force =    -0.37865304    4.46920471  -14.41014547
     atom   19 type  4   force =   -32.20117974    0.92639404  -25.97252162
     atom   20 type  4   force =   -32.20175947   -1.00534231   25.99873940
     atom   21 type  4   force =    32.06674867    0.87540860  -26.17872699
     atom   22 type  4   force =    31.90717776   -1.14972828   26.47968500
     atom   23 type  5   force =     6.19115202    1.91349724    1.35265853
     The local contribution  to forces
     atom    1 type  1   force =     0.27196380    4.83264969  -14.34872454
     atom    2 type  1   force =    35.82729921    6.31926856   -0.76735758
     atom    3 type  1   force =    35.84825958   -6.40376487    0.78539749
     atom    4 type  1   force =   -35.67898685    6.42575092   -0.74434398
     atom    5 type  1   force =   -35.37412718   -7.12311185    0.92904618
     atom    6 type  2   force =     0.18254339    3.76566681   14.37361598
     atom    7 type  2   force =     0.70252858   -3.86006084  -14.56628695
     atom    8 type  3   force =    47.85711392    0.03556417    0.14055387
     atom    9 type  3   force =   -45.09485681    2.15228778    1.34602308
     atom   10 type  3   force =    32.42964377    2.07686818   23.68272037
     atom   11 type  3   force =    31.50585959    0.81321041  -22.68899639
     atom   12 type  3   force =    31.61325212   -0.78186695   22.72065557
     atom   13 type  3   force =    32.42827625   -2.21908666  -23.70741811
     atom   14 type  3   force =   -32.35334498    2.08731082   23.72786680
     atom   15 type  3   force =   -31.40734034    0.85792744  -22.76092199
     atom   16 type  3   force =   -31.50163697   -0.85434911   22.84066037
     atom   17 type  3   force =   -32.25151425   -2.39275640  -23.92553721
     atom   18 type  4   force =     0.38918624   -4.50478013   14.45279649
     atom   19 type  4   force =    32.00187942   -0.94172847   25.80328743
     atom   20 type  4   force =    32.00360319    1.02381524  -25.83997288
     atom   21 type  4   force =   -31.87623942   -0.89485546   26.01254330
     atom   22 type  4   force =   -31.71767513    1.16147562  -26.32715921
     atom   23 type  5   force =    -5.66781734   -1.45365365   -1.08930705
     The core correction contribution to forces
     atom    1 type  1   force =     0.00085085    0.00216176   -0.00220066
     atom    2 type  1   force =    -0.01107041   -0.00150984    0.00063609
     atom    3 type  1   force =    -0.01202761    0.00277253   -0.00163858
     atom    4 type  1   force =     0.01155082   -0.00242670    0.00213953
     atom    5 type  1   force =     0.00827372    0.00454320   -0.00142204
     atom    6 type  2   force =     0.00000550    0.00361183    0.00367512
     atom    7 type  2   force =     0.00046572   -0.00359829   -0.00250316
     atom    8 type  3   force =    -0.02926203    0.00086106    0.00023280
     atom    9 type  3   force =     0.01251950   -0.01031534   -0.00678756
     atom   10 type  3   force =    -0.02267874    0.00803760   -0.01695946
     atom   11 type  3   force =    -0.02566146    0.00909482    0.01848296
     atom   12 type  3   force =    -0.02249026   -0.01006313   -0.01518554
     atom   13 type  3   force =    -0.02280599   -0.00939100    0.01586781
     atom   14 type  3   force =     0.02235681    0.00861363   -0.01713621
     atom   15 type  3   force =     0.02386294    0.00942345    0.01679680
     atom   16 type  3   force =     0.02273010   -0.01038822   -0.01470711
     atom   17 type  3   force =     0.02306127   -0.00793402    0.01568284
     atom   18 type  4   force =     0.00067508   -0.00356957    0.00271969
     atom   19 type  4   force =    -0.01021239    0.00008282   -0.00974733
     atom   20 type  4   force =    -0.00997946    0.00043558    0.00924168
     atom   21 type  4   force =     0.00986839   -0.00008358   -0.00934005
     atom   22 type  4   force =     0.00988602    0.00027403    0.00815039
     atom   23 type  5   force =     0.00000000    0.00000000    0.00000000
     The Hubbard contrib.    to forces
     atom    1 type  1   force =     0.00000000    0.00000000    0.00000000
     atom    2 type  1   force =     0.00000000    0.00000000    0.00000000
     atom    3 type  1   force =     0.00000000    0.00000000    0.00000000
     atom    4 type  1   force =     0.00000000    0.00000000    0.00000000
     atom    5 type  1   force =     0.00000000    0.00000000    0.00000000
     atom    6 type  2   force =     0.00000000    0.00000000    0.00000000
     atom    7 type  2   force =     0.00000000    0.00000000    0.00000000
     atom    8 type  3   force =     0.00000000    0.00000000    0.00000000
     atom    9 type  3   force =     0.00000000    0.00000000    0.00000000
     atom   10 type  3   force =     0.00000000    0.00000000    0.00000000
     atom   11 type  3   force =     0.00000000    0.00000000    0.00000000
     atom   12 type  3   force =     0.00000000    0.00000000    0.00000000
     atom   13 type  3   force =     0.00000000    0.00000000    0.00000000
     atom   14 type  3   force =     0.00000000    0.00000000    0.00000000
     atom   15 type  3   force =     0.00000000    0.00000000    0.00000000
     atom   16 type  3   force =     0.00000000    0.00000000    0.00000000
     atom   17 type  3   force =     0.00000000    0.00000000    0.00000000
     atom   18 type  4   force =     0.00000000    0.00000000    0.00000000
     atom   19 type  4   force =     0.00000000    0.00000000    0.00000000
     atom   20 type  4   force =     0.00000000    0.00000000    0.00000000
     atom   21 type  4   force =     0.00000000    0.00000000    0.00000000
     atom   22 type  4   force =     0.00000000    0.00000000    0.00000000
     atom   23 type  5   force =     0.00000000    0.00000000    0.00000000
     The SCF correction term to forces
     atom    1 type  1   force =     0.00000000    0.00000000    0.00000000
     atom    2 type  1   force =     0.00000000    0.00000000    0.00000000
     atom    3 type  1   force =     0.00000000   -0.00000000   -0.00000000
     atom    4 type  1   force =    -0.00000000    0.00000000   -0.00000000
     atom    5 type  1   force =    -0.00000000   -0.00000000    0.00000000
     atom    6 type  2   force =     0.00000000    0.00000000    0.00000000
     atom    7 type  2   force =     0.00000000   -0.00000000    0.00000000
     atom    8 type  3   force =     0.00000000   -0.00000000    0.00000000
     atom    9 type  3   force =    -0.00000000   -0.00000000   -0.00000000
     atom   10 type  3   force =     0.00247001   -0.00381443   -0.01496504
     atom   11 type  3   force =     0.00716818   -0.00379055    0.01561290
     atom   12 type  3   force =     0.00232349    0.00231195   -0.01397111
     atom   13 type  3   force =     0.00823752    0.00448941    0.01517504
     atom   14 type  3   force =    -0.00431801   -0.00134263   -0.01234406
     atom   15 type  3   force =    -0.00909762   -0.00318160    0.01433105
     atom   16 type  3   force =    -0.00499497    0.00093187   -0.01226500
     atom   17 type  3   force =    -0.00948682    0.00260784    0.01302956
     atom   18 type  4   force =     0.00210303   -0.00254482    0.00077348
     atom   19 type  4   force =     0.00335094    0.00109596   -0.01086040
     atom   20 type  4   force =     0.00831384   -0.00041686    0.01057244
     atom   21 type  4   force =    -0.00425158    0.00021596   -0.00809262
     atom   22 type  4   force =    -0.00810232    0.00029109    0.00753137
     atom   23 type  5   force =     0.00024231    0.00056713   -0.00011175

     Total force =     0.729016     Total SCF correction =     0.050216


     Computing stress (Cartesian axis) and pressure


     negative rho (up, down):  9.093E-01 9.093E-01
          total   stress  (Ry/bohr**3)                   (kbar)     P=      104.07
   0.00080950   0.00012487   0.00006183          119.08       18.37        9.10
   0.00012487   0.00084191   0.00005297           18.37      123.85        7.79
   0.00006183   0.00005297   0.00047102            9.10        7.79       69.29


     Entering Dynamics:    iteration =     3
                           time      =   0.0006 pico-seconds


ATOMIC_POSITIONS (angstrom)
Hf            2.6699999570        2.8271230292        6.6039642186    0   0   0
Hf            1.2529906802        1.2862841814        5.0584662261    0   0   0
[...]
     4.7151   4.8369   4.9480   5.0762   5.2085   5.5273   5.6818   5.7118
     5.7855   5.8550   6.0594   6.1259   6.2079   6.2850   6.3080   6.3694
     6.4089   6.5711   6.6198   6.7343   6.7493   6.7701   6.7820   6.8352
     6.9787   7.0744   7.1831   7.2530   7.2905   7.3080   7.3873   7.3935
     7.4422   7.6171   7.6844   7.7575   7.9341   8.0003   8.0076   8.1135
     8.1801   8.2128   8.3101   8.3211   8.3441   8.4763   8.5422   8.5942
     8.6300   8.8236   8.8974   8.9607   9.0974   9.1067   9.2625   9.3151
     9.3232   9.3605   9.3794   9.4013   9.4678   9.6290   9.6956   9.7325
     9.9032   9.9658  10.0876  10.1231  10.1801  10.2520  10.2893

     the Fermi energy is     8.2807 ev

!    total energy              =   -2943.11255497 Ry
     estimated scf accuracy    <       0.00012686 Ry
     smearing contrib. (-TS)   =      -0.10496920 Ry
     internal energy E=F+TS    =   -2943.00758577 Ry

     total magnetization       =    -0.01 Bohr mag/cell
     absolute magnetization    =     0.01 Bohr mag/cell

     convergence has been achieved in   5 iterations

     negative rho (up, down):  9.099E-01 9.099E-01

     Forces acting on atoms (cartesian axes, Ry/au):

     atom    1 type  1   force =    -0.00161245   -0.02056429    0.01200663
     atom    2 type  1   force =    -0.12062992   -0.01661400   -0.00523374
     atom    3 type  1   force =    -0.12053015    0.01295285    0.00173517
     atom    4 type  1   force =     0.12241406   -0.00866227   -0.00757772
     atom    5 type  1   force =     0.13816147   -0.01379671    0.00384133
     atom    6 type  2   force =    -0.01050935   -0.01887275    0.00224596
     atom    7 type  2   force =    -0.02440946    0.00919363   -0.01042754
     atom    8 type  3   force =    -0.11202874    0.00449719   -0.00139365
     atom    9 type  3   force =     0.14596039    0.01864859   -0.00179039
     atom   10 type  3   force =    -0.02119153   -0.02982678   -0.05884222
     atom   11 type  3   force =    -0.02321010   -0.03263566    0.05854747
     atom   12 type  3   force =    -0.01843140    0.03347179   -0.05407672
     atom   13 type  3   force =    -0.01136504    0.02752342    0.06359471
     atom   14 type  3   force =     0.02241530   -0.03006665   -0.05897406
     atom   15 type  3   force =     0.02091781   -0.03624283    0.06139967
     atom   16 type  3   force =     0.02020895    0.03792601   -0.05235671
     atom   17 type  3   force =     0.01262457    0.04108302    0.06404952
     atom   18 type  4   force =    -0.00323650    0.02349355   -0.01255229
     atom   19 type  4   force =    -0.13186542   -0.00536653   -0.11561423
     atom   20 type  4   force =    -0.13087579    0.00545627    0.11624065
     atom   21 type  4   force =     0.12878481   -0.00848507   -0.11545136
     atom   22 type  4   force =     0.13674547    0.00084784    0.11451780
     atom   23 type  5   force =    -0.01833700    0.00603939   -0.00388827
     The non-local contrib.  to forces
     atom    1 type  1   force =     0.00249330   -0.01019287    0.03178079
     atom    2 type  1   force =    -0.25260380   -0.16035667    0.01157354
     atom    3 type  1   force =    -0.24284997    0.15303709   -0.02160452
     atom    4 type  1   force =     0.24837724   -0.16541397    0.01922061
     atom    5 type  1   force =     0.23458400    0.15061979   -0.01077999
     atom    6 type  2   force =     0.00797380   -0.06400299   -0.06643424
     atom    7 type  2   force =    -0.02733453    0.07416773    0.06356420
     atom    8 type  3   force =    -0.26167125    0.00639551    0.00201121
     atom    9 type  3   force =     0.16175561   -0.05090318   -0.01758282
     atom   10 type  3   force =    -0.21696821    0.00446958   -0.20977135
     atom   11 type  3   force =    -0.21946970    0.00630721    0.20414764
     atom   12 type  3   force =    -0.21081093   -0.02514967   -0.17987358
     atom   13 type  3   force =    -0.21522665   -0.00692628    0.20707892
     atom   14 type  3   force =     0.21424752    0.00335269   -0.21995022
     atom   15 type  3   force =     0.21935327    0.00597977    0.20202738
     atom   16 type  3   force =     0.20859606   -0.02196244   -0.18629538
     atom   17 type  3   force =     0.25377987   -0.03097989    0.17387419
     atom   18 type  4   force =    -0.01007007    0.06819761   -0.06077522
     atom   19 type  4   force =     0.06488323    0.00742062    0.07072826
     atom   20 type  4   force =     0.06230533   -0.01744737   -0.06037911
     atom   21 type  4   force =    -0.06494905    0.01154862    0.06718834
     atom   22 type  4   force =    -0.06125463   -0.00948216   -0.05532910
     atom   23 type  5   force =    -0.03406878   -0.01342953   -0.01519124
     The ionic contribution  to forces
     atom    1 type  1   force =    -0.17878089   -4.71863517   14.26956992
     atom    2 type  1   force =   -35.64131427   -6.12038060    0.73556703
     atom    3 type  1   force =   -35.62234005    6.23715677   -0.78298728
     atom    4 type  1   force =    35.52801035   -6.12780715    0.70415974
     atom    5 type  1   force =    34.99979984    6.88107102   -1.03526067
     atom    6 type  2   force =    -0.11775283   -3.60383939  -14.25742497
     atom    7 type  2   force =    -0.58701924    3.59230791   14.35349914
     atom    8 type  3   force =   -47.51648089   -0.04945696   -0.15840295
     atom    9 type  3   force =    46.33271542   -0.99293443   -0.70751588
     atom   10 type  3   force =   -32.16479709   -2.06453609  -23.43395209
     atom   11 type  3   force =   -31.23627917   -0.81535648   22.46786686
     atom   12 type  3   force =   -31.35291729    0.81628589  -22.52057994
     atom   13 type  3   force =   -32.14539007    2.24544844   23.50446766
     atom   14 type  3   force =    32.11451339   -2.06773010  -23.46957740
     atom   15 type  3   force =    31.15033032   -0.82064896   22.52796002
     atom   16 type  3   force =    31.25916950    0.87126845  -22.62347971
     atom   17 type  3   force =    31.88392228    2.45179227   23.77857023
     atom   18 type  4   force =    -0.25438778    4.32235904  -14.32941229
     atom   19 type  4   force =   -32.10594900    0.91865827  -25.85729970
     atom   20 type  4   force =   -32.08048207   -1.02721798   25.90038512
     atom   21 type  4   force =    32.01355569    0.87465808  -25.97521185
     atom   22 type  4   force =    31.78744852   -1.21314855   26.26481640
     atom   23 type  5   force =     3.93442534    0.41068569    0.64424259
     The local contribution  to forces
     atom    1 type  1   force =     0.17324181    4.70652387  -14.29129833
     atom    2 type  1   force =    35.78619535    6.26436248   -0.76213885
     atom    3 type  1   force =    35.75717456   -6.37872953    0.79751627
     atom    4 type  1   force =   -35.66677514    6.28509006   -0.74343721
     atom    5 type  1   force =   -35.10030393   -7.05259377    1.04324611
     atom    6 type  2   force =     0.09949364    3.64103514   14.31140468
     atom    7 type  2   force =     0.58911822   -3.65423441  -14.42859046
     atom    8 type  3   force =    47.69675278    0.04601860    0.14672106
     atom    9 type  3   force =   -46.36473497    1.07205093    0.71946412
     atom   10 type  3   force =    32.38392403    2.01682588   23.59975035
     atom   11 type  3   force =    31.46034517    0.77116864  -22.62746055
     atom   12 type  3   force =    31.56828451   -0.74418148   22.65994346
     atom   13 type  3   force =    32.37548849   -2.20471200  -23.65881288
     atom   14 type  3   force =   -32.32804543    2.02025978   23.64586732
     atom   15 type  3   force =   -31.37605328    0.77152729  -22.68008305
     atom   16 type  3   force =   -31.47110997   -0.79660211   22.77097455
     atom   17 type  3   force =   -32.15286736   -2.37385725  -23.89713050
     atom   18 type  4   force =     0.26030424   -4.35766239   14.36250776
     atom   19 type  4   force =    31.91789207   -0.93095734   25.67811817
     atom   20 type  4   force =    31.90179764    1.04903017  -25.72877914
     atom   21 type  4   force =   -31.82806975   -0.89425934   25.79869186
     atom   22 type  4   force =   -31.60412400    1.22332249  -26.09887181
     atom   23 type  5   force =    -3.91857096   -0.39069884   -0.63443416
     The core correction contribution to forces
     atom    1 type  1   force =     0.00017621    0.00227830   -0.00068344
     atom    2 type  1   force =    -0.01101577   -0.00096602    0.00041577
     atom    3 type  1   force =    -0.01186625    0.00214821   -0.00125269
     atom    4 type  1   force =     0.01140872   -0.00195142    0.00241165
     atom    5 type  1   force =     0.00583408    0.00695876   -0.00253870
     atom    6 type  2   force =    -0.00040291    0.00303275    0.00274065
     atom    7 type  2   force =     0.00144570   -0.00376152   -0.00253555
     atom    8 type  3   force =    -0.03064516    0.00146920    0.00064265
     atom    9 type  3   force =     0.01720150   -0.00863875   -0.00344887
     atom   10 type  3   force =    -0.02277174    0.00846151   -0.01649560
     atom   11 type  3   force =    -0.02475444    0.00852965    0.01836627
     atom   12 type  3   force =    -0.02192295   -0.00978726   -0.01486828
     atom   13 type  3   force =    -0.02303107   -0.00911078    0.01584287
     atom   14 type  3   force =     0.02205689    0.00904271   -0.01643610
     atom   15 type  3   force =     0.02390022    0.00958931    0.01602357
     atom   16 type  3   force =     0.02325696   -0.01067554   -0.01496825
     atom   17 type  3   force =     0.02496534   -0.00932278    0.01265802
     atom   18 type  4   force =     0.00050010   -0.00352885    0.00278537
     atom   19 type  4   force =    -0.00995591    0.00014801   -0.00951513
     atom   20 type  4   force =    -0.00989657    0.00057651    0.00897025
     atom   21 type  4   force =     0.00994491   -0.00002732   -0.00930000
     atom   22 type  4   force =     0.01024926    0.00051395    0.00813431
     atom   23 type  5   force =     0.00000000    0.00000000    0.00000000
     The Hubbard contrib.    to forces
     atom    1 type  1   force =     0.00000000    0.00000000    0.00000000
     atom    2 type  1   force =     0.00000000    0.00000000    0.00000000
     atom    3 type  1   force =     0.00000000    0.00000000    0.00000000
     atom    4 type  1   force =     0.00000000    0.00000000    0.00000000
     atom    5 type  1   force =     0.00000000    0.00000000    0.00000000
     atom    6 type  2   force =     0.00000000    0.00000000    0.00000000
     atom    7 type  2   force =     0.00000000    0.00000000    0.00000000
     atom    8 type  3   force =     0.00000000    0.00000000    0.00000000
     atom    9 type  3   force =     0.00000000    0.00000000    0.00000000
     atom   10 type  3   force =     0.00000000    0.00000000    0.00000000
     atom   11 type  3   force =     0.00000000    0.00000000    0.00000000
     atom   12 type  3   force =     0.00000000    0.00000000    0.00000000
     atom   13 type  3   force =     0.00000000    0.00000000    0.00000000
     atom   14 type  3   force =     0.00000000    0.00000000    0.00000000
     atom   15 type  3   force =     0.00000000    0.00000000    0.00000000
     atom   16 type  3   force =     0.00000000    0.00000000    0.00000000
     atom   17 type  3   force =     0.00000000    0.00000000    0.00000000
     atom   18 type  4   force =     0.00000000    0.00000000    0.00000000
     atom   19 type  4   force =     0.00000000    0.00000000    0.00000000
     atom   20 type  4   force =     0.00000000    0.00000000    0.00000000
     atom   21 type  4   force =     0.00000000    0.00000000    0.00000000
     atom   22 type  4   force =     0.00000000    0.00000000    0.00000000
     atom   23 type  5   force =     0.00000000    0.00000000    0.00000000
     The SCF correction term to forces
     atom    1 type  1   force =     0.00000000   -0.00000000    0.00000000
     atom    2 type  1   force =    -0.00000000    0.00000000    0.00000000
     atom    3 type  1   force =    -0.00000000   -0.00000000    0.00000000
     atom    4 type  1   force =     0.00000000    0.00000000    0.00000000
     atom    5 type  1   force =    -0.00000000    0.00000000    0.00000000
     atom    6 type  2   force =     0.00000000    0.00000000    0.00000000
     atom    7 type  2   force =    -0.00000000    0.00000000    0.00000000
     atom    8 type  3   force =     0.00000000    0.00000000    0.00000000
     atom    9 type  3   force =    -0.00000000   -0.00000000    0.00000000
     atom   10 type  3   force =    -0.00055668    0.00496622    0.00092341
     atom   11 type  3   force =    -0.00303011   -0.00327080   -0.00507581
     atom   12 type  3   force =    -0.00104290   -0.00368180    0.00059856
     atom   13 type  3   force =    -0.00318390    0.00283793   -0.00568491
     atom   14 type  3   force =    -0.00033522    0.00502216    0.00041928
     atom   15 type  3   force =     0.00340912   -0.00267637   -0.00523131
     atom   16 type  3   force =     0.00031825   -0.00408846    0.00070902
     atom   17 type  3   force =     0.00284628    0.00346456   -0.00462546
     atom   18 type  4   force =     0.00043886   -0.00585798    0.01163903
     atom   19 type  4   force =     0.00128604   -0.00062221    0.00165112
     atom   20 type  4   force =    -0.00457826    0.00052883   -0.00465951
     atom   21 type  4   force =    -0.00167514   -0.00039123    0.00247724
     atom   22 type  4   force =     0.00444816   -0.00034401   -0.00493506
     atom   23 type  5   force =    -0.00010076   -0.00050405    0.00079149

     Total force =     0.405529     Total SCF correction =     0.023225


     Computing stress (Cartesian axis) and pressure


     negative rho (up, down):  9.099E-01 9.099E-01
          total   stress  (Ry/bohr**3)                   (kbar)     P=       87.19
   0.00064560   0.00000632  -0.00000380           94.97        0.93       -0.56
   0.00000632   0.00071069  -0.00000304            0.93      104.55       -0.45
  -0.00000380  -0.00000304   0.00042187           -0.56       -0.45       62.06


     Entering Dynamics:    iteration =    20
                           time      =   0.0041 pico-seconds


ATOMIC_POSITIONS (angstrom)
Hf            2.6699999570        2.8271230292        6.6039642186    0   0   0
Hf            1.2529906802        1.2862841814        5.0584662261    0   0   0
Hf            1.2554868986        7.3898042948        5.0880677674    0   0   0
Hf            4.0870092338        1.2862841814        5.0584662261    0   0   0
Hf            4.0845130154        7.3898042948        5.0880677674    0   0   0
Nb            2.6699999570        2.7969306055        3.5155832167    0   0   0
Nb            2.6699999570        5.8763786763        6.6349979432    0   0   0
Ta            1.2093730560        4.3409278516        5.0711258323    0   0   0
Ta            4.1306268580        4.3409278516        5.0711258323    0   0   0
Ta            1.3069451021        1.3137913180        2.0581029434
Ta            1.3025183401        1.3080065648        8.0952192209
Ta            1.3037771891        7.3762034250        2.0455978153
Ta            1.3075454020        7.3654059303        8.0866885227
Ta            4.0329725938        1.3138265272        2.0581303778
Ta            4.0374187334        1.3079992094        8.0952512012
Ta            4.0362117289        7.3762239014        2.0456375141
Ta            4.0324379659        7.3654519533        8.0866629378
Zr            2.6701663813        5.8668311355        3.5272514557
Zr            1.2407462009        4.3219524116        1.9973743478
Zr            1.2372948836        4.3541991132        8.1523126325
Zr            4.0991542315        4.3219184563        1.9974163164
Zr            4.1026109179        4.3541840443        8.1523448635
H             5.6357876105        5.6702525213        5.8428918895


     kinetic energy (Ekin) =           4.07511277 Ry
     temperature           =       30638.54368605 K 
     Ekin + Etot (const)   =       -2939.03744220 Ry
     Ions kinetic stress =           78.71 (kbar)
                                    114.63         102.00          59.05
                                    102.00          90.90          52.62
                                     59.05          52.62          30.61



     The maximum number of steps has been reached.

     End of molecular dynamics calculation

     diffusion coefficients :
     atom     1   D =       0.00000000 cm^2/s
     atom     2   D =       0.00000000 cm^2/s
     atom     3   D =       0.00000000 cm^2/s
     atom     4   D =       0.00000000 cm^2/s
     atom     5   D =       0.00000000 cm^2/s
     atom     6   D =       0.00000000 cm^2/s
     atom     7   D =       0.00000000 cm^2/s
     atom     8   D =       0.00000000 cm^2/s
     atom     9   D =       0.00000000 cm^2/s
     atom    10   D =       0.00000000 cm^2/s
     atom    11   D =       0.00000000 cm^2/s
     atom    12   D =       0.00000000 cm^2/s
     atom    13   D =       0.00000000 cm^2/s
     atom    14   D =       0.00000000 cm^2/s
     atom    15   D =       0.00000000 cm^2/s
     atom    16   D =       0.00000000 cm^2/s
     atom    17   D =       0.00000000 cm^2/s
     atom    18   D =       0.00000000 cm^2/s
     atom    19   D =       0.00000007 cm^2/s
     atom    20   D =       0.00000007 cm^2/s
     atom    21   D =       0.00000006 cm^2/s
     atom    22   D =       0.00000006 cm^2/s
     atom    23   D =       0.00124916 cm^2/s

     < D > =       0.00008925 cm^2/s

     Writing all to output data dir outdir/pwscf.save/

     init_run     :      9.22s CPU     10.15s WALL (       1 calls)
     electrons    :   1796.73s CPU   2087.10s WALL (      20 calls)
     update_pot   :     17.33s CPU     19.62s WALL (      19 calls)
     forces       :    216.50s CPU    253.92s WALL (      20 calls)
     stress       :    304.25s CPU    349.42s WALL (      20 calls)

     Called by init_run:
     wfcinit      :      6.84s CPU      7.45s WALL (       1 calls)
     potinit      :      0.41s CPU      0.45s WALL (       1 calls)
     hinit0       :      0.94s CPU      1.01s WALL (       1 calls)

     Called by electrons:
     c_bands      :   1420.75s CPU   1652.93s WALL (     100 calls)
     sum_band     :    244.11s CPU    282.20s WALL (     100 calls)
     v_of_rho     :      9.79s CPU     11.35s WALL (     120 calls)
     newd         :    147.07s CPU    169.18s WALL (     120 calls)
     mix_rho      :      0.88s CPU      1.10s WALL (     100 calls)

     Called by c_bands:
     init_us_2    :      3.65s CPU      3.81s WALL (     482 calls)
     init_us_2:cp :      3.64s CPU      3.81s WALL (     482 calls)
     regterg      :   1408.70s CPU   1638.41s WALL (     200 calls)

     Called by *egterg:
     rdiaghg      :     43.09s CPU     53.47s WALL (    1118 calls)
     h_psi        :    729.60s CPU    791.50s WALL (    1158 calls)
     s_psi        :    250.89s CPU    251.63s WALL (    1158 calls)
     g_psi        :      0.53s CPU      0.58s WALL (     956 calls)

     Called by h_psi:
     h_psi:calbec :    345.60s CPU    394.75s WALL (    1158 calls)
     vloc_psi     :     72.92s CPU     84.23s WALL (    1158 calls)
     add_vuspsi   :    309.85s CPU    311.23s WALL (    1158 calls)

     General routines
     calbec       :    641.39s CPU    761.19s WALL (    1558 calls)
     fft          :      7.17s CPU     17.43s WALL (    2499 calls)
     ffts         :      0.19s CPU      0.22s WALL (     100 calls)
     fftw         :     76.19s CPU     88.51s WALL (  102848 calls)

     Parallel routines

     PWSCF        :  39m30.01s CPU  45m51.15s WALL


   This run was terminated on:   0:59:58  12Jun2023            

=------------------------------------------------------------------------------=
   JOB DONE.
=------------------------------------------------------------------------------=
