
     Program PWSCF v.7.2 starts on 16Jun2023 at 20:53:34 

     This program is part of the open-source Quantum ESPRESSO suite
     for quantum simulation of materials; please cite
         "P. Giannozzi et al., J. Phys.:Condens. Matter 21 395502 (2009);
         "P. Giannozzi et al., J. Phys.:Condens. Matter 29 465901 (2017);
         "P. Giannozzi et al., J. Chem. Phys. 152 154105 (2020);
          URL http://www.quantum-espresso.org", 
     in publications or presentations arising from this work. More details at
     http://www.quantum-espresso.org/quote

     Parallel version (MPI), running on    42 processors

     MPI processes distributed on     1 nodes
     172621 MiB available memory on the printing compute node when the environment starts

     Reading input from md_data/md_Hf5Nb2Ta10Zr5H_20steps_50eV_incident45_polar90.in
Warning: card &CELL ignored
Warning: card / ignored

     Current dimensions of program PWSCF are:
     Max number of different atomic species (ntypx) = 10
     Max number of k-points (npk) =  40000
     Max angular momentum in pseudopotentials (lmaxx) =  4

     File outdir/pwscf.md deleted, as requested

     gamma-point specific algorithms are used

     R & G space division:  proc/nbgrp/npool/nimage =      42
     Subspace diagonalization in iterative solution of the eigenvalue problem:
     one sub-group per band group will be used
     custom distributed-memory algorithm (size of sub-group:  2*  2 procs)


     Parallelization info
     --------------------
     sticks:   dense  smooth     PW     G-vecs:    dense   smooth      PW
     Min         262     262     63                23470    23470    2920
     Max         265     265     66                23484    23484    2942
     Sum       11057   11057   2753               986005   986005  123175

     Using Slab Decomposition



     bravais-lattice index     =            0
     lattice parameter (alat)  =      17.6500  a.u.
     unit-cell volume          =    5552.8853 (a.u.)^3
     number of atoms/cell      =           23
     number of atomic types    =            5
     number of electrons       =       277.00
     number of Kohn-Sham states=          167
     kinetic-energy cutoff     =     120.0000  Ry
     charge density cutoff     =     480.0000  Ry
     scf convergence threshold =      1.0E-03
     mixing beta               =       0.7000
     number of iterations used =            8  TF        mixing
     energy convergence thresh.=      0.0E+00
     force convergence thresh. =      0.0E+00
     Exchange-correlation=  SLA  PW   PBX  PBC
                           (   1   4   3   4   0   0   0)
     nstep                     =           20


     celldm(1)=  17.650041  celldm(2)=   0.000000  celldm(3)=   0.000000
     celldm(4)=   0.000000  celldm(5)=   0.000000  celldm(6)=   0.000000

     crystal axes: (cart. coord. in units of alat)
               a(1) = (   1.000000   0.000000   0.000000 )  
               a(2) = (   0.000000   0.929336   0.000000 )  
               a(3) = (   0.000000   0.000000   1.086698 )  

     reciprocal axes: (cart. coord. in units 2 pi/alat)
               b(1) = (  1.000000  0.000000  0.000000 )  
               b(2) = (  0.000000  1.076037  0.000000 )  
               b(3) = (  0.000000  0.000000  0.920219 )  


     PseudoPot. # 1 for Hf read from file:
     q-e/pseudo/hf_pbe_v1.uspp.F.UPF
     MD5 check sum: 8ee9378dfe14276e333edf04c5e4aa26
     Pseudo is Ultrasoft + core correction, Zval = 12.0
     Generated by new atomic code, or converted to UPF format
     Using radial grid of  921 points,  8 beta functions with: 
                l(1) =   0
                l(2) =   0
                l(3) =   0
                l(4) =   1
                l(5) =   1
                l(6) =   2
                l(7) =   2
                l(8) =   3
     Q(r) pseudized with  6 coefficients,  rinner =    1.200   1.200   1.200
                                                       1.200   1.200   1.200
                                                       1.200

     PseudoPot. # 2 for Nb read from file:
     q-e/pseudo/nb_pbe_v1.uspp.F.UPF
     MD5 check sum: 573aab8a2fa660278ed4a62cd769473f
     Pseudo is Ultrasoft + core correction, Zval = 13.0
     Generated by new atomic code, or converted to UPF format
     Using radial grid of  887 points,  6 beta functions with: 
                l(1) =   0
                l(2) =   0
                l(3) =   1
                l(4) =   1
                l(5) =   2
                l(6) =   2
     Q(r) pseudized with  6 coefficients,  rinner =    1.000   1.000   1.000
                                                       1.000   1.000

     PseudoPot. # 3 for Ta read from file:
     q-e/pseudo/ta_pbe_v1.uspp.F.UPF
     MD5 check sum: f8bbe9446314a3b8ea5d9f3e3836c939
     Pseudo is Ultrasoft + core correction, Zval = 13.0
     Generated by new atomic code, or converted to UPF format
     Using radial grid of  921 points,  7 beta functions with: 
                l(1) =   0
                l(2) =   0
                l(3) =   1
                l(4) =   1
                l(5) =   2
                l(6) =   2
                l(7) =   3
     Q(r) pseudized with  6 coefficients,  rinner =    1.300   1.300   1.300
                                                       1.300   1.300   1.300
                                                       1.300

     PseudoPot. # 4 for Zr read from file:
     q-e/pseudo/zr_pbe_v1.uspp.F.UPF
     MD5 check sum: 5db81b1e868ab7776c4564c113de050b
     Pseudo is Ultrasoft + core correction, Zval = 12.0
     Generated by new atomic code, or converted to UPF format
     Using radial grid of  887 points,  6 beta functions with: 
                l(1) =   0
                l(2) =   0
                l(3) =   1
                l(4) =   1
                l(5) =   2
                l(6) =   2
     Q(r) pseudized with  6 coefficients,  rinner =    1.200   1.200   1.200
                                                       1.200   1.200

     PseudoPot. # 5 for H  read from file:
     q-e/pseudo/h_pbe_v1.4.uspp.F.UPF
     MD5 check sum: 761ae9a214b05c3daf00ab9f6b793d6f
     Pseudo is Ultrasoft, Zval =  1.0
     Generated by new atomic code, or converted to UPF format
     Using radial grid of  615 points,  2 beta functions with: 
                l(1) =   0
                l(2) =   0
     Q(r) pseudized with  8 coefficients,  rinner =    0.700

     atomic species   valence    mass     pseudopotential
        Hf            12.00   178.49000     Hf( 1.00)
        Nb            13.00    92.90637     Nb( 1.00)
        Ta            13.00   180.94788     Ta( 1.00)
        Zr            12.00    91.22400     Zr( 1.00)
        H              1.00     2.01400     H ( 1.00)

     Starting magnetic structure 
     atomic species   magnetization
        Hf           0.000
        Nb           0.000
        Ta           0.000
        Zr           0.000
        H            0.000

     No symmetry found



   Cartesian axes

     site n.     atom                  positions (alat units)
         1           Hf  tau(   1) = (   0.2858672   0.3026898   0.7070626  )
         2           Hf  tau(   2) = (   0.1341532   0.1377178   0.5415917  )
         3           Hf  tau(   3) = (   0.1344204   0.7911996   0.5447610  )
         4           Hf  tau(   4) = (   0.4375813   0.1377178   0.5415917  )
         5           Hf  tau(   5) = (   0.4373140   0.7911996   0.5447610  )
         6           Nb  tau(   6) = (   0.2858672   0.2994572   0.3764008  )
         7           Nb  tau(   7) = (   0.2858672   0.6291626   0.7103852  )
         8           Ta  tau(   8) = (   0.1294832   0.4647675   0.5429471  )
         9           Ta  tau(   9) = (   0.4422513   0.4647675   0.5429471  )
        10           Ta  tau(  10) = (   0.1399628   0.1406984   0.2204260  )
        11           Ta  tau(  11) = (   0.1394848   0.1400847   0.8666573  )
        12           Ta  tau(  12) = (   0.1396156   0.7897030   0.2190832  )
        13           Ta  tau(  13) = (   0.1400119   0.7885528   0.8657390  )
        14           Ta  tau(  14) = (   0.4317717   0.1406984   0.2204260  )
        15           Ta  tau(  15) = (   0.4322496   0.1400847   0.8666573  )
        16           Ta  tau(  16) = (   0.4321189   0.7897030   0.2190832  )
        17           Ta  tau(  17) = (   0.4317226   0.7885528   0.8657390  )
        18           Zr  tau(  18) = (   0.2858672   0.6280820   0.3776642  )
        19           Zr  tau(  19) = (   0.1331729   0.4627493   0.2141328  )
        20           Zr  tau(  20) = (   0.1328036   0.4661802   0.8725649  )
        21           Zr  tau(  21) = (   0.4385616   0.4627493   0.2141328  )
        22           Zr  tau(  22) = (   0.4389309   0.4661802   0.8725649  )
        23           H   tau(  23) = (   0.5936660   0.4646681   0.6944747  )

     number of k points=     1  Gaussian smearing, width (Ry)=  0.0220
                       cart. coord. in units 2pi/alat
        k(    1) = (   0.0000000   0.0000000   0.0000000), wk =   1.0000000

     Dense  grid:   493003 G-vectors     FFT dimensions: ( 125, 120, 135)

     Estimated max dynamical RAM per process >     133.03 MB

     Estimated total dynamical RAM >       5.46 GB

     Check: negative core charge=   -0.000002
     Generating pointlists ...
     new r_m :   0.1117 (alat units)  1.9717 (a.u.) for type    1
     new r_m :   0.1098 (alat units)  1.9374 (a.u.) for type    2
     new r_m :   0.0884 (alat units)  1.5596 (a.u.) for type    3
     new r_m :   0.0973 (alat units)  1.7177 (a.u.) for type    4
     new r_m :   0.0884 (alat units)  1.5596 (a.u.) for type    5

     Initial potential from superposition of free atoms

     starting charge     266.9726, renormalised to     277.0000

     negative rho (up, down):  9.216E-01 9.216E-01
     Starting wfcs are  287 randomized atomic wfcs

     total cpu time spent up to now is       14.0 secs

     Self-consistent Calculation

     iteration #  1     ecut=   120.00 Ry     beta= 0.70
     Davidson diagonalization with overlap
     ethr =  1.00E-02,  avg # of iterations =  2.0

     negative rho (up, down):  9.973E-01 9.969E-01

     total cpu time spent up to now is       35.1 secs

     total energy              =   -2930.59251708 Ry
     estimated scf accuracy    <     276.79727809 Ry

     total magnetization       =    -0.00 Bohr mag/cell
     absolute magnetization    =     0.09 Bohr mag/cell

     iteration #  2     ecut=   120.00 Ry     beta= 0.70
     Davidson diagonalization with overlap
     ethr =  1.00E-02,  avg # of iterations =  5.0

     negative rho (up, down):  9.689E-01 9.697E-01

     total cpu time spent up to now is       80.9 secs

     total energy              =   -2942.24632788 Ry
     estimated scf accuracy    <      30.08846244 Ry

     total magnetization       =     0.01 Bohr mag/cell
     absolute magnetization    =     0.27 Bohr mag/cell

     iteration #  3     ecut=   120.00 Ry     beta= 0.70
     Davidson diagonalization with overlap
     ethr =  1.00E-02,  avg # of iterations =  2.0

     negative rho (up, down):  9.992E-01 1.009E+00

     total cpu time spent up to now is      119.3 secs

     total energy              =   -2942.67748868 Ry
     estimated scf accuracy    <      13.12501623 Ry

     total magnetization       =     0.01 Bohr mag/cell
     absolute magnetization    =     0.43 Bohr mag/cell

     iteration #  4     ecut=   120.00 Ry     beta= 0.70
     Davidson diagonalization with overlap
     ethr =  4.74E-03,  avg # of iterations =  3.0

     negative rho (up, down):  1.006E+00 1.013E+00

     total cpu time spent up to now is      138.2 secs

     total energy              =   -2942.93888465 Ry
     estimated scf accuracy    <       3.16456346 Ry

     total magnetization       =     0.15 Bohr mag/cell
     absolute magnetization    =     0.47 Bohr mag/cell

     iteration #  5     ecut=   120.00 Ry     beta= 0.70
     Davidson diagonalization with overlap
     ethr =  1.14E-03,  avg # of iterations =  8.0

     negative rho (up, down):  9.844E-01 9.880E-01

     total cpu time spent up to now is      163.1 secs

     total energy              =   -2943.09544051 Ry
     estimated scf accuracy    <       1.83755723 Ry

     total magnetization       =     0.07 Bohr mag/cell
     absolute magnetization    =     0.23 Bohr mag/cell

     iteration #  6     ecut=   120.00 Ry     beta= 0.70
     Davidson diagonalization with overlap
     ethr =  6.63E-04,  avg # of iterations =  2.0

     negative rho (up, down):  9.711E-01 9.730E-01

     total cpu time spent up to now is      180.9 secs

     total energy              =   -2943.13834930 Ry
     estimated scf accuracy    <       0.99255670 Ry

     total magnetization       =     0.06 Bohr mag/cell
     absolute magnetization    =     0.17 Bohr mag/cell

     iteration #  7     ecut=   120.00 Ry     beta= 0.70
     Davidson diagonalization with overlap
     ethr =  3.58E-04,  avg # of iterations =  2.0

     negative rho (up, down):  9.447E-01 9.458E-01

     total cpu time spent up to now is      200.9 secs

     total energy              =   -2943.08998763 Ry
     estimated scf accuracy    <       0.39780872 Ry

     total magnetization       =     0.05 Bohr mag/cell
     absolute magnetization    =     0.14 Bohr mag/cell

     iteration #  8     ecut=   120.00 Ry     beta= 0.70
     Davidson diagonalization with overlap
     ethr =  1.44E-04,  avg # of iterations = 10.0

     negative rho (up, down):  9.204E-01 9.205E-01

     total cpu time spent up to now is      241.4 secs

     total energy              =   -2943.08980977 Ry
     estimated scf accuracy    <       0.19024083 Ry

     total magnetization       =     0.04 Bohr mag/cell
     absolute magnetization    =     0.11 Bohr mag/cell

     iteration #  9     ecut=   120.00 Ry     beta= 0.70
     Davidson diagonalization with overlap
     ethr =  6.87E-05,  avg # of iterations = 10.5

     negative rho (up, down):  9.077E-01 9.076E-01

     total cpu time spent up to now is      279.3 secs

     total energy              =   -2943.08419077 Ry
     estimated scf accuracy    <       0.05819568 Ry

     total magnetization       =     0.03 Bohr mag/cell
     absolute magnetization    =     0.08 Bohr mag/cell

     iteration # 10     ecut=   120.00 Ry     beta= 0.70
     Davidson diagonalization with overlap
     ethr =  2.10E-05,  avg # of iterations = 11.0

     negative rho (up, down):  9.087E-01 9.087E-01

     total cpu time spent up to now is      302.6 secs

     total energy              =   -2943.08886266 Ry
     estimated scf accuracy    <       0.03669412 Ry

     total magnetization       =     0.02 Bohr mag/cell
     absolute magnetization    =     0.06 Bohr mag/cell

     iteration # 11     ecut=   120.00 Ry     beta= 0.70
     Davidson diagonalization with overlap
     ethr =  1.32E-05,  avg # of iterations =  2.0

     negative rho (up, down):  9.091E-01 9.091E-01

     total cpu time spent up to now is      321.2 secs

     total energy              =   -2943.09332902 Ry
     estimated scf accuracy    <       0.00495974 Ry

     total magnetization       =     0.02 Bohr mag/cell
     absolute magnetization    =     0.05 Bohr mag/cell

     iteration # 12     ecut=   120.00 Ry     beta= 0.70
     Davidson diagonalization with overlap
     ethr =  1.79E-06,  avg # of iterations = 16.0

     negative rho (up, down):  9.091E-01 9.091E-01

     total cpu time spent up to now is      348.3 secs

     total energy              =   -2943.09538026 Ry
     estimated scf accuracy    <       0.00203147 Ry

     total magnetization       =     0.02 Bohr mag/cell
     absolute magnetization    =     0.04 Bohr mag/cell

     iteration # 13     ecut=   120.00 Ry     beta= 0.70
     Davidson diagonalization with overlap
     ethr =  7.33E-07,  avg # of iterations =  3.5

     negative rho (up, down):  9.088E-01 9.088E-01

     Magnetic moment per site  (integrated on atomic sphere of radius R)
     atom   1 (R=0.112)  charge=  9.4662    0.0000
     atom   2 (R=0.112)  charge=  9.0584    0.0001
     atom   3 (R=0.112)  charge=  9.0582    0.0001
     atom   4 (R=0.112)  charge=  9.0620   -0.0000
     atom   5 (R=0.112)  charge=  9.0606   -0.0003
     atom   6 (R=0.110)  charge= 10.3493    0.0002
     atom   7 (R=0.110)  charge= 10.3513    0.0001
     atom   8 (R=0.088)  charge=  8.1318   -0.0000
     atom   9 (R=0.088)  charge=  8.1250   -0.0003
     atom  10 (R=0.088)  charge=  8.1088    0.0002
     atom  11 (R=0.088)  charge=  8.1062    0.0001
     atom  12 (R=0.088)  charge=  8.1107    0.0009
     atom  13 (R=0.088)  charge=  8.1074   -0.0000
     atom  14 (R=0.088)  charge=  8.1068    0.0005
     atom  15 (R=0.088)  charge=  8.1100    0.0004
     atom  16 (R=0.088)  charge=  8.1076    0.0011
     atom  17 (R=0.088)  charge=  8.1097   -0.0001
     atom  18 (R=0.097)  charge=  8.3391   -0.0001
     atom  19 (R=0.097)  charge=  8.0806    0.0010
     atom  20 (R=0.097)  charge=  8.0816    0.0003
     atom  21 (R=0.097)  charge=  8.0782    0.0007
     atom  22 (R=0.097)  charge=  8.0795    0.0001
     atom  23 (R=0.088)  charge=  1.0425   -0.0000

     total cpu time spent up to now is      377.3 secs

     End of self-consistent calculation

 ------ SPIN UP ------------


          k = 0.0000 0.0000 0.0000 ( 61588 PWs)   bands (ev):

   -60.7742 -60.7702 -60.7253 -60.7247 -60.6940 -60.6936 -60.6498 -60.6473
   -60.5000 -60.4773 -54.3851 -54.3383 -54.2606 -54.2141 -52.7054 -46.2603
   -46.2431 -41.6124 -41.5953 -41.5083 -41.4925 -39.7824 -27.7780 -27.7691
   -27.6875 -27.6864 -27.5882 -27.5783 -27.4630 -27.4497 -27.3893 -27.3291
   -27.3072 -27.2596 -27.2558 -27.2383 -27.2213 -27.1686 -27.1593 -27.1449
   -27.1071 -27.0768 -27.0451 -26.9818 -26.9494 -26.9455 -26.9440 -26.9282
   -26.8844 -26.8731 -26.8494 -26.8466 -24.1702 -23.9618 -23.6555 -23.5740
   -23.3152 -23.1832 -23.1579 -23.0613 -22.9304 -22.8598 -22.8460 -22.6269
   -22.4976 -22.4446 -22.3892 -22.3487 -22.2713 -22.2281 -21.7573 -21.7096
   -21.6307 -20.1674 -19.9063 -19.8044 -19.7859 -19.5930 -19.5713 -19.5602
   -19.5515 -19.5378 -19.5127 -19.3390 -19.3320 -18.1309 -17.9255 -17.7928
     1.4359   2.7315   2.9460   3.1449   3.3166   3.4321   3.4869   3.6784
     3.7428   3.7502   3.9255   4.0159   4.2875   4.4651   4.5633   4.6937
     4.7340   4.9442   5.0323   5.0712   5.1197   5.2637   5.2938   5.3137
     5.3944   5.5635   5.5740   5.7254   5.7449   5.7540   5.7755   5.8299
     5.9337   6.0819   6.1453   6.2311   6.2797   6.3270   6.3733   6.3837
     6.4540   6.6498   6.6603   6.6801   6.8575   6.9720   7.0252   7.0642
     7.1097   7.1496   7.2740   7.3212   7.3930   7.4259   7.5023   7.5945
     7.6537   7.6729   7.8991   7.9753   8.0924   8.0975   8.1351   8.1707
     8.2514   8.3349   8.3518   8.3644   8.5077   8.5177   8.6307   8.7704
     8.8052   8.9151   8.9691   9.0673   9.2214   9.2487   9.2895

 ------ SPIN DOWN ----------


          k = 0.0000 0.0000 0.0000 ( 61588 PWs)   bands (ev):

   -60.7742 -60.7695 -60.7253 -60.7241 -60.6940 -60.6928 -60.6490 -60.6472
   -60.5001 -60.4776 -54.3852 -54.3383 -54.2607 -54.2141 -52.7054 -46.2604
   -46.2429 -41.6121 -41.5941 -41.5081 -41.4914 -39.7826 -27.7778 -27.7681
   -27.6874 -27.6854 -27.5881 -27.5776 -27.4628 -27.4486 -27.3894 -27.3288
   -27.3070 -27.2592 -27.2556 -27.2381 -27.2205 -27.1683 -27.1586 -27.1449
   -27.1072 -27.0771 -27.0454 -26.9821 -26.9494 -26.9447 -26.9439 -26.9271
   -26.8842 -26.8720 -26.8494 -26.8455 -24.1703 -23.9620 -23.6555 -23.5740
   -23.3152 -23.1832 -23.1580 -23.0613 -22.9305 -22.8598 -22.8461 -22.6270
   -22.4976 -22.4446 -22.3891 -22.3486 -22.2712 -22.2280 -21.7573 -21.7097
   -21.6306 -20.1662 -19.9062 -19.8030 -19.7849 -19.5923 -19.5703 -19.5595
   -19.5509 -19.5367 -19.5125 -19.3374 -19.3318 -18.1312 -17.9256 -17.7928
     1.4361   2.7316   2.9468   3.1450   3.3166   3.4324   3.4876   3.6786
     3.7430   3.7503   3.9266   4.0165   4.2876   4.4653   4.5636   4.6940
     4.7344   4.9446   5.0329   5.0720   5.1201   5.2643   5.2942   5.3139
     5.3950   5.5638   5.5743   5.7256   5.7448   5.7545   5.7759   5.8304
     5.9338   6.0823   6.1458   6.2317   6.2800   6.3275   6.3738   6.3841
     6.4545   6.6504   6.6607   6.6805   6.8581   6.9727   7.0271   7.0651
     7.1120   7.1506   7.2758   7.3216   7.3942   7.4284   7.5037   7.5955
     7.6547   7.6734   7.8996   7.9759   8.0930   8.0987   8.1355   8.1716
     8.2535   8.3350   8.3529   8.3658   8.5081   8.5183   8.6313   8.7709
     8.8060   8.9167   8.9698   9.0678   9.2217   9.2495   9.2880

     the Fermi energy is     7.2535 ev

!    total energy              =   -2943.09642536 Ry
     estimated scf accuracy    <       0.00045876 Ry
     smearing contrib. (-TS)   =      -0.10082510 Ry
     internal energy E=F+TS    =   -2942.99560025 Ry

     total magnetization       =     0.02 Bohr mag/cell
     absolute magnetization    =     0.03 Bohr mag/cell

     convergence has been achieved in  13 iterations

     negative rho (up, down):  9.088E-01 9.088E-01

     Forces acting on atoms (cartesian axes, Ry/au):

     atom    1 type  1   force =    -0.01258004   -0.02439709    0.00166640
     atom    2 type  1   force =    -0.11277307   -0.01482295   -0.00173503
     atom    3 type  1   force =    -0.11137395    0.01261150    0.00224450
     atom    4 type  1   force =     0.11032483   -0.02380391   -0.00544731
     atom    5 type  1   force =     0.11117596    0.02107453   -0.00057394
     atom    6 type  2   force =    -0.00541903   -0.01898298    0.00705865
     atom    7 type  2   force =    -0.01440153    0.01404434   -0.00946057
     atom    8 type  3   force =    -0.10902386    0.00288774   -0.00307213
     atom    9 type  3   force =     0.14086065    0.00278812    0.02518874
     atom   10 type  3   force =    -0.02430935   -0.03299794   -0.05970531
     atom   11 type  3   force =    -0.01712232   -0.03466216    0.05699254
     atom   12 type  3   force =    -0.01826580    0.03747089   -0.05378234
     atom   13 type  3   force =    -0.01830554    0.02905252    0.06043674
     atom   14 type  3   force =     0.02490644   -0.02946866   -0.05518926
     atom   15 type  3   force =     0.01500390   -0.04166264    0.05339294
     atom   16 type  3   force =     0.01976752    0.03433244   -0.04986534
     atom   17 type  3   force =     0.01462312    0.03661321    0.05679425
     atom   18 type  4   force =    -0.00842612    0.02867169   -0.01171787
     atom   19 type  4   force =    -0.13025958   -0.00485598   -0.11549284
     atom   20 type  4   force =    -0.13334603    0.00479553    0.11122903
     atom   21 type  4   force =     0.12881064   -0.00521761   -0.11460589
     atom   22 type  4   force =     0.16634210    0.00723462    0.09448020
     atom   23 type  5   force =    -0.01620896   -0.00070520    0.01116385
     The non-local contrib.  to forces
     atom    1 type  1   force =     0.00009174   -0.01054413    0.02915609
     atom    2 type  1   force =    -0.24384723   -0.16357586    0.01727452
     atom    3 type  1   force =    -0.23812425    0.15965155   -0.02653590
     atom    4 type  1   force =     0.25837695   -0.16218662    0.03643458
     atom    5 type  1   force =     0.24856367    0.15737715   -0.00925405
     atom    6 type  2   force =     0.00605929   -0.04861672   -0.05944992
     atom    7 type  2   force =    -0.01377309    0.05844593    0.05304875
     atom    8 type  3   force =    -0.26415190    0.00104807    0.00274727
     atom    9 type  3   force =     0.18586906   -0.00234361   -0.03027137
     atom   10 type  3   force =    -0.21592406    0.00534192   -0.20454676
     atom   11 type  3   force =    -0.21737171    0.00793090    0.19469774
     atom   12 type  3   force =    -0.20473991   -0.01973536   -0.17591698
     atom   13 type  3   force =    -0.20734783   -0.00426692    0.20711633
     atom   14 type  3   force =     0.20966173    0.00558505   -0.22029803
     atom   15 type  3   force =     0.23592726    0.01095693    0.17097977
     atom   16 type  3   force =     0.19804260   -0.02096858   -0.18946545
     atom   17 type  3   force =     0.22500255   -0.00787118    0.18055009
     atom   18 type  4   force =     0.00559937    0.05755782   -0.05646321
     atom   19 type  4   force =     0.05871693    0.00928091    0.07669460
     atom   20 type  4   force =     0.04742034   -0.01456750   -0.06077752
     atom   21 type  4   force =    -0.05271206    0.00933215    0.07552718
     atom   22 type  4   force =    -0.05297027   -0.01105437   -0.10109975
     atom   23 type  5   force =    -0.03930105   -0.00001609   -0.00823689
     The ionic contribution  to forces
     atom    1 type  1   force =    -0.44969510   -4.81330317   13.97256656
     atom    2 type  1   force =   -39.69297474   -6.18134449    0.70653563
     atom    3 type  1   force =   -39.66593387    6.16853334   -0.78748937
     atom    4 type  1   force =    39.47777957   -6.37663388    0.59093706
     atom    5 type  1   force =    39.44778100    6.36703742   -0.90239240
     atom    6 type  2   force =    -0.16098649   -3.61354528  -14.03877660
     atom    7 type  2   force =    -0.48086571    3.82644708   13.90459003
     atom    8 type  3   force =   -52.15435781    0.07188417   -0.19472503
     atom    9 type  3   force =    50.83948915    0.07261729   -1.31884376
     atom   10 type  3   force =   -36.05635243   -2.11149785  -23.05275762
     atom   11 type  3   force =   -35.15612569   -0.90573549   22.10836361
     atom   12 type  3   force =   -35.24037884    0.81387098  -22.10575344
     atom   13 type  3   force =   -36.05649349    2.23968417   23.08663735
     atom   14 type  3   force =    35.97957442   -2.13976680  -23.08265808
     atom   15 type  3   force =    34.92670667   -1.09610048   22.23619926
     atom   16 type  3   force =    35.16416690    0.84185650  -22.13498969
     atom   17 type  3   force =    35.82480784    2.43137709   23.21459641
     atom   18 type  4   force =    -0.15028029    4.41819595  -13.99134323
     atom   19 type  4   force =   -35.89884718    0.95673184  -25.51448947
     atom   20 type  4   force =   -35.93518385   -0.95254835   25.58084793
     atom   21 type  4   force =    35.79201630    0.95621612  -25.58022643
     atom   22 type  4   force =    34.99995350   -0.94515151   26.45740551
     atom   23 type  5   force =     4.64620012   -0.02882465    0.84576578
     The local contribution  to forces
     atom    1 type  1   force =     0.43582682    4.79669532  -14.00467210
     atom    2 type  1   force =    39.84903802    6.32869767   -0.72218900
     atom    3 type  1   force =    39.81579382   -6.31462955    0.81770792
     atom    4 type  1   force =   -39.65271500    6.51677738   -0.63313932
     atom    5 type  1   force =   -39.61129523   -6.50371737    0.90873510
     atom    6 type  2   force =     0.15068658    3.63507701   14.12100391
     atom    7 type  2   force =     0.47933658   -3.87142371  -13.97604104
     atom    8 type  3   force =    52.34921858   -0.07046590    0.19421776
     atom    9 type  3   force =   -50.91108060   -0.06829731    1.38745608
     atom   10 type  3   force =    36.26840626    2.05731417   23.22208560
     atom   11 type  3   force =    35.38670691    0.85641575  -22.27370908
     atom   12 type  3   force =    35.44844408   -0.74395495   22.25278396
     atom   13 type  3   force =    36.26864207   -2.19515489  -23.25913808
     atom   14 type  3   force =   -36.18858190    2.09230521   23.27381680
     atom   15 type  3   force =   -35.18160412    1.03799911  -22.37750174
     atom   16 type  3   force =   -35.37016093   -0.77385760   22.30108453
     atom   17 type  3   force =   -36.06331426   -2.37506170  -23.36116571
     atom   18 type  4   force =     0.13541076   -4.43784836   14.04675200
     atom   19 type  4   force =    35.71222482   -0.96899899   25.34163992
     atom   20 type  4   force =    35.76296833    0.96756526  -25.42873657
     atom   21 type  4   force =   -35.61460470   -0.97093432   25.41253370
     atom   22 type  4   force =   -34.79009938    0.95751575  -26.28828482
     atom   23 type  5   force =    -4.62397740    0.02811339   -0.82690892
     The core correction contribution to forces
     atom    1 type  1   force =     0.00248293    0.00134279   -0.00016598
     atom    2 type  1   force =    -0.01255897   -0.00187306   -0.00006985
     atom    3 type  1   force =    -0.01252272    0.00280493   -0.00213888
     atom    4 type  1   force =     0.01432785   -0.00302166    0.00397398
     atom    5 type  1   force =     0.01463121    0.00285878    0.00196131
     atom    6 type  2   force =    -0.00038871    0.00206485    0.00233053
     atom    7 type  2   force =     0.00062193   -0.00286840   -0.00193862
     atom    8 type  3   force =    -0.03281511    0.00015781   -0.00003392
     atom    9 type  3   force =     0.02075788    0.00007444   -0.00673760
     atom   10 type  3   force =    -0.02175001    0.00976222   -0.01598294
     atom   11 type  3   force =    -0.02399402    0.00938369    0.01744759
     atom   12 type  3   force =    -0.02173257   -0.00999997   -0.01536019
     atom   13 type  3   force =    -0.02256097   -0.00888015    0.01713075
     atom   14 type  3   force =     0.02226097    0.00942909   -0.01693053
     atom   15 type  3   force =     0.02620150    0.01045183    0.01355098
     atom   16 type  3   force =     0.02189770   -0.00976428   -0.01636390
     atom   17 type  3   force =     0.02375064   -0.00915305    0.01397923
     atom   18 type  4   force =    -0.00037933   -0.00291823    0.00272541
     atom   19 type  4   force =    -0.00963564    0.00003226   -0.00971432
     atom   20 type  4   force =    -0.00897617    0.00038286    0.00889856
     atom   21 type  4   force =     0.00927974    0.00002161   -0.00981200
     atom   22 type  4   force =     0.00858998    0.00020273    0.01164757
     atom   23 type  5   force =     0.00000000    0.00000000    0.00000000
     The Hubbard contrib.    to forces
     atom    1 type  1   force =     0.00000000    0.00000000    0.00000000
     atom    2 type  1   force =     0.00000000    0.00000000    0.00000000
     atom    3 type  1   force =     0.00000000    0.00000000    0.00000000
     atom    4 type  1   force =     0.00000000    0.00000000    0.00000000
     atom    5 type  1   force =     0.00000000    0.00000000    0.00000000
     atom    6 type  2   force =     0.00000000    0.00000000    0.00000000
     atom    7 type  2   force =     0.00000000    0.00000000    0.00000000
     atom    8 type  3   force =     0.00000000    0.00000000    0.00000000
     atom    9 type  3   force =     0.00000000    0.00000000    0.00000000
     atom   10 type  3   force =     0.00000000    0.00000000    0.00000000
     atom   11 type  3   force =     0.00000000    0.00000000    0.00000000
     atom   12 type  3   force =     0.00000000    0.00000000    0.00000000
     atom   13 type  3   force =     0.00000000    0.00000000    0.00000000
     atom   14 type  3   force =     0.00000000    0.00000000    0.00000000
     atom   15 type  3   force =     0.00000000    0.00000000    0.00000000
     atom   16 type  3   force =     0.00000000    0.00000000    0.00000000
     atom   17 type  3   force =     0.00000000    0.00000000    0.00000000
     atom   18 type  4   force =     0.00000000    0.00000000    0.00000000
     atom   19 type  4   force =     0.00000000    0.00000000    0.00000000
     atom   20 type  4   force =     0.00000000    0.00000000    0.00000000
     atom   21 type  4   force =     0.00000000    0.00000000    0.00000000
     atom   22 type  4   force =     0.00000000    0.00000000    0.00000000
     atom   23 type  5   force =     0.00000000    0.00000000    0.00000000
     The SCF correction term to forces
     atom    1 type  1   force =    -0.00132213    0.00143137    0.00486970
     atom    2 type  1   force =    -0.01246585    0.00329207   -0.00319847
     atom    3 type  1   force =    -0.01062263   -0.00372950    0.00078859
     atom    4 type  1   force =     0.01251976    0.00128014   -0.00356573
     atom    5 type  1   force =     0.01145961   -0.00246218    0.00046397
     atom    6 type  2   force =    -0.00082539    0.00605642   -0.01796141
     atom    7 type  2   force =     0.00024306    0.00346272    0.01096817
     atom    8 type  3   force =    -0.00695333    0.00028286   -0.00519035
     atom    9 type  3   force =     0.00578947    0.00075658   -0.00632674
     atom   10 type  3   force =     0.00127520    0.00610086   -0.00841573
     atom   11 type  3   force =    -0.00637351   -0.00263774    0.01028055
     atom   12 type  3   force =     0.00010573   -0.00269054   -0.00944784
     atom   13 type  3   force =    -0.00058101   -0.00231041    0.00877824
     atom   14 type  3   force =     0.00195552    0.00299805   -0.00903155
     atom   15 type  3   force =     0.00773689   -0.00495075    0.01025253
     atom   16 type  3   force =     0.00578555   -0.00291433   -0.01004296
     atom   17 type  3   force =     0.00434065   -0.00265869    0.00892210
     atom   18 type  4   force =     0.00118768   -0.00629622   -0.01330098
     atom   19 type  4   force =     0.00724580   -0.00188272   -0.00953570
     atom   20 type  4   force =     0.00038961    0.00398254    0.01108450
     atom   21 type  4   force =    -0.00520435    0.00016610   -0.01254047
     atom   22 type  4   force =     0.00083257    0.00574128    0.01489954
     atom   23 type  5   force =     0.00083367    0.00004142    0.00063175

     Total force =     0.501116     Total SCF correction =     0.056579
     SCF correction compared to forces is large: reduce conv_thr to get better values


     Computing stress (Cartesian axis) and pressure


     negative rho (up, down):  9.088E-01 9.088E-01
          total   stress  (Ry/bohr**3)                   (kbar)     P=       82.82
   0.00066208   0.00000036   0.00001317           97.39        0.05        1.94
   0.00000036   0.00066377  -0.00001120            0.05       97.64       -1.65
   0.00001317  -0.00001120   0.00036315            1.94       -1.65       53.42


     Molecular Dynamics Calculation

     Starting temperature  =   300.00 K

     temperature is set once at start

     mass Hf               =   178.49
     mass Nb               =    92.91
     mass Ta               =   180.95
     mass Zr               =    91.22
     mass H                =     2.01
     Time step             =     4.20 a.u.,  0.2032 femto-seconds

     Entering Dynamics:    iteration =     1
                           time      =   0.0002 pico-seconds


ATOMIC_POSITIONS (angstrom)
Hf            2.6700624472        2.8271223293        6.6040271175
Hf            1.2530502959        1.2862837561        5.0585290275
Hf            1.2555465545        7.3898046566        5.0881306829
Hf            4.0870752501        1.2862834985        5.0585289210
Hf            4.0845790561        7.3898048994        5.0881306021
Nb            2.6700625094        2.7969295592        3.5156464569
Nb            2.6700620143        5.8763794504        6.6350602729
Ta            1.2094328218        4.3409279333        5.0711885965
Ta            4.1306936955        4.3409279305        5.0711893963
Ta            1.3073148473        1.3141216556        2.0588402716
Ta            1.3028506808        1.3083901551        8.0946436664
Ta            1.3040719563        7.3758271845        2.0462985089
Ta            1.3077731315        7.3650837706        8.0860667823
Ta            4.0328107859        1.3141217554        2.0588403994
Ta            4.0372748755        1.3083899569        8.0946435646
Ta            4.0360537025        7.3758270957        2.0462986197
Ta            4.0323523806        7.3650839846        8.0860666792
Zr            2.6700623351        5.8662874529        3.5274461238
Zr            1.2438901581        4.3220776919        2.0000563680
Zr            1.2404407785        4.3541235537        8.1498246442
Zr            4.0962353769        4.3220776716        2.0000564178
Zr            4.0996866900        4.3541236906        8.1498237040
H             5.4404469279        4.3399981572        6.3820694631


     kinetic energy (Ekin) =           4.04905897 Ry
     temperature           =       19372.60144887 K 
     Ekin + Etot (const)   =       -2939.04736639 Ry
     Ions kinetic stress =           71.51 (kbar)
                                    107.27           0.00         107.27
                                      0.00           0.00           0.00
                                    107.27           0.00         107.27



     Linear momentum :   -0.0000000000    0.0000000000   -0.0000000000

     File outdir/pwscf.msd.dat deleted, as requested

     Writing config-only to output data dir outdir/pwscf.save/
     NEW-OLD atomic charge density approx. for the potential

     Check: negative core charge=   -0.000002

     negative rho (up, down):  9.088E-01 9.088E-01
     Generating pointlists ...
     new r_m :   0.0818 (alat units)  1.4445 (a.u.) for type    3
     new r_m :   0.0818 (alat units)  1.4445 (a.u.) for type    5

     total cpu time spent up to now is      440.3 secs

     Self-consistent Calculation

     iteration #  1     ecut=   120.00 Ry     beta= 0.70
     Davidson diagonalization with overlap
     ethr =  1.00E-06,  avg # of iterations = 18.0

     negative rho (up, down):  9.087E-01 9.087E-01

     total cpu time spent up to now is      474.9 secs

     total energy              =   -2943.09137143 Ry
     estimated scf accuracy    <       0.02242519 Ry

     total magnetization       =     0.02 Bohr mag/cell
     absolute magnetization    =     0.03 Bohr mag/cell

     iteration #  2     ecut=   120.00 Ry     beta= 0.70
     Davidson diagonalization with overlap
     ethr =  8.10E-06,  avg # of iterations =  2.0

     negative rho (up, down):  9.087E-01 9.087E-01

     total cpu time spent up to now is      493.6 secs

     total energy              =   -2943.09295199 Ry
     estimated scf accuracy    <       0.00438891 Ry

     total magnetization       =     0.02 Bohr mag/cell
     absolute magnetization    =     0.02 Bohr mag/cell

     iteration #  3     ecut=   120.00 Ry     beta= 0.70
     Davidson diagonalization with overlap
     ethr =  1.58E-06,  avg # of iterations =  2.0

     negative rho (up, down):  9.088E-01 9.088E-01

     Magnetic moment per site  (integrated on atomic sphere of radius R)
     atom   1 (R=0.112)  charge=  9.4643    0.0000
     atom   2 (R=0.112)  charge=  9.0570    0.0000
     atom   3 (R=0.112)  charge=  9.0567    0.0001
     atom   4 (R=0.112)  charge=  9.0607    0.0000
     atom   5 (R=0.112)  charge=  9.0601   -0.0001
     atom   6 (R=0.110)  charge= 10.3508    0.0001
     atom   7 (R=0.110)  charge= 10.3508    0.0001
     atom   8 (R=0.082)  charge=  7.4436   -0.0000
     atom   9 (R=0.082)  charge=  7.4417   -0.0000
     atom  10 (R=0.082)  charge=  7.4239    0.0002
     atom  11 (R=0.082)  charge=  7.4184    0.0002
     atom  12 (R=0.082)  charge=  7.4234    0.0006
     atom  13 (R=0.082)  charge=  7.4206    0.0000
     atom  14 (R=0.082)  charge=  7.4240    0.0003
     atom  15 (R=0.082)  charge=  7.4213    0.0004
     atom  16 (R=0.082)  charge=  7.4248    0.0007
     atom  17 (R=0.082)  charge=  7.4236   -0.0000
     atom  18 (R=0.097)  charge=  8.3401   -0.0000
     atom  19 (R=0.097)  charge=  8.0840    0.0007
     atom  20 (R=0.097)  charge=  8.0778    0.0002
     atom  21 (R=0.097)  charge=  8.0830    0.0006
     atom  22 (R=0.097)  charge=  8.0781    0.0001
     atom  23 (R=0.082)  charge=  0.9912    0.0000

     total cpu time spent up to now is      511.7 secs

     End of self-consistent calculation

 ------ SPIN UP ------------


          k = 0.0000 0.0000 0.0000 ( 61588 PWs)   bands (ev):

   -60.7566 -60.7491 -60.7082 -60.7018 -60.6784 -60.6661 -60.6304 -60.6188
   -60.4700 -60.3713 -54.3762 -54.3303 -54.2516 -54.2062 -52.6952 -46.2473
   -46.2272 -41.5938 -41.5896 -41.5055 -41.4881 -39.7761 -27.7571 -27.7503
   -27.6703 -27.6620 -27.5674 -27.5611 -27.4378 -27.4299 -27.3487 -27.3114
   -27.2791 -27.2417 -27.2347 -27.2127 -27.2017 -27.1424 -27.1368 -27.1053
   -27.0402 -27.0360 -26.9755 -26.9349 -26.9258 -26.9198 -26.9149 -26.9113
   -26.8587 -26.8553 -26.8300 -26.8227 -24.1587 -23.9500 -23.6449 -23.5634
   -23.3050 -23.1721 -23.1483 -23.0503 -22.9195 -22.8512 -22.8344 -22.6172
   -22.4842 -22.4313 -22.3771 -22.3351 -22.2590 -22.2141 -21.7453 -21.6968
   -21.6194 -20.1633 -19.8919 -19.8042 -19.7777 -19.5692 -19.5631 -19.5555
   -19.5414 -19.5256 -19.5083 -19.3360 -19.3220 -18.1250 -17.9170 -17.7873
     1.4183   2.5708   2.9567   3.1639   3.3283   3.4509   3.5005   3.6932
     3.7539   3.7697   3.9421   4.0275   4.3023   4.4884   4.5798   4.7097
     4.7477   4.9627   5.0512   5.0910   5.1316   5.2775   5.3083   5.3324
     5.4105   5.5809   5.5905   5.7453   5.7624   5.7720   5.7911   5.8412
     5.9472   6.0973   6.1627   6.2476   6.2932   6.3440   6.3876   6.3946
     6.4720   6.6639   6.6828   6.6959   6.8757   6.9886   7.0391   7.0763
     7.1211   7.1613   7.2879   7.3369   7.4063   7.4356   7.5143   7.5988
     7.6589   7.6812   7.9141   7.9910   8.0959   8.1114   8.1476   8.1825
     8.2658   8.3552   8.3672   8.3791   8.5270   8.5325   8.6430   8.7860
     8.8200   8.9233   8.9812   9.0809   9.2452   9.2723   9.3088

 ------ SPIN DOWN ----------


          k = 0.0000 0.0000 0.0000 ( 61588 PWs)   bands (ev):

   -60.7561 -60.7491 -60.7078 -60.7018 -60.6777 -60.6659 -60.6298 -60.6185
   -60.4700 -60.3714 -54.3762 -54.3303 -54.2516 -54.2061 -52.6951 -46.2472
   -46.2271 -41.5929 -41.5894 -41.5054 -41.4873 -39.7762 -27.7564 -27.7500
   -27.6695 -27.6618 -27.5669 -27.5608 -27.4372 -27.4293 -27.3486 -27.3110
   -27.2790 -27.2412 -27.2347 -27.2123 -27.2013 -27.1420 -27.1364 -27.1053
   -27.0402 -27.0361 -26.9756 -26.9344 -26.9256 -26.9193 -26.9149 -26.9106
   -26.8584 -26.8544 -26.8291 -26.8225 -24.1586 -23.9500 -23.6448 -23.5634
   -23.3049 -23.1720 -23.1482 -23.0502 -22.9195 -22.8512 -22.8344 -22.6171
   -22.4842 -22.4313 -22.3770 -22.3350 -22.2589 -22.2140 -21.7453 -21.6967
   -21.6193 -20.1624 -19.8918 -19.8033 -19.7769 -19.5685 -19.5628 -19.5551
   -19.5412 -19.5250 -19.5081 -19.3349 -19.3218 -18.1250 -17.9170 -17.7872
     1.4185   2.5710   2.9574   3.1641   3.3284   3.4512   3.5012   3.6934
     3.7542   3.7699   3.9429   4.0280   4.3025   4.4887   4.5802   4.7101
     4.7480   4.9632   5.0517   5.0917   5.1319   5.2780   5.3087   5.3328
     5.4112   5.5812   5.5908   5.7457   5.7629   5.7722   5.7915   5.8417
     5.9474   6.0978   6.1633   6.2480   6.2935   6.3444   6.3880   6.3951
     6.4725   6.6644   6.6832   6.6963   6.8764   6.9893   7.0408   7.0773
     7.1231   7.1623   7.2895   7.3374   7.4074   7.4379   7.5157   7.5996
     7.6600   7.6818   7.9146   7.9916   8.0966   8.1126   8.1481   8.1834
     8.2677   8.3554   8.3682   8.3804   8.5275   8.5332   8.6437   8.7865
     8.8206   8.9248   8.9818   9.0814   9.2456   9.2732   9.3105

     the Fermi energy is     7.2661 ev

!    total energy              =   -2943.09289174 Ry
     estimated scf accuracy    <       0.00074162 Ry
     smearing contrib. (-TS)   =      -0.10153897 Ry
     internal energy E=F+TS    =   -2942.99135277 Ry

     total magnetization       =     0.02 Bohr mag/cell
     absolute magnetization    =     0.02 Bohr mag/cell

     convergence has been achieved in   3 iterations

     negative rho (up, down):  9.088E-01 9.088E-01

     Forces acting on atoms (cartesian axes, Ry/au):

     atom    1 type  1   force =    -0.01340473   -0.02184530    0.00281759
     atom    2 type  1   force =    -0.11965833   -0.01245067   -0.00776341
     atom    3 type  1   force =    -0.11719576    0.01010694   -0.00136141
     atom    4 type  1   force =     0.11670964   -0.02334341   -0.01303087
     atom    5 type  1   force =     0.11754876    0.01912434   -0.00549898
     atom    6 type  2   force =    -0.00734930   -0.02004507    0.00566008
     atom    7 type  2   force =    -0.01507678    0.01431681   -0.00650261
     atom    8 type  3   force =    -0.11354942    0.00276630   -0.00485598
     atom    9 type  3   force =     0.12673820    0.00380260    0.00454054
     atom   10 type  3   force =    -0.02329882   -0.02980182   -0.06005020
     atom   11 type  3   force =    -0.02074752   -0.03404955    0.06218885
     atom   12 type  3   force =    -0.01831082    0.03525001   -0.05463651
     atom   13 type  3   force =    -0.01957121    0.02624318    0.06520401
     atom   14 type  3   force =     0.02510943   -0.02828807   -0.05580444
     atom   15 type  3   force =     0.01865501   -0.04112266    0.05889493
     atom   16 type  3   force =     0.02118399    0.03239750   -0.05093573
     atom   17 type  3   force =     0.01663698    0.03309296    0.06217669
     atom   18 type  4   force =    -0.00957693    0.02918859   -0.01667929
     atom   19 type  4   force =    -0.12740149   -0.00522248   -0.11605175
     atom   20 type  4   force =    -0.13314678    0.00575485    0.11666817
     atom   21 type  4   force =     0.12677084   -0.00453487   -0.11968564
     atom   22 type  4   force =     0.15980156    0.00970664    0.10051010
     atom   23 type  5   force =     0.00913349   -0.00104683    0.03419586
     The non-local contrib.  to forces
     atom    1 type  1   force =    -0.00029970   -0.01063108    0.03049853
     atom    2 type  1   force =    -0.24724077   -0.16121116    0.01391212
     atom    3 type  1   force =    -0.24128093    0.15737956   -0.02852854
     atom    4 type  1   force =     0.26189142   -0.16071321    0.03206951
     atom    5 type  1   force =     0.25208211    0.15501066   -0.01274192
     atom    6 type  2   force =     0.00694165   -0.05039563   -0.06189404
     atom    7 type  2   force =    -0.01268106    0.06002114    0.05364147
     atom    8 type  3   force =    -0.26342190    0.00090517   -0.00072265
     atom    9 type  3   force =     0.16646427   -0.00144117   -0.05128233
     atom   10 type  3   force =    -0.21221192    0.00678530   -0.20628236
     atom   11 type  3   force =    -0.21786558    0.00927745    0.19797326
     atom   12 type  3   force =    -0.20265403   -0.02084868   -0.17845231
     atom   13 type  3   force =    -0.20556948   -0.00755853    0.21012714
     atom   14 type  3   force =     0.20753316    0.00619161   -0.22230102
     atom   15 type  3   force =     0.23619447    0.01004208    0.17486877
     atom   16 type  3   force =     0.19699620   -0.02257855   -0.19188249
     atom   17 type  3   force =     0.22366550   -0.00939408    0.18488216
     atom   18 type  4   force =     0.00655034    0.05760632   -0.06314044
     atom   19 type  4   force =     0.06104910    0.00830543    0.07386206
     atom   20 type  4   force =     0.04842703   -0.01329550   -0.05741162
     atom   21 type  4   force =    -0.05469919    0.00974764    0.07096848
     atom   22 type  4   force =    -0.05491257   -0.00891420   -0.09086204
     atom   23 type  5   force =    -0.04546202   -0.00012061   -0.01749228
     The ionic contribution  to forces
     atom    1 type  1   force =    -0.48115105   -4.83613403   13.99578011
     atom    2 type  1   force =   -39.70411455   -6.18444682    0.70932723
     atom    3 type  1   force =   -39.67715416    6.17165811   -0.78458959
     atom    4 type  1   force =    39.47729184   -6.40037770    0.59187052
     atom    5 type  1   force =    39.44730714    6.39102121   -0.90108678
     atom    6 type  2   force =    -0.17782774   -3.62412351  -14.05586335
     atom    7 type  2   force =    -0.51365190    3.85072372   13.92987110
     atom    8 type  3   force =   -52.18356704    0.07188521   -0.19173743
     atom    9 type  3   force =    50.62267281    0.07283804   -1.53444604
     atom   10 type  3   force =   -36.06099449   -2.11245230  -23.05861724
     atom   11 type  3   force =   -35.16502828   -0.90553668   22.11266405
     atom   12 type  3   force =   -35.24500453    0.81481161  -22.11161378
     atom   13 type  3   force =   -36.06541994    2.23951413   23.09099467
     atom   14 type  3   force =    35.98054748   -2.14320717  -23.09454628
     atom   15 type  3   force =    34.93947891   -1.09434375   22.24769647
     atom   16 type  3   force =    35.16518666    0.84523064  -22.14683383
     atom   17 type  3   force =    35.83758720    2.42970727   23.22624355
     atom   18 type  4   force =    -0.16607033    4.42800175  -14.00723729
     atom   19 type  4   force =   -35.90539653    0.95670865  -25.52245814
     atom   20 type  4   force =   -35.95277507   -0.95254756   25.58753763
     atom   21 type  4   force =    35.79211927    0.95614117  -25.60394165
     atom   22 type  4   force =    35.07806397   -0.94532477   26.49635295
     atom   23 type  5   force =     4.95790033   -0.02974722    1.02463312
     The local contribution  to forces
     atom    1 type  1   force =     0.46584908    4.82665792  -14.03123175
     atom    2 type  1   force =    39.83682906    6.33836216   -0.74929940
     atom    3 type  1   force =    39.80838631   -6.32488870    0.79892369
     atom    4 type  1   force =   -39.62874349    6.53909009   -0.66173760
     atom    5 type  1   force =   -39.58761534   -6.53065694    0.88903504
     atom    6 type  2   force =     0.16167084    3.65048314   14.09094255
     atom    7 type  2   force =     0.51501225   -3.89110129  -13.99058472
     atom    8 type  3   force =    52.35882270   -0.06986601    0.16265983
     atom    9 type  3   force =   -50.65659495   -0.06541318    1.59457980
     atom   10 type  3   force =    36.27350049    2.07783727   23.21531006
     atom   11 type  3   force =    35.37363871    0.85613161  -22.25237881
     atom   12 type  3   force =    35.45505720   -0.75615333   22.24379383
     atom   13 type  3   force =    36.26846012   -2.20586352  -23.23950862
     atom   14 type  3   force =   -36.17856480    2.10166683   23.26993253
     atom   15 type  3   force =   -35.16864787    1.03693721  -22.35934142
     atom   16 type  3   force =   -35.35263561   -0.78590783   22.29562624
     atom   17 type  3   force =   -36.05544601   -2.39373218  -23.34565772
     atom   18 type  4   force =     0.15294723   -4.45230834   14.02480178
     atom   19 type  4   force =    35.73548348   -0.97252225   25.33616510
     atom   20 type  4   force =    35.78334770    0.97491182  -25.40441036
     atom   21 type  4   force =   -35.62300837   -0.96796716   25.40782927
     atom   22 type  4   force =   -34.88428619    0.97168756  -26.28845637
     atom   23 type  5   force =    -4.90482331    0.02918568   -0.97824411
     The core correction contribution to forces
     atom    1 type  1   force =     0.00239865    0.00143585   -0.00007802
     atom    2 type  1   force =    -0.01251570   -0.00169898    0.00001785
     atom    3 type  1   force =    -0.01252518    0.00263234   -0.00197461
     atom    4 type  1   force =     0.01431060   -0.00278215    0.00373137
     atom    5 type  1   force =     0.01460998    0.00257664    0.00178402
     atom    6 type  2   force =    -0.00042172    0.00216875    0.00246485
     atom    7 type  2   force =     0.00056966   -0.00290932   -0.00193049
     atom    8 type  3   force =    -0.03220265    0.00011316    0.00011059
     atom    9 type  3   force =     0.01840386    0.00023809   -0.00883516
     atom   10 type  3   force =    -0.02153311    0.00973542   -0.01587725
     atom   11 type  3   force =    -0.02397198    0.00950089    0.01757077
     atom   12 type  3   force =    -0.02171333   -0.01003895   -0.01525806
     atom   13 type  3   force =    -0.02248708   -0.00899976    0.01720758
     atom   14 type  3   force =     0.02203629    0.00922525   -0.01694574
     atom   15 type  3   force =     0.02609074    0.01046626    0.01358934
     atom   16 type  3   force =     0.02170202   -0.00966172   -0.01641611
     atom   17 type  3   force =     0.02352218   -0.00900037    0.01412792
     atom   18 type  4   force =    -0.00040094   -0.00296752    0.00288505
     atom   19 type  4   force =    -0.00964643    0.00008296   -0.00969993
     atom   20 type  4   force =    -0.00900920    0.00036294    0.00889217
     atom   21 type  4   force =     0.00932011    0.00003032   -0.00980660
     atom   22 type  4   force =     0.00888169    0.00017141    0.01118927
     atom   23 type  5   force =     0.00000000    0.00000000    0.00000000
     The Hubbard contrib.    to forces
     atom    1 type  1   force =     0.00000000    0.00000000    0.00000000
     atom    2 type  1   force =     0.00000000    0.00000000    0.00000000
     atom    3 type  1   force =     0.00000000    0.00000000    0.00000000
     atom    4 type  1   force =     0.00000000    0.00000000    0.00000000
     atom    5 type  1   force =     0.00000000    0.00000000    0.00000000
     atom    6 type  2   force =     0.00000000    0.00000000    0.00000000
     atom    7 type  2   force =     0.00000000    0.00000000    0.00000000
     atom    8 type  3   force =     0.00000000    0.00000000    0.00000000
     atom    9 type  3   force =     0.00000000    0.00000000    0.00000000
     atom   10 type  3   force =     0.00000000    0.00000000    0.00000000
     atom   11 type  3   force =     0.00000000    0.00000000    0.00000000
     atom   12 type  3   force =     0.00000000    0.00000000    0.00000000
     atom   13 type  3   force =     0.00000000    0.00000000    0.00000000
     atom   14 type  3   force =     0.00000000    0.00000000    0.00000000
     atom   15 type  3   force =     0.00000000    0.00000000    0.00000000
     atom   16 type  3   force =     0.00000000    0.00000000    0.00000000
     atom   17 type  3   force =     0.00000000    0.00000000    0.00000000
     atom   18 type  4   force =     0.00000000    0.00000000    0.00000000
     atom   19 type  4   force =     0.00000000    0.00000000    0.00000000
     atom   20 type  4   force =     0.00000000    0.00000000    0.00000000
     atom   21 type  4   force =     0.00000000    0.00000000    0.00000000
     atom   22 type  4   force =     0.00000000    0.00000000    0.00000000
     atom   23 type  5   force =     0.00000000    0.00000000    0.00000000
     The SCF correction term to forces
     atom    1 type  1   force =     0.00010488   -0.00315433    0.00673806
     atom    2 type  1   force =     0.00769022   -0.00343625    0.01716814
     atom    3 type  1   force =     0.00568478    0.00334526    0.01369698
     atom    4 type  1   force =    -0.00773415    0.00145920    0.01992468
     atom    5 type  1   force =    -0.00852856    0.00119239    0.01640000
     atom    6 type  2   force =     0.00259425    0.00184182    0.02889942
     atom    7 type  2   force =    -0.00401915   -0.00239781    0.00138938
     atom    8 type  3   force =     0.00712605   -0.00025160    0.02372303
     atom    9 type  3   force =    -0.02390122   -0.00239955    0.00341362
     atom   10 type  3   force =    -0.00175321   -0.01168787    0.00430594
     atom   11 type  3   force =     0.01278619   -0.00340319   -0.01475107
     atom   12 type  3   force =    -0.00368955    0.00749900    0.00578315
     atom   13 type  3   force =     0.00575174    0.00917049   -0.01472741
     atom   14 type  3   force =    -0.00613613   -0.00214497    0.00694542
     atom   15 type  3   force =    -0.01415466   -0.00420484   -0.01902887
     atom   16 type  3   force =    -0.00975870    0.00533460    0.00745982
     atom   17 type  3   force =    -0.01238530    0.01553196   -0.01852987
     atom   18 type  4   force =    -0.00229666   -0.00112398    0.02490094
     atom   19 type  4   force =    -0.00858454    0.00222236    0.00496850
     atom   20 type  4   force =    -0.00283067   -0.00365722   -0.01905029
     atom   21 type  4   force =     0.00334560   -0.00246721    0.01415421
     atom   22 type  4   force =     0.01236123   -0.00789373   -0.02882436
     atom   23 type  5   force =     0.00182507   -0.00034505    0.00418848

     Total force =     0.507010     Total SCF correction =     0.092199
     SCF correction compared to forces is large: reduce conv_thr to get better values


     Computing stress (Cartesian axis) and pressure


     negative rho (up, down):  9.088E-01 9.088E-01
          total   stress  (Ry/bohr**3)                   (kbar)     P=       84.50
   0.00067070  -0.00000080   0.00002023           98.66       -0.12        2.98
  -0.00000080   0.00068380  -0.00001267           -0.12      100.59       -1.86
   0.00002023  -0.00001267   0.00036871            2.98       -1.86       54.24


     Entering Dynamics:    iteration =     2
                           time      =   0.0004 pico-seconds


ATOMIC_POSITIONS (angstrom)
Hf            2.6701241683        2.8271203758        6.6040901782
Hf            1.2531030457        1.2862826165        5.0585913834
Hf            1.2555994857        7.3898055984        5.0881935203
Hf            4.0871479632        1.2862814761        5.0585908681
Hf            4.0846518417        7.3898066014        5.0881931212
Nb            2.6701242517        2.7969263032        3.5157103210
Nb            2.6701224097        5.8763818027        6.6351218857
Ta            1.2094861606        4.3409281716        5.0712510858
Ta            4.1307677064        4.3409282246        5.0712532172
Ta            1.3073756917        1.3141190349        2.0588980342
Ta            1.3029118730        1.3083872469        8.0947116503
Ta            1.3041332541        7.3758302401        2.0463567456
Ta            1.3078343568        7.3650860781        8.0861350343
Ta            4.0328757631        1.3141193204        2.0588985301
Ta            4.0373392072        1.3083864504        8.0947112602
Ta            4.0361183120        7.3758299010        2.0463571767
Ta            4.0324165872        7.3650868938        8.0861346568
Zr            2.6701236381        5.8662923393        3.5275064445
Zr            1.2439313939        4.3220768330        2.0000997070
Zr            1.2404811960        4.3541244690        8.1499068374
Zr            4.0963196912        4.3220768696        2.0000993986
Zr            4.0997768194        4.3541251865        8.1499031430
H             5.3360998812        4.3399910407        6.2779194627


     kinetic energy (Ekin) =           4.04530481 Ry
     temperature           =       19354.63979972 K 
     Ekin + Etot (const)   =       -2939.04758693 Ry
     Ions kinetic stress =           71.44 (kbar)
                                    107.30           0.00         107.17
                                      0.00           0.00           0.00
                                    107.17           0.00         107.03



     Linear momentum :   -0.0000000000    0.0000000000   -0.0000000000

     Writing config-only to output data dir outdir/pwscf.save/
     NEW-OLD atomic charge density approx. for the potential

     Check: negative core charge=   -0.000002

     negative rho (up, down):  9.088E-01 9.088E-01
     Generating pointlists ...
     new r_m :   0.0753 (alat units)  1.3295 (a.u.) for type    3
     new r_m :   0.0753 (alat units)  1.3295 (a.u.) for type    5

     total cpu time spent up to now is      562.9 secs

     Self-consistent Calculation

     iteration #  1     ecut=   120.00 Ry     beta= 0.70
     Davidson diagonalization with overlap
     c_bands:  2 eigenvalues not converged
     c_bands:  2 eigenvalues not converged
     ethr =  1.00E-06,  avg # of iterations = 20.0

     negative rho (up, down):  9.092E-01 9.092E-01

     total cpu time spent up to now is      619.8 secs

     total energy              =   -2943.05991750 Ry
     estimated scf accuracy    <       0.16958563 Ry

     total magnetization       =     0.02 Bohr mag/cell
     absolute magnetization    =     0.02 Bohr mag/cell

     iteration #  2     ecut=   120.00 Ry     beta= 0.70
     Davidson diagonalization with overlap
     ethr =  6.12E-05,  avg # of iterations =  2.0

     negative rho (up, down):  9.090E-01 9.090E-01

     total cpu time spent up to now is      637.5 secs

     total energy              =   -2943.07082814 Ry
     estimated scf accuracy    <       0.09825938 Ry

     total magnetization       =     0.02 Bohr mag/cell
     absolute magnetization    =     0.02 Bohr mag/cell

     iteration #  3     ecut=   120.00 Ry     beta= 0.70
     Davidson diagonalization with overlap
     ethr =  3.55E-05,  avg # of iterations =  1.0

     negative rho (up, down):  9.089E-01 9.089E-01

     total cpu time spent up to now is      653.7 secs

     total energy              =   -2943.07632352 Ry
     estimated scf accuracy    <       0.00316978 Ry

     total magnetization       =     0.02 Bohr mag/cell
     absolute magnetization    =     0.02 Bohr mag/cell

     iteration #  4     ecut=   120.00 Ry     beta= 0.70
     Davidson diagonalization with overlap
     ethr =  1.14E-06,  avg # of iterations = 15.5

     negative rho (up, down):  9.088E-01 9.088E-01

     total cpu time spent up to now is      675.2 secs

     total energy              =   -2943.07647623 Ry
     estimated scf accuracy    <       0.00106008 Ry

     total magnetization       =     0.02 Bohr mag/cell
     absolute magnetization    =     0.02 Bohr mag/cell

     iteration #  5     ecut=   120.00 Ry     beta= 0.70
     Davidson diagonalization with overlap
     ethr =  3.83E-07,  avg # of iterations =  2.0

     negative rho (up, down):  9.087E-01 9.087E-01

     Magnetic moment per site  (integrated on atomic sphere of radius R)
     atom   1 (R=0.112)  charge=  9.4645   -0.0000
     atom   2 (R=0.112)  charge=  9.0572    0.0000
     atom   3 (R=0.112)  charge=  9.0571    0.0001
     atom   4 (R=0.112)  charge=  9.0615    0.0000
     atom   5 (R=0.112)  charge=  9.0607    0.0000
     atom   6 (R=0.110)  charge= 10.3496   -0.0000
     atom   7 (R=0.110)  charge= 10.3506    0.0001
     atom   8 (R=0.075)  charge=  6.6236   -0.0000
     atom   9 (R=0.075)  charge=  6.6343   -0.0000
     atom  10 (R=0.075)  charge=  6.6062    0.0002
     atom  11 (R=0.075)  charge=  6.6058    0.0001
     atom  12 (R=0.075)  charge=  6.6055    0.0003
     atom  13 (R=0.075)  charge=  6.6070    0.0001
     atom  14 (R=0.075)  charge=  6.6050    0.0002
     atom  15 (R=0.075)  charge=  6.6064    0.0003
     atom  16 (R=0.075)  charge=  6.6054    0.0004
     atom  17 (R=0.075)  charge=  6.6072    0.0001
     atom  18 (R=0.097)  charge=  8.3389   -0.0000
     atom  19 (R=0.097)  charge=  8.0823    0.0005
     atom  20 (R=0.097)  charge=  8.0820    0.0001
     atom  21 (R=0.097)  charge=  8.0814    0.0004
     atom  22 (R=0.097)  charge=  8.0779    0.0001
     atom  23 (R=0.075)  charge=  0.9449    0.0000

     total cpu time spent up to now is      705.6 secs

     End of self-consistent calculation

 ------ SPIN UP ------------


          k = 0.0000 0.0000 0.0000 ( 61588 PWs)   bands (ev):

   -60.7669 -60.7621 -60.7193 -60.7138 -60.6854 -60.6834 -60.6386 -60.6364
   -60.4768 -60.3125 -54.3727 -54.3269 -54.2480 -54.2026 -52.6828 -46.2476
   -46.2282 -41.6103 -41.5967 -41.5265 -41.4892 -39.7799 -27.7680 -27.7603
   -27.6784 -27.6762 -27.5795 -27.5705 -27.4521 -27.4384 -27.3506 -27.3209
   -27.2830 -27.2522 -27.2465 -27.2262 -27.2108 -27.1566 -27.1459 -27.1142
   -27.0457 -27.0079 -26.9523 -26.9411 -26.9358 -26.9308 -26.9163 -26.8970
   -26.8762 -26.8615 -26.8398 -26.8344 -24.1563 -23.9475 -23.6443 -23.5635
   -23.3026 -23.1706 -23.1468 -23.0488 -22.9169 -22.8504 -22.8329 -22.6163
   -22.4864 -22.4346 -22.3779 -22.3354 -22.2578 -22.2135 -21.7392 -21.6887
   -21.6112 -20.1646 -19.9144 -19.8084 -19.7772 -19.5842 -19.5784 -19.5682
   -19.5589 -19.5288 -19.5195 -19.3446 -19.3374 -18.1330 -17.9193 -17.7898
     1.3612   2.3851   2.9467   3.1569   3.3149   3.4449   3.4920   3.6866
     3.7451   3.7655   3.9348   4.0193   4.2929   4.4876   4.5682   4.6991
     4.7399   4.9589   5.0490   5.0948   5.1269   5.2705   5.3029   5.3306
     5.4055   5.5756   5.5860   5.7385   5.7588   5.7673   5.7841   5.8313
     5.9407   6.0910   6.1552   6.2415   6.2869   6.3360   6.3821   6.3856
     6.4673   6.6540   6.6820   6.6898   6.8748   6.9884   7.0346   7.0741
     7.1194   7.1586   7.2796   7.3312   7.3995   7.4311   7.5112   7.5812
     7.6400   7.6731   7.9086   7.9903   8.0856   8.1046   8.1418   8.1761
     8.2595   8.3500   8.3606   8.3722   8.5227   8.5322   8.6346   8.7783
     8.8199   8.9195   8.9792   9.0749   9.2371   9.2700   9.2958

 ------ SPIN DOWN ----------


          k = 0.0000 0.0000 0.0000 ( 61588 PWs)   bands (ev):

   -60.7668 -60.7617 -60.7191 -60.7135 -60.6851 -60.6829 -60.6384 -60.6359
   -60.4768 -60.3125 -54.3727 -54.3269 -54.2480 -54.2026 -52.6828 -46.2476
   -46.2282 -41.6102 -41.5962 -41.5264 -41.4886 -39.7799 -27.7677 -27.7597
   -27.6781 -27.6755 -27.5793 -27.5700 -27.4518 -27.4377 -27.3505 -27.3206
   -27.2828 -27.2520 -27.2461 -27.2259 -27.2103 -27.1564 -27.1453 -27.1142
   -27.0456 -27.0079 -26.9521 -26.9407 -26.9354 -26.9305 -26.9157 -26.8970
   -26.8758 -26.8608 -26.8395 -26.8338 -24.1562 -23.9474 -23.6442 -23.5635
   -23.3025 -23.1706 -23.1468 -23.0487 -22.9169 -22.8504 -22.8329 -22.6163
   -22.4863 -22.4345 -22.3778 -22.3353 -22.2578 -22.2134 -21.7392 -21.6887
   -21.6112 -20.1640 -19.9144 -19.8078 -19.7767 -19.5841 -19.5781 -19.5678
   -19.5588 -19.5285 -19.5192 -19.3445 -19.3366 -18.1331 -17.9193 -17.7898
     1.3614   2.3853   2.9473   3.1571   3.3150   3.4451   3.4925   3.6868
     3.7454   3.7657   3.9355   4.0197   4.2931   4.4878   4.5686   4.6994
     4.7402   4.9593   5.0495   5.0954   5.1272   5.2709   5.3032   5.3310
     5.4061   5.5758   5.5862   5.7388   5.7590   5.7675   5.7844   5.8317
     5.9409   6.0915   6.1557   6.2418   6.2872   6.3364   6.3824   6.3860
     6.4678   6.6544   6.6824   6.6902   6.8754   6.9890   7.0359   7.0751
     7.1209   7.1593   7.2808   7.3316   7.4003   7.4329   7.5124   7.5819
     7.6409   7.6737   7.9090   7.9908   8.0862   8.1055   8.1423   8.1769
     8.2610   8.3503   8.3614   8.3731   8.5232   8.5328   8.6351   8.7787
     8.8204   8.9208   8.9798   9.0753   9.2380   9.2705   9.2961

     the Fermi energy is     7.2608 ev

!    total energy              =   -2943.07638484 Ry
     estimated scf accuracy    <       0.00019317 Ry
     smearing contrib. (-TS)   =      -0.10274226 Ry
     internal energy E=F+TS    =   -2942.97364259 Ry

     total magnetization       =     0.02 Bohr mag/cell
     absolute magnetization    =     0.02 Bohr mag/cell

     convergence has been achieved in   5 iterations

     negative rho (up, down):  9.087E-01 9.087E-01

     Forces acting on atoms (cartesian axes, Ry/au):

     atom    1 type  1   force =    -0.01384200   -0.02404576    0.00333558
     atom    2 type  1   force =    -0.11579361   -0.01364541    0.00099545
     atom    3 type  1   force =    -0.11393757    0.01128771    0.00596575
     atom    4 type  1   force =     0.11306837   -0.02256990   -0.00329639
     atom    5 type  1   force =     0.11349760    0.01891766    0.00295733
     atom    6 type  2   force =    -0.00676056   -0.02017190    0.00471233
     atom    7 type  2   force =    -0.01459532    0.01447157   -0.00973325
     atom    8 type  3   force =    -0.11394562    0.00289785   -0.00029141
     atom    9 type  3   force =     0.08081590    0.00483376   -0.03999608
     atom   10 type  3   force =    -0.02279829   -0.03091890   -0.06040050
     atom   11 type  3   force =    -0.01791897   -0.03518543    0.05640924
     atom   12 type  3   force =    -0.01780983    0.03581451   -0.05509551
     atom   13 type  3   force =    -0.01800591    0.02864199    0.05918005
     atom   14 type  3   force =     0.02420082   -0.02822476   -0.05587592
     atom   15 type  3   force =     0.01604863   -0.04331806    0.05195350
     atom   16 type  3   force =     0.01999865    0.03309385   -0.05099779
     atom   17 type  3   force =     0.01492337    0.03757006    0.05577441
     atom   18 type  4   force =    -0.00853395    0.02811261   -0.01141217
     atom   19 type  4   force =    -0.12822193   -0.00468616   -0.11531771
     atom   20 type  4   force =    -0.13346474    0.00540919    0.10978929
     atom   21 type  4   force =     0.12783102   -0.00516755   -0.11833296
     atom   22 type  4   force =     0.15886432    0.00819277    0.09251703
     atom   23 type  5   force =     0.05637961   -0.00130971    0.07715974
     The non-local contrib.  to forces
     atom    1 type  1   force =    -0.00110775   -0.01086083    0.03175633
     atom    2 type  1   force =    -0.24545583   -0.16221434    0.01949159
     atom    3 type  1   force =    -0.23999073    0.15837929   -0.02343338
     atom    4 type  1   force =     0.25938074   -0.16097863    0.03678585
     atom    5 type  1   force =     0.24915240    0.15488705   -0.00895554
     atom    6 type  2   force =     0.00753975   -0.05201971   -0.06191128
     atom    7 type  2   force =    -0.01243919    0.06006563    0.05413631
     atom    8 type  3   force =    -0.25914394    0.00114058    0.00244447
     atom    9 type  3   force =     0.13327880   -0.00063796   -0.07698757
     atom   10 type  3   force =    -0.21391630    0.00597925   -0.20641486
     atom   11 type  3   force =    -0.21502275    0.00964897    0.19381206
     atom   12 type  3   force =    -0.20414700   -0.02043834   -0.17890269
     atom   13 type  3   force =    -0.20403578   -0.00731113    0.20557501
     atom   14 type  3   force =     0.20881183    0.00679613   -0.22229095
     atom   15 type  3   force =     0.23006351    0.00601032    0.17293454
     atom   16 type  3   force =     0.19800384   -0.02266761   -0.19179734
     atom   17 type  3   force =     0.21868642   -0.00443828    0.18281760
     atom   18 type  4   force =     0.00599078    0.05772228   -0.05909799
     atom   19 type  4   force =     0.05971199    0.00890049    0.07529772
     atom   20 type  4   force =     0.04762580   -0.01347027   -0.06268422
     atom   21 type  4   force =    -0.05542539    0.00951824    0.07426655
     atom   22 type  4   force =    -0.05365702   -0.00988643   -0.09351935
     atom   23 type  5   force =    -0.05290728   -0.00019778   -0.02882954
     The ionic contribution  to forces
     atom    1 type  1   force =    -0.51130095   -4.86011225   14.02244870
     atom    2 type  1   force =   -39.71544484   -6.18788575    0.71233434
     atom    3 type  1   force =   -39.68855786    6.17513040   -0.78147230
     atom    4 type  1   force =    39.47834286   -6.42497585    0.59451168
     atom    5 type  1   force =    39.44840323    6.41583311   -0.89803365
     atom    6 type  2   force =    -0.19597398   -3.63608051  -14.07423922
     atom    7 type  2   force =    -0.54489295    3.87611549   13.95875681
     atom    8 type  3   force =   -52.21457959    0.07188400   -0.18873285
     atom    9 type  3   force =    50.34823599    0.07315399   -1.80769852
     atom   10 type  3   force =   -36.06564217   -2.11349711  -23.06437076
     atom   11 type  3   force =   -35.17303307   -0.90537993   22.11667438
     atom   12 type  3   force =   -35.24965587    0.81585678  -22.11738068
     atom   13 type  3   force =   -36.07344159    2.23940012   23.09507080
     atom   14 type  3   force =    35.98158006   -2.14698087  -23.10649861
     atom   15 type  3   force =    34.95293794   -1.09091193   22.25749162
     atom   16 type  3   force =    35.16628773    0.84894691  -22.15875179
     atom   17 type  3   force =    35.85106663    2.42635078   23.23618496
     atom   18 type  4   force =    -0.18309919    4.43906207  -14.02432152
     atom   19 type  4   force =   -35.91202291    0.95666544  -25.53025579
     atom   20 type  4   force =   -35.96839560   -0.95254383   25.59395453
     atom   21 type  4   force =    35.79201162    0.95603810  -25.62871656
     atom   22 type  4   force =    35.16237362   -0.94559257   26.51820837
     atom   23 type  5   force =     5.31480090   -0.03047658    1.27483605
     The local contribution  to forces
     atom    1 type  1   force =     0.49397336    4.84313629  -14.04942569
     atom    2 type  1   force =    39.85858794    6.33781372   -0.71822155
     atom    3 type  1   force =    39.82884145   -6.32514923    0.82549983
     atom    4 type  1   force =   -39.64186362    6.56585217   -0.62595867
     atom    5 type  1   force =   -39.60224851   -6.55480718    0.92063118
     atom    6 type  2   force =     0.18260113    3.66932866   14.15636048
     atom    7 type  2   force =     0.53973513   -3.91555723  -14.01964592
     atom    8 type  3   force =    52.39328799   -0.06942451    0.19812684
     atom    9 type  3   force =   -50.42195229   -0.06745107    1.86499375
     atom   10 type  3   force =    36.27942093    2.06875599   23.22928022
     atom   11 type  3   force =    35.39447138    0.84679930  -22.27898701
     atom   12 type  3   force =    35.45878978   -0.75194028   22.25956866
     atom   13 type  3   force =    36.28312757   -2.19064518  -23.26664548
     atom   14 type  3   force =   -36.19129461    2.10404969   23.29345257
     atom   15 type  3   force =   -35.19587777    1.02395850  -22.39963169
     atom   16 type  3   force =   -35.36941046   -0.78523110   22.32030320
     atom   17 type  3   force =   -36.08213330   -2.36872374  -23.38602199
     atom   18 type  4   force =     0.16952274   -4.46911574   14.08587172
     atom   19 type  4   force =    35.73454689   -0.96989092   25.35526239
     atom   20 type  4   force =    35.79209107    0.97139350  -25.43904825
     atom   21 type  4   force =   -35.62116145   -0.97043648   25.45414740
     atom   22 type  4   force =   -34.96430009    0.96387122  -26.34907426
     atom   23 type  5   force =    -5.20679894    0.02926183   -1.16879678
     The core correction contribution to forces
     atom    1 type  1   force =     0.00231902    0.00147489   -0.00017579
     atom    2 type  1   force =    -0.01239977   -0.00181515    0.00011387
     atom    3 type  1   force =    -0.01244719    0.00273580   -0.00184277
     atom    4 type  1   force =     0.01410413   -0.00286730    0.00333924
     atom    5 type  1   force =     0.01435368    0.00254021    0.00144570
     atom    6 type  2   force =    -0.00042211    0.00234458    0.00254121
     atom    7 type  2   force =     0.00056488   -0.00294780   -0.00195579
     atom    8 type  3   force =    -0.03165132    0.00012938    0.00011035
     atom    9 type  3   force =     0.01581487    0.00048090   -0.01137679
     atom   10 type  3   force =    -0.02162983    0.00989674   -0.01583372
     atom   11 type  3   force =    -0.02394134    0.00957471    0.01751151
     atom   12 type  3   force =    -0.02171658   -0.01009977   -0.01527302
     atom   13 type  3   force =    -0.02249921   -0.00905123    0.01712437
     atom   14 type  3   force =     0.02222183    0.00908214   -0.01711918
     atom   15 type  3   force =     0.02572928    0.01038570    0.01377614
     atom   16 type  3   force =     0.02190280   -0.00956853   -0.01655933
     atom   17 type  3   force =     0.02326270   -0.00897432    0.01434605
     atom   18 type  4   force =    -0.00033117   -0.00310712    0.00300944
     atom   19 type  4   force =    -0.00962605    0.00005786   -0.00971596
     atom   20 type  4   force =    -0.00905970    0.00035772    0.00899336
     atom   21 type  4   force =     0.00937096    0.00002199   -0.00983898
     atom   22 type  4   force =     0.00920241    0.00017776    0.01084657
     atom   23 type  5   force =     0.00000000    0.00000000    0.00000000
     The Hubbard contrib.    to forces
     atom    1 type  1   force =     0.00000000    0.00000000    0.00000000
     atom    2 type  1   force =     0.00000000    0.00000000    0.00000000
     atom    3 type  1   force =     0.00000000    0.00000000    0.00000000
     atom    4 type  1   force =     0.00000000    0.00000000    0.00000000
     atom    5 type  1   force =     0.00000000    0.00000000    0.00000000
     atom    6 type  2   force =     0.00000000    0.00000000    0.00000000
     atom    7 type  2   force =     0.00000000    0.00000000    0.00000000
     atom    8 type  3   force =     0.00000000    0.00000000    0.00000000
     atom    9 type  3   force =     0.00000000    0.00000000    0.00000000
     atom   10 type  3   force =     0.00000000    0.00000000    0.00000000
     atom   11 type  3   force =     0.00000000    0.00000000    0.00000000
     atom   12 type  3   force =     0.00000000    0.00000000    0.00000000
     atom   13 type  3   force =     0.00000000    0.00000000    0.00000000
     atom   14 type  3   force =     0.00000000    0.00000000    0.00000000
     atom   15 type  3   force =     0.00000000    0.00000000    0.00000000
     atom   16 type  3   force =     0.00000000    0.00000000    0.00000000
     atom   17 type  3   force =     0.00000000    0.00000000    0.00000000
     atom   18 type  4   force =     0.00000000    0.00000000    0.00000000
     atom   19 type  4   force =     0.00000000    0.00000000    0.00000000
     atom   20 type  4   force =     0.00000000    0.00000000    0.00000000
     atom   21 type  4   force =     0.00000000    0.00000000    0.00000000
     atom   22 type  4   force =     0.00000000    0.00000000    0.00000000
     atom   23 type  5   force =     0.00000000    0.00000000    0.00000000
     The SCF correction term to forces
     atom    1 type  1   force =     0.00204729    0.00226043   -0.00040671
     atom    2 type  1   force =    -0.00130815    0.00040039   -0.01186153
     atom    3 type  1   force =    -0.00201028    0.00013575   -0.01192438
     atom    4 type  1   force =     0.00287723    0.00034401   -0.01111324
     atom    5 type  1   force =     0.00360978    0.00040876   -0.01126910
     atom    6 type  2   force =    -0.00073239   -0.00380064   -0.01717759
     atom    7 type  2   force =     0.00220977   -0.00326023   -0.00016340
     atom    8 type  3   force =    -0.00208578   -0.00088729   -0.01137897
     atom    9 type  3   force =     0.00521149   -0.00076780   -0.00806570
     atom   10 type  3   force =    -0.00125796   -0.00210947   -0.00220013
     atom   11 type  3   force =    -0.00062023    0.00411582    0.00825954
     atom   12 type  3   force =    -0.00130720    0.00238042   -0.00224652
     atom   13 type  3   force =    -0.00138393   -0.00380630    0.00891660
     atom   14 type  3   force =     0.00265468   -0.00122755   -0.00255850
     atom   15 type  3   force =     0.00296863    0.00718365    0.00824415
     atom   16 type  3   force =     0.00298770    0.00155847   -0.00333128
     atom   17 type  3   force =     0.00381388   -0.00670008    0.00930904
     atom   18 type  4   force =    -0.00084414    0.00349541   -0.01601257
     atom   19 type  4   force =    -0.00105888   -0.00047474   -0.00504481
     atom   20 type  4   force =     0.00404665   -0.00038364    0.00943512
     atom   21 type  4   force =     0.00280825   -0.00036512   -0.00733012
     atom   22 type  4   force =     0.00501837   -0.00043292    0.00691695
     atom   23 type  5   force =     0.00105790    0.00004712    0.00081127

     Total force =     0.497551     Total SCF correction =     0.046675


     Computing stress (Cartesian axis) and pressure


     negative rho (up, down):  9.087E-01 9.087E-01
          total   stress  (Ry/bohr**3)                   (kbar)     P=       85.65
   0.00069289   0.00000021   0.00003789          101.93        0.03        5.57
   0.00000021   0.00066848  -0.00001151            0.03       98.34       -1.69
   0.00003789  -0.00001151   0.00038544            5.57       -1.69       56.70


     Entering Dynamics:    iteration =     3
                           time      =   0.0006 pico-seconds


ATOMIC_POSITIONS (angstrom)
Hf            2.6701850951        2.8271170427        6.6041534302
[...]
     4.7427   4.9760   5.0513   5.1109   5.1317   5.2738   5.3080   5.3389
     5.4131   5.5782   5.6005   5.7432   5.7597   5.7685   5.7910   5.8382
     5.9430   6.0880   6.1568   6.2452   6.2956   6.3406   6.3847   6.3906
     6.4784   6.6590   6.6894   6.6969   6.8781   6.9948   7.0369   7.0771
     7.1234   7.1619   7.2777   7.3318   7.4075   7.4337   7.5091   7.5737
     7.6429   7.6745   7.9140   8.0038   8.0834   8.1121   8.1489   8.1742
     8.2630   8.3600   8.3687   8.3777   8.5297   8.5387   8.6377   8.7809
     8.8186   8.9210   8.9787   9.0785   9.2322   9.2789   9.2961

     the Fermi energy is     7.2624 ev

!    total energy              =   -2943.05283850 Ry
     estimated scf accuracy    <       0.00054147 Ry
     smearing contrib. (-TS)   =      -0.10334511 Ry
     internal energy E=F+TS    =   -2942.94949339 Ry

     total magnetization       =     0.00 Bohr mag/cell
     absolute magnetization    =     0.00 Bohr mag/cell

     convergence has been achieved in   4 iterations

     negative rho (up, down):  9.086E-01 9.086E-01

     Forces acting on atoms (cartesian axes, Ry/au):

     atom    1 type  1   force =    -0.01280832   -0.01844063    0.00002830
     atom    2 type  1   force =    -0.11537032   -0.01215138   -0.01015220
     atom    3 type  1   force =    -0.11362848    0.00941337   -0.00516903
     atom    4 type  1   force =     0.11216222   -0.02011714   -0.01397857
     atom    5 type  1   force =     0.11238366    0.01646686   -0.00748335
     atom    6 type  2   force =    -0.01089149   -0.02326253    0.00221103
     atom    7 type  2   force =    -0.01408194    0.01362511   -0.00685645
     atom    8 type  3   force =    -0.11581523    0.00225666   -0.00265008
     atom    9 type  3   force =     0.04039952    0.00589315   -0.08672038
     atom   10 type  3   force =    -0.02275683   -0.03173466   -0.05684200
     atom   11 type  3   force =    -0.01779047   -0.03242206    0.06262482
     atom   12 type  3   force =    -0.01775993    0.03613159   -0.05184043
     atom   13 type  3   force =    -0.01797869    0.02510763    0.06540801
     atom   14 type  3   force =     0.02418758   -0.02906717   -0.05258226
     atom   15 type  3   force =     0.01603962   -0.04105007    0.05811102
     atom   16 type  3   force =     0.01981745    0.03342794   -0.04837631
     atom   17 type  3   force =     0.01510189    0.03445318    0.06185946
     atom   18 type  4   force =    -0.01237152    0.03071699   -0.01593590
     atom   19 type  4   force =    -0.12768534   -0.00469715   -0.11221476
     atom   20 type  4   force =    -0.12901090    0.00515271    0.11389723
     atom   21 type  4   force =     0.12722933   -0.00532465   -0.11841973
     atom   22 type  4   force =     0.15392445    0.00839500    0.09264877
     atom   23 type  5   force =     0.10670375   -0.00277275    0.13243281
     The non-local contrib.  to forces
     atom    1 type  1   force =     0.00157539   -0.00825215    0.02664059
     atom    2 type  1   force =    -0.24577316   -0.16144546    0.01258267
     atom    3 type  1   force =    -0.24038604    0.15769764   -0.03004797
     atom    4 type  1   force =     0.25981476   -0.15965461    0.03052865
     atom    5 type  1   force =     0.24896717    0.15394060   -0.01602799
     atom    6 type  2   force =     0.00868672   -0.05235702   -0.06037358
     atom    7 type  2   force =    -0.00983988    0.06340751    0.05431379
     atom    8 type  3   force =    -0.25627525    0.00058462   -0.00192929
     atom    9 type  3   force =     0.12357189    0.00234948   -0.08882900
     atom   10 type  3   force =    -0.21247534    0.00429239   -0.20525712
     atom   11 type  3   force =    -0.21603591    0.01198457    0.19704764
     atom   12 type  3   force =    -0.20312069   -0.01865197   -0.17789429
     atom   13 type  3   force =    -0.20508593   -0.00986400    0.20887965
     atom   14 type  3   force =     0.20824132    0.00551187   -0.22102227
     atom   15 type  3   force =     0.22936902    0.00620016    0.17652646
     atom   16 type  3   force =     0.19719985   -0.02161424   -0.19033581
     atom   17 type  3   force =     0.21769211   -0.00446327    0.18640562
     atom   18 type  4   force =     0.00617010    0.05715833   -0.06179271
     atom   19 type  4   force =     0.05769610    0.00916551    0.07375746
     atom   20 type  4   force =     0.04888231   -0.01338937   -0.06194443
     atom   21 type  4   force =    -0.05637541    0.00928552    0.07462591
     atom   22 type  4   force =    -0.05175216   -0.00980432   -0.09096744
     atom   23 type  5   force =    -0.05835444    0.00026303   -0.03866322
     The ionic contribution  to forces
     atom    1 type  1   force =    -0.46187372   -4.83768454   14.11824856
     atom    2 type  1   force =   -39.72144647   -6.19185801    0.73734524
     atom    3 type  1   force =   -39.69471051    6.17988985   -0.75558466
     atom    4 type  1   force =    39.51047954   -6.42611405    0.65171409
     atom    5 type  1   force =    39.48391415    6.41305592   -0.83688802
     atom    6 type  2   force =    -0.30692328   -3.78569323  -14.18857199
     atom    7 type  2   force =    -0.48797457    3.85075527   14.05761495
     atom    8 type  3   force =   -52.35355727    0.07122584   -0.12223056
     atom    9 type  3   force =    50.08885538    0.10527312   -1.86582983
     atom   10 type  3   force =   -36.05957731   -2.10650200  -23.05103943
     atom   11 type  3   force =   -35.15251335   -0.88252299   22.08458046
     atom   12 type  3   force =   -35.24648961    0.81004867  -22.10569190
     atom   13 type  3   force =   -36.05082955    2.21669494   23.06302180
     atom   14 type  3   force =    35.97556177   -2.15411527  -23.10224535
     atom   15 type  3   force =    34.95776044   -1.04676029   22.20974344
     atom   16 type  3   force =    35.16349478    0.85680297  -22.15591363
     atom   17 type  3   force =    35.85558125    2.37882326   23.18563444
     atom   18 type  4   force =    -0.28887381    4.57755842  -14.13129691
     atom   19 type  4   force =   -35.90730691    0.95423108  -25.49843113
     atom   20 type  4   force =   -35.92039869   -0.95092712   25.51918757
     atom   21 type  4   force =    35.78451529    0.95296124  -25.68656040
     atom   22 type  4   force =    35.21841387   -0.93967866   26.35607154
     atom   23 type  5   force =     5.61389861   -0.04546439    1.51712173
     The local contribution  to forces
     atom    1 type  1   force =     0.44495613    4.83621412  -14.16245359
     atom    2 type  1   force =    39.86581518    6.34636517   -0.78809529
     atom    3 type  1   force =    39.83555499   -6.33444553    0.75446439
     atom    4 type  1   force =   -39.67495945    6.57154725   -0.72664011
     atom    5 type  1   force =   -39.63754070   -6.55581600    0.81777954
     atom    6 type  2   force =     0.28692149    3.81748395   14.23655753
     atom    7 type  2   force =     0.48313238   -3.90925246  -14.13759395
     atom    8 type  3   force =    52.53145552   -0.06948271    0.09429086
     atom    9 type  3   force =   -50.19887369   -0.10261970    1.84629125
     atom   10 type  3   force =    36.26975038    2.05495241   23.21864832
     atom   11 type  3   force =    35.37624731    0.83653293  -22.22639886
     atom   12 type  3   force =    35.45268997   -0.74138458   22.24997689
     atom   13 type  3   force =    36.26276463   -2.18171561  -23.21371986
     atom   14 type  3   force =   -36.18442688    2.10807437   23.29335646
     atom   15 type  3   force =   -35.19968678    0.99716414  -22.33342441
     atom   16 type  3   force =   -35.36671997   -0.79013120   22.31894521
     atom   17 type  3   force =   -36.08447519   -2.34072646  -23.31621675
     atom   18 type  4   force =     0.26840476   -4.60418729   14.16131543
     atom   19 type  4   force =    35.73018301   -0.96698399   25.32625367
     atom   20 type  4   force =    35.75571321    0.96981904  -25.34711386
     atom   21 type  4   force =   -35.61230667   -0.96727751   25.51005974
     atom   22 type  4   force =   -35.01840756    0.95890288  -26.18576340
     atom   23 type  5   force =    -5.44731308    0.04258738   -1.34692144
     The core correction contribution to forces
     atom    1 type  1   force =     0.00218634    0.00189794   -0.00051229
     atom    2 type  1   force =    -0.01238554   -0.00181028    0.00020907
     atom    3 type  1   force =    -0.01242281    0.00267955   -0.00171797
     atom    4 type  1   force =     0.01408719   -0.00265910    0.00304967
     atom    5 type  1   force =     0.01419452    0.00230403    0.00117260
     atom    6 type  2   force =    -0.00049504    0.00241897    0.00247093
     atom    7 type  2   force =     0.00050304   -0.00312278   -0.00199406
     atom    8 type  3   force =    -0.03113292    0.00009049    0.00016829
     atom    9 type  3   force =     0.01476718    0.00079059   -0.01209643
     atom   10 type  3   force =    -0.02150188    0.00992117   -0.01581907
     atom   11 type  3   force =    -0.02401973    0.00963479    0.01761680
     atom   12 type  3   force =    -0.02158147   -0.01000606   -0.01524961
     atom   13 type  3   force =    -0.02260285   -0.00908420    0.01724109
     atom   14 type  3   force =     0.02202421    0.00888421   -0.01711014
     atom   15 type  3   force =     0.02573716    0.01025321    0.01409552
     atom   16 type  3   force =     0.02172161   -0.00940797   -0.01647949
     atom   17 type  3   force =     0.02320557   -0.00880223    0.01466578
     atom   18 type  4   force =    -0.00033819   -0.00313000    0.00301718
     atom   19 type  4   force =    -0.00952994    0.00004084   -0.00965316
     atom   20 type  4   force =    -0.00906107    0.00035445    0.00902771
     atom   21 type  4   force =     0.00944722    0.00002366   -0.00993436
     atom   22 type  4   force =     0.00930421    0.00017066    0.01051275
     atom   23 type  5   force =     0.00000000    0.00000000    0.00000000
     The Hubbard contrib.    to forces
     atom    1 type  1   force =     0.00000000    0.00000000    0.00000000
     atom    2 type  1   force =     0.00000000    0.00000000    0.00000000
     atom    3 type  1   force =     0.00000000    0.00000000    0.00000000
     atom    4 type  1   force =     0.00000000    0.00000000    0.00000000
     atom    5 type  1   force =     0.00000000    0.00000000    0.00000000
     atom    6 type  2   force =     0.00000000    0.00000000    0.00000000
     atom    7 type  2   force =     0.00000000    0.00000000    0.00000000
     atom    8 type  3   force =     0.00000000    0.00000000    0.00000000
     atom    9 type  3   force =     0.00000000    0.00000000    0.00000000
     atom   10 type  3   force =     0.00000000    0.00000000    0.00000000
     atom   11 type  3   force =     0.00000000    0.00000000    0.00000000
     atom   12 type  3   force =     0.00000000    0.00000000    0.00000000
     atom   13 type  3   force =     0.00000000    0.00000000    0.00000000
     atom   14 type  3   force =     0.00000000    0.00000000    0.00000000
     atom   15 type  3   force =     0.00000000    0.00000000    0.00000000
     atom   16 type  3   force =     0.00000000    0.00000000    0.00000000
     atom   17 type  3   force =     0.00000000    0.00000000    0.00000000
     atom   18 type  4   force =     0.00000000    0.00000000    0.00000000
     atom   19 type  4   force =     0.00000000    0.00000000    0.00000000
     atom   20 type  4   force =     0.00000000    0.00000000    0.00000000
     atom   21 type  4   force =     0.00000000    0.00000000    0.00000000
     atom   22 type  4   force =     0.00000000    0.00000000    0.00000000
     atom   23 type  5   force =     0.00000000    0.00000000    0.00000000
     The SCF correction term to forces
     atom    1 type  1   force =     0.00038607   -0.01052671    0.01654188
     atom    2 type  1   force =    -0.00154180   -0.00331351    0.02624294
     atom    3 type  1   force =    -0.00162558    0.00368115    0.02615401
     atom    4 type  1   force =     0.00277872   -0.00314734    0.02580596
     atom    5 type  1   force =     0.00288705    0.00307159    0.02491736
     atom    6 type  2   force =     0.00095714   -0.00502591    0.01056499
     atom    7 type  2   force =     0.00013562    0.01192685    0.01923964
     atom    8 type  3   force =    -0.00626679   -0.00007229    0.02548746
     atom    9 type  3   force =     0.01211729    0.00018895    0.03218046
     atom   10 type  3   force =     0.00108586    0.00569066   -0.00493787
     atom   11 type  3   force =    -0.00143025   -0.00796206   -0.01178439
     atom   12 type  3   force =     0.00078039   -0.00378517   -0.00454469
     atom   13 type  3   force =    -0.00218645    0.00916579   -0.01157783
     atom   14 type  3   force =     0.00282570    0.00266694   -0.00712413
     atom   15 type  3   force =     0.00289831   -0.00781801   -0.01039316
     atom   16 type  3   force =     0.00415971   -0.00213232   -0.00615576
     atom   17 type  3   force =     0.00313669    0.00971117   -0.01019279
     atom   18 type  4   force =     0.00230415    0.00340682    0.01125795
     atom   19 type  4   force =     0.00131093   -0.00106129   -0.00570476
     atom   20 type  4   force =    -0.00410813   -0.00061499   -0.00682293
     atom   21 type  4   force =     0.00198743   -0.00022827   -0.00817379
     atom   22 type  4   force =    -0.00359538   -0.00110627    0.00123215
     atom   23 type  5   force =    -0.00148881   -0.00006947   -0.00066743

     Total force =     0.516293     Total SCF correction =     0.083633
     SCF correction compared to forces is large: reduce conv_thr to get better values


     Computing stress (Cartesian axis) and pressure


     negative rho (up, down):  9.086E-01 9.086E-01
          total   stress  (Ry/bohr**3)                   (kbar)     P=       87.95
   0.00070933   0.00000044   0.00005595          104.35        0.06        8.23
   0.00000044   0.00067578  -0.00001203            0.06       99.41       -1.77
   0.00005595  -0.00001203   0.00040850            8.23       -1.77       60.09


     Entering Dynamics:    iteration =    20
                           time      =   0.0041 pico-seconds


ATOMIC_POSITIONS (angstrom)
Hf            2.6711934748        2.8269233041        6.6052490127
Hf            1.2529002852        1.2861229799        5.0596758806
Hf            1.2554047461        7.3899428861        5.0893480921
Hf            4.0895822614        1.2860742540        5.0596523063
Hf            4.0870905523        7.3899725680        5.0893234202
Nb            2.6712386789        2.7965960171        3.5169928915
Nb            2.6711231662        5.8765772670        6.6360240038
Ta            1.2092280891        4.3409605272        5.0724269037
Ta            4.1126768118        4.3411198966        5.0512489660
Ta            1.3082442934        1.3137444051        2.0593914604
Ta            1.3038144862        1.3079872178        8.0964952966
Ta            1.3050427409        7.3762541673        2.0468934671
Ta            1.3087473864        7.3654081958        8.0879443178
Ta            4.0342633155        1.3138196615        2.0594055572
Ta            4.0386772397        1.3079637907        8.0964449252
Ta            4.0374701073        7.3761861868        2.0469076550
Ta            4.0337384263        7.3654459094        8.0879165987
Zr            2.6712532944        5.8667496090        3.5284631380
Zr            1.2422215593        4.3219733047        1.9986930288
Zr            1.2386761978        4.3542396422        8.1535359640
Zr            4.1003186366        4.3219576901        1.9984609946
Zr            4.1041647996        4.3542895368        8.1533371169
H             5.3158613204        4.3291007960        6.3218392628


     kinetic energy (Ekin) =           4.00622091 Ry
     temperature           =       19167.64405595 K 
     Ekin + Etot (const)   =       -2939.04661759 Ry
     Ions kinetic stress =           70.75 (kbar)
                                     98.51          -1.27         105.66
                                     -1.27           0.03          -1.36
                                    105.66          -1.36         113.72



     Linear momentum :   -0.0000000000    0.0000000000   -0.0000000000

     The maximum number of steps has been reached.

     End of molecular dynamics calculation

     diffusion coefficients :
     atom     1   D =       0.00000001 cm^2/s
     atom     2   D =       0.00000001 cm^2/s
     atom     3   D =       0.00000001 cm^2/s
     atom     4   D =       0.00000003 cm^2/s
     atom     5   D =       0.00000003 cm^2/s
     atom     6   D =       0.00000001 cm^2/s
     atom     7   D =       0.00000001 cm^2/s
     atom     8   D =       0.00000001 cm^2/s
     atom     9   D =       0.00000294 cm^2/s
     atom    10   D =       0.00000001 cm^2/s
     atom    11   D =       0.00000002 cm^2/s
     atom    12   D =       0.00000001 cm^2/s
     atom    13   D =       0.00000002 cm^2/s
     atom    14   D =       0.00000001 cm^2/s
     atom    15   D =       0.00000002 cm^2/s
     atom    16   D =       0.00000001 cm^2/s
     atom    17   D =       0.00000002 cm^2/s
     atom    18   D =       0.00000001 cm^2/s
     atom    19   D =       0.00000002 cm^2/s
     atom    20   D =       0.00000007 cm^2/s
     atom    21   D =       0.00000008 cm^2/s
     atom    22   D =       0.00000014 cm^2/s
     atom    23   D =       0.00032658 cm^2/s

     < D > =       0.00001435 cm^2/s

     Writing all to output data dir outdir/pwscf.save/

     init_run     :     11.57s CPU     13.13s WALL (       1 calls)
     electrons    :   2443.87s CPU   2931.47s WALL (      20 calls)
     update_pot   :     18.89s CPU     20.97s WALL (      19 calls)
     forces       :    247.42s CPU    300.28s WALL (      20 calls)
     stress       :    405.82s CPU    455.67s WALL (      20 calls)

     Called by init_run:
     wfcinit      :      8.83s CPU     10.08s WALL (       1 calls)
     potinit      :      0.49s CPU      0.51s WALL (       1 calls)
     hinit0       :      0.98s CPU      1.08s WALL (       1 calls)

     Called by electrons:
     c_bands      :   1957.04s CPU   2356.35s WALL (      99 calls)
     sum_band     :    320.61s CPU    380.75s WALL (      99 calls)
     v_of_rho     :     10.60s CPU     12.84s WALL (     119 calls)
     newd         :    183.44s CPU    214.66s WALL (     119 calls)
     mix_rho      :      0.99s CPU      1.31s WALL (      99 calls)

     Called by c_bands:
     init_us_2    :      3.96s CPU      4.05s WALL (     478 calls)
     init_us_2:cp :      3.95s CPU      4.05s WALL (     478 calls)
     regterg      :   1943.06s CPU   2339.40s WALL (     198 calls)

     Called by *egterg:
     rdiaghg      :     68.01s CPU     87.68s WALL (    1661 calls)
     h_psi        :   1018.50s CPU   1137.91s WALL (    1701 calls)
     s_psi        :    333.65s CPU    334.32s WALL (    1701 calls)
     g_psi        :      0.70s CPU      0.75s WALL (    1501 calls)

     Called by h_psi:
     h_psi:calbec :    488.41s CPU    567.81s WALL (    1701 calls)
     vloc_psi     :     99.44s CPU    137.87s WALL (    1701 calls)
     add_vuspsi   :    429.28s CPU    430.81s WALL (    1701 calls)

     General routines
     calbec       :    849.81s CPU   1021.75s WALL (    2099 calls)
     fft          :      9.69s CPU     29.33s WALL (    2484 calls)
     ffts         :      0.21s CPU      0.31s WALL (      99 calls)
     fftw         :    107.53s CPU    150.12s WALL (  103722 calls)

     Parallel routines

     PWSCF        :  52m36.49s CPU      1h 2m WALL


   This run was terminated on:  21:56:11  16Jun2023            

=------------------------------------------------------------------------------=
   JOB DONE.
=------------------------------------------------------------------------------=
