
     Program PWSCF v.7.2 starts on 13Jun2023 at 16:11:29 

     This program is part of the open-source Quantum ESPRESSO suite
     for quantum simulation of materials; please cite
         "P. Giannozzi et al., J. Phys.:Condens. Matter 21 395502 (2009);
         "P. Giannozzi et al., J. Phys.:Condens. Matter 29 465901 (2017);
         "P. Giannozzi et al., J. Chem. Phys. 152 154105 (2020);
          URL http://www.quantum-espresso.org", 
     in publications or presentations arising from this work. More details at
     http://www.quantum-espresso.org/quote

     Parallel version (MPI), running on    42 processors

     MPI processes distributed on     1 nodes
     179470 MiB available memory on the printing compute node when the environment starts

     Reading input from md_data/md_Hf5Nb2Ta10Zr5H_20steps_100eV_incident60_polar60.in
Warning: card &CELL ignored
Warning: card / ignored

     Current dimensions of program PWSCF are:
     Max number of different atomic species (ntypx) = 10
     Max number of k-points (npk) =  40000
     Max angular momentum in pseudopotentials (lmaxx) =  4

     File outdir/pwscf.md deleted, as requested

     gamma-point specific algorithms are used

     R & G space division:  proc/nbgrp/npool/nimage =      42
     Subspace diagonalization in iterative solution of the eigenvalue problem:
     one sub-group per band group will be used
     custom distributed-memory algorithm (size of sub-group:  2*  2 procs)


     Parallelization info
     --------------------
     sticks:   dense  smooth     PW     G-vecs:    dense   smooth      PW
     Min         262     262     63                23470    23470    2920
     Max         265     265     66                23484    23484    2942
     Sum       11057   11057   2753               986005   986005  123175

     Using Slab Decomposition



     bravais-lattice index     =            0
     lattice parameter (alat)  =      17.6500  a.u.
     unit-cell volume          =    5552.8853 (a.u.)^3
     number of atoms/cell      =           23
     number of atomic types    =            5
     number of electrons       =       277.00
     number of Kohn-Sham states=          167
     kinetic-energy cutoff     =     120.0000  Ry
     charge density cutoff     =     480.0000  Ry
     scf convergence threshold =      1.0E-03
     mixing beta               =       0.7000
     number of iterations used =            8  TF        mixing
     energy convergence thresh.=      0.0E+00
     force convergence thresh. =      0.0E+00
     Exchange-correlation=  SLA  PW   PBX  PBC
                           (   1   4   3   4   0   0   0)
     nstep                     =           20


     celldm(1)=  17.650041  celldm(2)=   0.000000  celldm(3)=   0.000000
     celldm(4)=   0.000000  celldm(5)=   0.000000  celldm(6)=   0.000000

     crystal axes: (cart. coord. in units of alat)
               a(1) = (   1.000000   0.000000   0.000000 )  
               a(2) = (   0.000000   0.929336   0.000000 )  
               a(3) = (   0.000000   0.000000   1.086698 )  

     reciprocal axes: (cart. coord. in units 2 pi/alat)
               b(1) = (  1.000000  0.000000  0.000000 )  
               b(2) = (  0.000000  1.076037  0.000000 )  
               b(3) = (  0.000000  0.000000  0.920219 )  


     PseudoPot. # 1 for Hf read from file:
     q-e/pseudo/hf_pbe_v1.uspp.F.UPF
     MD5 check sum: 8ee9378dfe14276e333edf04c5e4aa26
     Pseudo is Ultrasoft + core correction, Zval = 12.0
     Generated by new atomic code, or converted to UPF format
     Using radial grid of  921 points,  8 beta functions with: 
                l(1) =   0
                l(2) =   0
                l(3) =   0
                l(4) =   1
                l(5) =   1
                l(6) =   2
                l(7) =   2
                l(8) =   3
     Q(r) pseudized with  6 coefficients,  rinner =    1.200   1.200   1.200
                                                       1.200   1.200   1.200
                                                       1.200

     PseudoPot. # 2 for Nb read from file:
     q-e/pseudo/nb_pbe_v1.uspp.F.UPF
     MD5 check sum: 573aab8a2fa660278ed4a62cd769473f
     Pseudo is Ultrasoft + core correction, Zval = 13.0
     Generated by new atomic code, or converted to UPF format
     Using radial grid of  887 points,  6 beta functions with: 
                l(1) =   0
                l(2) =   0
                l(3) =   1
                l(4) =   1
                l(5) =   2
                l(6) =   2
     Q(r) pseudized with  6 coefficients,  rinner =    1.000   1.000   1.000
                                                       1.000   1.000

     PseudoPot. # 3 for Ta read from file:
     q-e/pseudo/ta_pbe_v1.uspp.F.UPF
     MD5 check sum: f8bbe9446314a3b8ea5d9f3e3836c939
     Pseudo is Ultrasoft + core correction, Zval = 13.0
     Generated by new atomic code, or converted to UPF format
     Using radial grid of  921 points,  7 beta functions with: 
                l(1) =   0
                l(2) =   0
                l(3) =   1
                l(4) =   1
                l(5) =   2
                l(6) =   2
                l(7) =   3
     Q(r) pseudized with  6 coefficients,  rinner =    1.300   1.300   1.300
                                                       1.300   1.300   1.300
                                                       1.300

     PseudoPot. # 4 for Zr read from file:
     q-e/pseudo/zr_pbe_v1.uspp.F.UPF
     MD5 check sum: 5db81b1e868ab7776c4564c113de050b
     Pseudo is Ultrasoft + core correction, Zval = 12.0
     Generated by new atomic code, or converted to UPF format
     Using radial grid of  887 points,  6 beta functions with: 
                l(1) =   0
                l(2) =   0
                l(3) =   1
                l(4) =   1
                l(5) =   2
                l(6) =   2
     Q(r) pseudized with  6 coefficients,  rinner =    1.200   1.200   1.200
                                                       1.200   1.200

     PseudoPot. # 5 for H  read from file:
     q-e/pseudo/h_pbe_v1.4.uspp.F.UPF
     MD5 check sum: 761ae9a214b05c3daf00ab9f6b793d6f
     Pseudo is Ultrasoft, Zval =  1.0
     Generated by new atomic code, or converted to UPF format
     Using radial grid of  615 points,  2 beta functions with: 
                l(1) =   0
                l(2) =   0
     Q(r) pseudized with  8 coefficients,  rinner =    0.700

     atomic species   valence    mass     pseudopotential
        Hf            12.00   178.49000     Hf( 1.00)
        Nb            13.00    92.90637     Nb( 1.00)
        Ta            13.00   180.94788     Ta( 1.00)
        Zr            12.00    91.22400     Zr( 1.00)
        H              1.00     2.01400     H ( 1.00)

     Starting magnetic structure 
     atomic species   magnetization
        Hf           0.000
        Nb           0.000
        Ta           0.000
        Zr           0.000
        H            0.000

     No symmetry found



   Cartesian axes

     site n.     atom                  positions (alat units)
         1           Hf  tau(   1) = (   0.2858672   0.3026898   0.7070626  )
         2           Hf  tau(   2) = (   0.1341532   0.1377178   0.5415917  )
         3           Hf  tau(   3) = (   0.1344204   0.7911996   0.5447610  )
         4           Hf  tau(   4) = (   0.4375813   0.1377178   0.5415917  )
         5           Hf  tau(   5) = (   0.4373140   0.7911996   0.5447610  )
         6           Nb  tau(   6) = (   0.2858672   0.2994572   0.3764008  )
         7           Nb  tau(   7) = (   0.2858672   0.6291626   0.7103852  )
         8           Ta  tau(   8) = (   0.1294832   0.4647675   0.5429471  )
         9           Ta  tau(   9) = (   0.4422513   0.4647675   0.5429471  )
        10           Ta  tau(  10) = (   0.1399628   0.1406984   0.2204260  )
        11           Ta  tau(  11) = (   0.1394848   0.1400847   0.8666573  )
        12           Ta  tau(  12) = (   0.1396156   0.7897030   0.2190832  )
        13           Ta  tau(  13) = (   0.1400119   0.7885528   0.8657390  )
        14           Ta  tau(  14) = (   0.4317717   0.1406984   0.2204260  )
        15           Ta  tau(  15) = (   0.4322496   0.1400847   0.8666573  )
        16           Ta  tau(  16) = (   0.4321189   0.7897030   0.2190832  )
        17           Ta  tau(  17) = (   0.4317226   0.7885528   0.8657390  )
        18           Zr  tau(  18) = (   0.2858672   0.6280820   0.3776642  )
        19           Zr  tau(  19) = (   0.1331729   0.4627493   0.2141328  )
        20           Zr  tau(  20) = (   0.1328036   0.4661802   0.8725649  )
        21           Zr  tau(  21) = (   0.4385616   0.4627493   0.2141328  )
        22           Zr  tau(  22) = (   0.4389309   0.4661802   0.8725649  )
        23           H   tau(  23) = (   0.5493177   0.5573903   0.7036595  )

     number of k points=     1  Gaussian smearing, width (Ry)=  0.0220
                       cart. coord. in units 2pi/alat
        k(    1) = (   0.0000000   0.0000000   0.0000000), wk =   1.0000000

     Dense  grid:   493003 G-vectors     FFT dimensions: ( 125, 120, 135)

     Estimated max dynamical RAM per process >     133.03 MB

     Estimated total dynamical RAM >       5.46 GB

     Check: negative core charge=   -0.000002
     Generating pointlists ...
     new r_m :   0.1117 (alat units)  1.9717 (a.u.) for type    1
     new r_m :   0.1098 (alat units)  1.9374 (a.u.) for type    2
     new r_m :   0.0883 (alat units)  1.5593 (a.u.) for type    3
     new r_m :   0.0913 (alat units)  1.6122 (a.u.) for type    4
     new r_m :   0.0883 (alat units)  1.5593 (a.u.) for type    5

     Initial potential from superposition of free atoms

     starting charge     266.9726, renormalised to     277.0000

     negative rho (up, down):  9.216E-01 9.216E-01
     Starting wfcs are  287 randomized atomic wfcs

     total cpu time spent up to now is       12.7 secs

     Self-consistent Calculation

     iteration #  1     ecut=   120.00 Ry     beta= 0.70
     Davidson diagonalization with overlap
     ethr =  1.00E-02,  avg # of iterations =  2.0

     negative rho (up, down):  9.968E-01 9.965E-01

     total cpu time spent up to now is       32.1 secs

     total energy              =   -2930.55643073 Ry
     estimated scf accuracy    <     276.66563015 Ry

     total magnetization       =    -0.00 Bohr mag/cell
     absolute magnetization    =     0.09 Bohr mag/cell

     iteration #  2     ecut=   120.00 Ry     beta= 0.70
     Davidson diagonalization with overlap
     ethr =  1.00E-02,  avg # of iterations =  5.0

     negative rho (up, down):  9.678E-01 9.679E-01

     total cpu time spent up to now is       53.4 secs

     total energy              =   -2942.26506274 Ry
     estimated scf accuracy    <      29.78674296 Ry

     total magnetization       =    -0.14 Bohr mag/cell
     absolute magnetization    =     0.42 Bohr mag/cell

     iteration #  3     ecut=   120.00 Ry     beta= 0.70
     Davidson diagonalization with overlap
     ethr =  1.00E-02,  avg # of iterations =  2.0

     negative rho (up, down):  1.001E+00 1.004E+00

     total cpu time spent up to now is       72.3 secs

     total energy              =   -2942.70742727 Ry
     estimated scf accuracy    <      12.68416279 Ry

     total magnetization       =    -0.13 Bohr mag/cell
     absolute magnetization    =     0.52 Bohr mag/cell

     iteration #  4     ecut=   120.00 Ry     beta= 0.70
     Davidson diagonalization with overlap
     ethr =  4.58E-03,  avg # of iterations =  3.0

     negative rho (up, down):  1.008E+00 1.009E+00

     total cpu time spent up to now is      109.3 secs

     total energy              =   -2942.93172370 Ry
     estimated scf accuracy    <       3.07539187 Ry

     total magnetization       =    -0.15 Bohr mag/cell
     absolute magnetization    =     0.50 Bohr mag/cell

     iteration #  5     ecut=   120.00 Ry     beta= 0.70
     Davidson diagonalization with overlap
     ethr =  1.11E-03,  avg # of iterations =  7.5

     negative rho (up, down):  9.845E-01 9.855E-01

     total cpu time spent up to now is      155.2 secs

     total energy              =   -2943.09756823 Ry
     estimated scf accuracy    <       1.71903089 Ry

     total magnetization       =    -0.10 Bohr mag/cell
     absolute magnetization    =     0.26 Bohr mag/cell

     iteration #  6     ecut=   120.00 Ry     beta= 0.70
     Davidson diagonalization with overlap
     ethr =  6.21E-04,  avg # of iterations =  2.0

     negative rho (up, down):  9.704E-01 9.710E-01

     total cpu time spent up to now is      172.2 secs

     total energy              =   -2943.13715260 Ry
     estimated scf accuracy    <       0.93446855 Ry

     total magnetization       =    -0.07 Bohr mag/cell
     absolute magnetization    =     0.19 Bohr mag/cell

     iteration #  7     ecut=   120.00 Ry     beta= 0.70
     Davidson diagonalization with overlap
     ethr =  3.37E-04,  avg # of iterations =  2.0

     negative rho (up, down):  9.428E-01 9.433E-01

     total cpu time spent up to now is      190.2 secs

     total energy              =   -2943.08936574 Ry
     estimated scf accuracy    <       0.37375253 Ry

     total magnetization       =    -0.07 Bohr mag/cell
     absolute magnetization    =     0.16 Bohr mag/cell

     iteration #  8     ecut=   120.00 Ry     beta= 0.70
     Davidson diagonalization with overlap
     ethr =  1.35E-04,  avg # of iterations =  3.0

     negative rho (up, down):  9.188E-01 9.190E-01

     total cpu time spent up to now is      207.9 secs

     total energy              =   -2943.08859986 Ry
     estimated scf accuracy    <       0.17393915 Ry

     total magnetization       =    -0.06 Bohr mag/cell
     absolute magnetization    =     0.12 Bohr mag/cell

     iteration #  9     ecut=   120.00 Ry     beta= 0.70
     Davidson diagonalization with overlap
     ethr =  6.28E-05,  avg # of iterations = 12.0

     negative rho (up, down):  9.076E-01 9.076E-01

     total cpu time spent up to now is      227.7 secs

     total energy              =   -2943.08574256 Ry
     estimated scf accuracy    <       0.05493802 Ry

     total magnetization       =    -0.05 Bohr mag/cell
     absolute magnetization    =     0.08 Bohr mag/cell

     iteration # 10     ecut=   120.00 Ry     beta= 0.70
     Davidson diagonalization with overlap
     ethr =  1.98E-05,  avg # of iterations =  5.0

     negative rho (up, down):  9.085E-01 9.085E-01

     total cpu time spent up to now is      261.7 secs

     total energy              =   -2943.08828703 Ry
     estimated scf accuracy    <       0.03605194 Ry

     total magnetization       =    -0.04 Bohr mag/cell
     absolute magnetization    =     0.06 Bohr mag/cell

     iteration # 11     ecut=   120.00 Ry     beta= 0.70
     Davidson diagonalization with overlap
     ethr =  1.30E-05,  avg # of iterations =  5.0

     negative rho (up, down):  9.090E-01 9.090E-01

     total cpu time spent up to now is      299.1 secs

     total energy              =   -2943.09271327 Ry
     estimated scf accuracy    <       0.00615486 Ry

     total magnetization       =    -0.04 Bohr mag/cell
     absolute magnetization    =     0.05 Bohr mag/cell

     iteration # 12     ecut=   120.00 Ry     beta= 0.70
     Davidson diagonalization with overlap
     c_bands:  1 eigenvalues not converged
     c_bands:  1 eigenvalues not converged
     ethr =  2.22E-06,  avg # of iterations = 20.0

     negative rho (up, down):  9.091E-01 9.091E-01

     total cpu time spent up to now is      333.2 secs

     total energy              =   -2943.09490536 Ry
     estimated scf accuracy    <       0.00200725 Ry

     total magnetization       =    -0.04 Bohr mag/cell
     absolute magnetization    =     0.05 Bohr mag/cell

     iteration # 13     ecut=   120.00 Ry     beta= 0.70
     Davidson diagonalization with overlap
     ethr =  7.25E-07,  avg # of iterations =  3.0

     negative rho (up, down):  9.088E-01 9.088E-01

     Magnetic moment per site  (integrated on atomic sphere of radius R)
     atom   1 (R=0.112)  charge=  9.4636   -0.0002
     atom   2 (R=0.112)  charge=  9.0581    0.0001
     atom   3 (R=0.112)  charge=  9.0568   -0.0001
     atom   4 (R=0.112)  charge=  9.0584   -0.0000
     atom   5 (R=0.112)  charge=  9.0669   -0.0002
     atom   6 (R=0.110)  charge= 10.3486    0.0000
     atom   7 (R=0.110)  charge= 10.3554   -0.0001
     atom   8 (R=0.088)  charge=  8.1283   -0.0001
     atom   9 (R=0.088)  charge=  8.1312   -0.0001
     atom  10 (R=0.088)  charge=  8.1074   -0.0004
     atom  11 (R=0.088)  charge=  8.1060   -0.0002
     atom  12 (R=0.088)  charge=  8.1088   -0.0007
     atom  13 (R=0.088)  charge=  8.1054    0.0000
     atom  14 (R=0.088)  charge=  8.1071   -0.0005
     atom  15 (R=0.088)  charge=  8.1027   -0.0003
     atom  16 (R=0.088)  charge=  8.1058   -0.0013
     atom  17 (R=0.088)  charge=  8.1123   -0.0009
     atom  18 (R=0.091)  charge=  7.7809    0.0001
     atom  19 (R=0.091)  charge=  7.5871   -0.0008
     atom  20 (R=0.091)  charge=  7.5854    0.0000
     atom  21 (R=0.091)  charge=  7.5842   -0.0011
     atom  22 (R=0.091)  charge=  7.5910   -0.0002
     atom  23 (R=0.088)  charge=  1.0963    0.0000

     total cpu time spent up to now is      351.0 secs

     End of self-consistent calculation

 ------ SPIN UP ------------


          k = 0.0000 0.0000 0.0000 ( 61588 PWs)   bands (ev):

   -60.7848 -60.7637 -60.7373 -60.7194 -60.6872 -60.6841 -60.6408 -60.6405
   -60.5387 -60.5038 -54.3908 -54.3412 -54.2535 -54.2078 -52.6832 -46.3320
   -46.2461 -41.5980 -41.5881 -41.4841 -41.4788 -39.7917 -27.7810 -27.7604
   -27.6911 -27.6761 -27.5969 -27.5735 -27.4528 -27.4422 -27.4180 -27.3377
   -27.3124 -27.2706 -27.2556 -27.2377 -27.2173 -27.1712 -27.1636 -27.1506
   -27.1212 -27.1133 -27.0770 -27.0328 -26.9595 -26.9438 -26.9390 -26.9188
   -26.8822 -26.8638 -26.8382 -26.8374 -24.1708 -23.9640 -23.6595 -23.5733
   -23.3113 -23.2076 -23.1719 -23.0681 -22.9307 -22.8713 -22.8415 -22.6223
   -22.5403 -22.4611 -22.4082 -22.4038 -22.2691 -22.2414 -21.7456 -21.6813
   -21.6125 -20.1607 -19.8821 -19.7997 -19.7781 -19.5992 -19.5648 -19.5591
   -19.5385 -19.5271 -19.4867 -19.3287 -19.2998 -18.1352 -17.9339 -17.8011
     1.1355   2.0991   2.9542   3.1396   3.3132   3.3578   3.4897   3.6321
     3.6888   3.7504   3.9229   4.0244   4.2125   4.5064   4.5713   4.7163
     4.7639   4.9220   5.0604   5.1249   5.1634   5.2711   5.3031   5.3225
     5.4022   5.5501   5.5712   5.7147   5.7349   5.7595   5.7854   5.8260
     5.9596   6.0689   6.1583   6.2139   6.2807   6.3416   6.3679   6.3916
     6.4556   6.5905   6.6748   6.7078   6.9238   6.9857   7.0397   7.1014
     7.1220   7.1616   7.2784   7.3147   7.3941   7.5121   7.5198   7.6022
     7.6424   7.7714   7.9033   7.9970   8.0750   8.1061   8.1339   8.1679
     8.2525   8.3068   8.3396   8.3735   8.5039   8.5296   8.6199   8.7451
     8.8238   8.9294   8.9811   9.0730   9.1826   9.2627   9.2846

 ------ SPIN DOWN ----------


          k = 0.0000 0.0000 0.0000 ( 61588 PWs)   bands (ev):

   -60.7850 -60.7644 -60.7378 -60.7201 -60.6880 -60.6844 -60.6415 -60.6407
   -60.5388 -60.5040 -54.3908 -54.3412 -54.2535 -54.2078 -52.6834 -46.3321
   -46.2462 -41.5980 -41.5894 -41.4854 -41.4790 -39.7917 -27.7815 -27.7615
   -27.6915 -27.6773 -27.5974 -27.5745 -27.4533 -27.4433 -27.4182 -27.3381
   -27.3130 -27.2710 -27.2564 -27.2379 -27.2178 -27.1715 -27.1640 -27.1510
   -27.1214 -27.1137 -27.0773 -27.0329 -26.9601 -26.9443 -26.9400 -26.9200
   -26.8827 -26.8651 -26.8389 -26.8381 -24.1709 -23.9641 -23.6596 -23.5733
   -23.3113 -23.2078 -23.1720 -23.0682 -22.9308 -22.8713 -22.8415 -22.6223
   -22.5402 -22.4612 -22.4084 -22.4040 -22.2692 -22.2415 -21.7458 -21.6815
   -21.6126 -20.1620 -19.8818 -19.8009 -19.7794 -19.5992 -19.5653 -19.5598
   -19.5389 -19.5284 -19.4870 -19.3305 -19.2998 -18.1353 -17.9340 -17.8012
     1.1350   2.0986   2.9529   3.1393   3.3127   3.3571   3.4886   3.6317
     3.6884   3.7497   3.9215   4.0236   4.2117   4.5060   4.5708   4.7152
     4.7632   4.9214   5.0591   5.1244   5.1625   5.2704   5.3024   5.3218
     5.4010   5.5496   5.5705   5.7140   5.7345   5.7585   5.7847   5.8252
     5.9592   6.0682   6.1573   6.2132   6.2803   6.3410   6.3671   6.3907
     6.4545   6.5899   6.6740   6.7073   6.9227   6.9844   7.0368   7.0999
     7.1183   7.1601   7.2758   7.3139   7.3900   7.5088   7.5181   7.6010
     7.6410   7.7706   7.9025   7.9959   8.0735   8.1043   8.1330   8.1665
     8.2491   8.3060   8.3385   8.3717   8.5026   8.5286   8.6189   8.7441
     8.8229   8.9269   8.9797   9.0726   9.1819   9.2622   9.2847

     the Fermi energy is     7.2697 ev

!    total energy              =   -2943.09602298 Ry
     estimated scf accuracy    <       0.00045696 Ry
     smearing contrib. (-TS)   =      -0.10032792 Ry
     internal energy E=F+TS    =   -2942.99569506 Ry

     total magnetization       =    -0.03 Bohr mag/cell
     absolute magnetization    =     0.04 Bohr mag/cell

     convergence has been achieved in  13 iterations

     negative rho (up, down):  9.088E-01 9.088E-01

     Forces acting on atoms (cartesian axes, Ry/au):

     atom    1 type  1   force =    -0.00252785   -0.02685111   -0.00235200
     atom    2 type  1   force =    -0.11482854   -0.01398327   -0.00302794
     atom    3 type  1   force =    -0.10817639    0.01218952    0.00192986
     atom    4 type  1   force =     0.11388346   -0.01433172   -0.00812692
     atom    5 type  1   force =     0.10988997    0.01619100   -0.00327833
     atom    6 type  2   force =    -0.00726206   -0.01896197    0.00599853
     atom    7 type  2   force =    -0.01881397    0.00819796   -0.01380730
     atom    8 type  3   force =    -0.10481670    0.00519849   -0.00458597
     atom    9 type  3   force =     0.11735301   -0.00773223    0.00489844
     atom   10 type  3   force =    -0.02171647   -0.03264258   -0.05838806
     atom   11 type  3   force =    -0.01994952   -0.03426208    0.05567130
     atom   12 type  3   force =    -0.02028710    0.03701529   -0.05412032
     atom   13 type  3   force =    -0.00597615    0.03007519    0.06289171
     atom   14 type  3   force =     0.02272451   -0.03070354   -0.05675967
     atom   15 type  3   force =     0.02082812   -0.03904720    0.05936537
     atom   16 type  3   force =     0.01901185    0.03756428   -0.05037513
     atom   17 type  3   force =     0.01028433    0.04386167    0.06240525
     atom   18 type  4   force =    -0.00045354    0.02813231   -0.00602512
     atom   19 type  4   force =    -0.13084363   -0.00519661   -0.11594354
     atom   20 type  4   force =    -0.12874055    0.00791725    0.11656827
     atom   21 type  4   force =     0.13075237   -0.00795577   -0.11371276
     atom   22 type  4   force =     0.13652450   -0.00346167    0.11821208
     atom   23 type  5   force =     0.00314034    0.00878678    0.00256227
     The non-local contrib.  to forces
     atom    1 type  1   force =     0.00317468   -0.01359911    0.02571305
     atom    2 type  1   force =    -0.24582488   -0.16417717    0.01376586
     atom    3 type  1   force =    -0.23835215    0.15588547   -0.01915003
     atom    4 type  1   force =     0.24454109   -0.16028267    0.02583677
     atom    5 type  1   force =     0.26607150    0.12313291    0.01429454
     atom    6 type  2   force =     0.00723309   -0.04807996   -0.05996954
     atom    7 type  2   force =    -0.00616998    0.08192176    0.05848841
     atom    8 type  3   force =    -0.25794078    0.00762947    0.00387643
     atom    9 type  3   force =     0.22536894    0.01183156    0.00536523
     atom   10 type  3   force =    -0.21068740    0.00541882   -0.20400978
     atom   11 type  3   force =    -0.21485643    0.00388768    0.19521099
     atom   12 type  3   force =    -0.20691965   -0.02103888   -0.17399645
     atom   13 type  3   force =    -0.20450316   -0.00500551    0.20107858
     atom   14 type  3   force =     0.21435137    0.00534523   -0.21378436
     atom   15 type  3   force =     0.22441369    0.00553402    0.18147900
     atom   16 type  3   force =     0.19911140   -0.01824122   -0.18437394
     atom   17 type  3   force =     0.24875500   -0.04265126    0.14209845
     atom   18 type  4   force =    -0.00094238    0.05657984   -0.05934042
     atom   19 type  4   force =     0.05768513    0.00906509    0.07598503
     atom   20 type  4   force =     0.04868096   -0.02078872   -0.06441953
     atom   21 type  4   force =    -0.05863483    0.02168785    0.07463277
     atom   22 type  4   force =    -0.04944244   -0.01643461   -0.07288435
     atom   23 type  5   force =    -0.03189867   -0.01962074   -0.00393566
     The ionic contribution  to forces
     atom    1 type  1   force =    -0.34101311   -4.86780434   13.95545786
     atom    2 type  1   force =   -39.71472047   -6.14001249    0.70899070
     atom    3 type  1   force =   -39.73514284    6.20092903   -0.81617103
     atom    4 type  1   force =    39.56230227   -6.20522005    0.63293309
     atom    5 type  1   force =    39.34505122    6.63985664   -1.12937929
     atom    6 type  2   force =    -0.13096895   -3.62869221  -14.01612728
     atom    7 type  2   force =    -0.97077854    3.82582847   13.90115045
     atom    8 type  3   force =   -52.23767004    0.00239857   -0.20931297
     atom    9 type  3   force =    51.19728256   -0.67638903   -1.39490870
     atom   10 type  3   force =   -36.06842608   -2.09268583  -23.04651854
     atom   11 type  3   force =   -35.17993693   -0.86430730   22.09978026
     atom   12 type  3   force =   -35.26211437    0.82364233  -22.10841743
     atom   13 type  3   force =   -36.13545394    2.27817407   23.11360046
     atom   14 type  3   force =    35.99798961   -2.10380935  -23.06732446
     atom   15 type  3   force =    35.00699583   -0.93649438   22.18098716
     atom   16 type  3   force =    35.16653217    0.86309557  -22.15015663
     atom   17 type  3   force =    35.69622241    2.73472393   23.44933682
     atom   18 type  4   force =    -0.19907272    4.38756524  -14.06652931
     atom   19 type  4   force =   -35.91889525    0.93446198  -25.50949633
     atom   20 type  4   force =   -36.01464077   -1.01627023   25.58793850
     atom   21 type  4   force =    35.81524221    0.91002962  -25.56631556
     atom   22 type  4   force =    35.10879240   -1.56601143   26.61308252
     atom   23 type  5   force =     5.01242332    0.49699116    0.83739971
     The local contribution  to forces
     atom    1 type  1   force =     0.33178264    4.85127660  -13.99003150
     atom    2 type  1   force =    39.86744886    6.28890781   -0.72583588
     atom    3 type  1   force =    39.88699927   -6.34253473    0.83698396
     atom    4 type  1   force =   -39.71764103    6.35030780   -0.67185415
     atom    5 type  1   force =   -39.52675785   -6.74364605    1.10759961
     atom    6 type  2   force =     0.11519068    3.64923190   14.08879408
     atom    7 type  2   force =     0.95489583   -3.89548734  -13.98212507
     atom    8 type  3   force =    52.42526641   -0.00657600    0.19936486
     atom    9 type  3   force =   -51.33397877    0.65775009    1.39766633
     atom   10 type  3   force =    36.27950105    2.04182407   23.21415013
     atom   11 type  3   force =    35.39953947    0.81695740  -22.26389279
     atom   12 type  3   force =    35.46997154   -0.74991078   22.25026955
     atom   13 type  3   force =    36.35563900   -2.22844091  -23.27367378
     atom   14 type  3   force =   -36.21505197    2.05483924   23.24765318
     atom   15 type  3   force =   -35.24422491    0.88376603  -22.32562164
     atom   16 type  3   force =   -35.37231246   -0.79024882   22.30850929
     atom   17 type  3   force =   -35.96490830   -2.63757179  -23.54704576
     atom   18 type  4   force =     0.19725740   -4.41011689   14.12744621
     atom   19 type  4   force =    35.73292489   -0.95082455   25.33669667
     atom   20 type  4   force =    35.84275406    1.04050310  -25.42381123
     atom   21 type  4   force =   -35.63222260   -0.94223005   25.39918070
     atom   22 type  4   force =   -34.93141420    1.57605748  -26.44297664
     atom   23 type  5   force =    -4.97773611   -0.46891222   -0.83191110
     The core correction contribution to forces
     atom    1 type  1   force =     0.00097894    0.00138844   -0.00054111
     atom    2 type  1   force =    -0.01192881   -0.00189765    0.00009441
     atom    3 type  1   force =    -0.01245078    0.00221818   -0.00125600
     atom    4 type  1   force =     0.01288302   -0.00134656    0.00267199
     atom    5 type  1   force =     0.01497525    0.00005051    0.00147559
     atom    6 type  2   force =    -0.00046670    0.00223307    0.00246169
     atom    7 type  2   force =     0.00123841   -0.00431878   -0.00233675
     atom    8 type  3   force =    -0.03167938    0.00107755    0.00026826
     atom    9 type  3   force =     0.02489237   -0.00175549   -0.00318098
     atom   10 type  3   force =    -0.02207566    0.00942168   -0.01609142
     atom   11 type  3   force =    -0.02326740    0.00897125    0.01771804
     atom   12 type  3   force =    -0.02136701   -0.00961332   -0.01531345
     atom   13 type  3   force =    -0.02123738   -0.00974866    0.01599610
     atom   14 type  3   force =     0.02137760    0.00949704   -0.01609550
     atom   15 type  3   force =     0.02481538    0.00914725    0.01588090
     atom   16 type  3   force =     0.02139158   -0.00942366   -0.01645144
     atom   17 type  3   force =     0.02468849   -0.00901422    0.01233379
     atom   18 type  4   force =     0.00008533   -0.00290395    0.00291125
     atom   19 type  4   force =    -0.00958425    0.00002446   -0.00969778
     atom   20 type  4   force =    -0.00905736    0.00077911    0.00907993
     atom   21 type  4   force =     0.00956619   -0.00062900   -0.00966472
     atom   22 type  4   force =     0.00835060    0.00034249    0.01006346
     atom   23 type  5   force =     0.00000000    0.00000000    0.00000000
     The Hubbard contrib.    to forces
     atom    1 type  1   force =     0.00000000    0.00000000    0.00000000
     atom    2 type  1   force =     0.00000000    0.00000000    0.00000000
     atom    3 type  1   force =     0.00000000    0.00000000    0.00000000
     atom    4 type  1   force =     0.00000000    0.00000000    0.00000000
     atom    5 type  1   force =     0.00000000    0.00000000    0.00000000
     atom    6 type  2   force =     0.00000000    0.00000000    0.00000000
     atom    7 type  2   force =     0.00000000    0.00000000    0.00000000
     atom    8 type  3   force =     0.00000000    0.00000000    0.00000000
     atom    9 type  3   force =     0.00000000    0.00000000    0.00000000
     atom   10 type  3   force =     0.00000000    0.00000000    0.00000000
     atom   11 type  3   force =     0.00000000    0.00000000    0.00000000
     atom   12 type  3   force =     0.00000000    0.00000000    0.00000000
     atom   13 type  3   force =     0.00000000    0.00000000    0.00000000
     atom   14 type  3   force =     0.00000000    0.00000000    0.00000000
     atom   15 type  3   force =     0.00000000    0.00000000    0.00000000
     atom   16 type  3   force =     0.00000000    0.00000000    0.00000000
     atom   17 type  3   force =     0.00000000    0.00000000    0.00000000
     atom   18 type  4   force =     0.00000000    0.00000000    0.00000000
     atom   19 type  4   force =     0.00000000    0.00000000    0.00000000
     atom   20 type  4   force =     0.00000000    0.00000000    0.00000000
     atom   21 type  4   force =     0.00000000    0.00000000    0.00000000
     atom   22 type  4   force =     0.00000000    0.00000000    0.00000000
     atom   23 type  5   force =     0.00000000    0.00000000    0.00000000
     The SCF correction term to forces
     atom    1 type  1   force =     0.00238120    0.00189130    0.00690520
     atom    2 type  1   force =    -0.00997104    0.00320022   -0.00018751
     atom    3 type  1   force =    -0.00939768   -0.00430444    0.00137848
     atom    4 type  1   force =     0.01163029    0.00221374    0.00214089
     atom    5 type  1   force =     0.01038205   -0.00319901    0.00258675
     atom    6 type  2   force =     0.00158202    0.00634922   -0.00930490
     atom    7 type  2   force =     0.00183251    0.00025785    0.01087119
     atom    8 type  3   force =    -0.00296070    0.00067290    0.00107298
     atom    9 type  3   force =     0.00362012    0.00083462   -0.00018792
     atom   10 type  3   force =    -0.00019618    0.00338268   -0.00606293
     atom   11 type  3   force =    -0.00159602    0.00023287    0.00671032
     atom   12 type  3   force =    -0.00002541   -0.00606007   -0.00680704
     atom   13 type  3   force =    -0.00058847   -0.00489980    0.00574587
     atom   14 type  3   force =     0.00389011    0.00342829   -0.00735301
     atom   15 type  3   force =     0.00866034   -0.00099613    0.00649547
     atom   16 type  3   force =     0.00412137   -0.00761360   -0.00804688
     atom   17 type  3   force =     0.00535894   -0.00162100    0.00553747
     atom   18 type  4   force =     0.00205103   -0.00298793   -0.01065733
     atom   19 type  4   force =     0.00685806    0.00208039   -0.00957561
     atom   20 type  4   force =     0.00335476    0.00369799    0.00763612
     atom   21 type  4   force =    -0.00336640    0.00318980   -0.01169044
     atom   22 type  4   force =     0.00007034    0.00258840    0.01078261
     atom   23 type  5   force =     0.00018400    0.00033258    0.00086485

     Total force =     0.491519     Total SCF correction =     0.045741


     Computing stress (Cartesian axis) and pressure


     negative rho (up, down):  9.088E-01 9.088E-01
          total   stress  (Ry/bohr**3)                   (kbar)     P=       82.96
   0.00063978   0.00000085   0.00000748           94.12        0.12        1.10
   0.00000085   0.00065931  -0.00000644            0.12       96.99       -0.95
   0.00000748  -0.00000644   0.00039269            1.10       -0.95       57.77


     Molecular Dynamics Calculation

     Starting temperature  =   300.00 K

     temperature is set once at start

     mass Hf               =   178.49
     mass Nb               =    92.91
     mass Ta               =   180.95
     mass Zr               =    91.22
     mass H                =     2.01
     Time step             =     4.20 a.u.,  0.2032 femto-seconds

     Entering Dynamics:    iteration =     1
                           time      =   0.0002 pico-seconds


ATOMIC_POSITIONS (angstrom)
Hf            2.6700627356        2.8271766950        6.6040584278
Hf            1.2530502369        1.2863382164        5.0585604159
Hf            1.2555466462        7.3898590807        5.0881620995
Hf            4.0870753522        1.2863382064        5.0585602696
Hf            4.0845790192        7.3898591955        5.0881619500
Nb            2.6700624079        2.7969839966        3.5156778240
Nb            2.6700617711        5.8764335644        6.6350914589
Ta            1.2094329408        4.3409824349        5.0712199792
Ta            4.1306930302        4.3409820690        5.0712202476
Ta            1.3073149207        1.3141761018        2.0588717344
Ta            1.3028506008        1.3084446026        8.0946750546
Ta            1.3040718991        7.3758816078        2.0463299249
Ta            1.3077734804        7.3651382357        8.0860982773
Ta            4.0328107241        1.3141761567        2.0588717805
Ta            4.0372750404        1.3084444672        8.0946751591
Ta            4.0360536811        7.3758816234        2.0463300309
Ta            4.0323522578        7.3651386259        8.0860982636
Zr            2.6700627827        5.8663418588        3.5274778689
Zr            1.2438901253        4.3221321090        2.0000877683
Zr            1.2404410370        4.3541781651        8.1498563695
Zr            4.0962354859        4.3221319541        2.0000878935
Zr            4.0996850162        4.3541775264        8.1498564618
H             5.0262825633        5.1156668046        6.4156578905


     kinetic energy (Ekin) =           8.09842595 Ry
     temperature           =       38746.67660973 K 
     Ekin + Etot (const)   =       -2934.99759703 Ry
     Ions kinetic stress =          143.03 (kbar)
                                    107.27          92.90         160.90
                                     92.90          80.47         139.36
                                    160.90         139.36         241.35



     Linear momentum :   -0.0000000000    0.0000000000   -0.0000000000

     File outdir/pwscf.msd.dat deleted, as requested

     Writing config-only to output data dir outdir/pwscf.save/
     NEW-OLD atomic charge density approx. for the potential

     Check: negative core charge=   -0.000002

     negative rho (up, down):  9.088E-01 9.088E-01
     Generating pointlists ...
     new r_m :   0.0791 (alat units)  1.3966 (a.u.) for type    3
     new r_m :   0.0791 (alat units)  1.3966 (a.u.) for type    5

     total cpu time spent up to now is      376.6 secs

     Self-consistent Calculation

     iteration #  1     ecut=   120.00 Ry     beta= 0.70
     Davidson diagonalization with overlap
     ethr =  1.00E-06,  avg # of iterations =  9.0

     negative rho (up, down):  9.088E-01 9.088E-01

     total cpu time spent up to now is      424.3 secs

     total energy              =   -2943.08239642 Ry
     estimated scf accuracy    <       0.02438332 Ry

     total magnetization       =    -0.03 Bohr mag/cell
     absolute magnetization    =     0.04 Bohr mag/cell

     iteration #  2     ecut=   120.00 Ry     beta= 0.70
     Davidson diagonalization with overlap
     ethr =  8.80E-06,  avg # of iterations =  3.0

     negative rho (up, down):  9.088E-01 9.088E-01

     total cpu time spent up to now is      461.6 secs

     total energy              =   -2943.08420473 Ry
     estimated scf accuracy    <       0.00578144 Ry

     total magnetization       =    -0.03 Bohr mag/cell
     absolute magnetization    =     0.03 Bohr mag/cell

     iteration #  3     ecut=   120.00 Ry     beta= 0.70
     Davidson diagonalization with overlap
     ethr =  2.09E-06,  avg # of iterations =  2.0

     negative rho (up, down):  9.089E-01 9.089E-01

     Magnetic moment per site  (integrated on atomic sphere of radius R)
     atom   1 (R=0.112)  charge=  9.4639   -0.0001
     atom   2 (R=0.112)  charge=  9.0562   -0.0000
     atom   3 (R=0.112)  charge=  9.0561   -0.0001
     atom   4 (R=0.112)  charge=  9.0586    0.0000
     atom   5 (R=0.112)  charge=  9.0650   -0.0002
     atom   6 (R=0.110)  charge= 10.3493   -0.0000
     atom   7 (R=0.110)  charge= 10.3554   -0.0001
     atom   8 (R=0.079)  charge=  7.1179   -0.0000
     atom   9 (R=0.079)  charge=  7.1240   -0.0000
     atom  10 (R=0.079)  charge=  7.0979   -0.0003
     atom  11 (R=0.079)  charge=  7.1000   -0.0002
     atom  12 (R=0.079)  charge=  7.0976   -0.0006
     atom  13 (R=0.079)  charge=  7.1000   -0.0001
     atom  14 (R=0.079)  charge=  7.0983   -0.0004
     atom  15 (R=0.079)  charge=  7.1002   -0.0002
     atom  16 (R=0.079)  charge=  7.0978   -0.0009
     atom  17 (R=0.079)  charge=  7.1074   -0.0006
     atom  18 (R=0.091)  charge=  7.7815    0.0000
     atom  19 (R=0.091)  charge=  7.5877   -0.0006
     atom  20 (R=0.091)  charge=  7.5838    0.0000
     atom  21 (R=0.091)  charge=  7.5856   -0.0009
     atom  22 (R=0.091)  charge=  7.5913   -0.0003
     atom  23 (R=0.079)  charge=  1.0009   -0.0000

     total cpu time spent up to now is      485.3 secs

     End of self-consistent calculation

 ------ SPIN UP ------------


          k = 0.0000 0.0000 0.0000 ( 61588 PWs)   bands (ev):

   -60.7705 -60.7379 -60.7253 -60.6921 -60.6743 -60.6620 -60.6258 -60.6129
   -60.5116 -60.3751 -54.3767 -54.3313 -54.2428 -54.1973 -52.6762 -46.3176
   -46.2365 -41.5861 -41.5812 -41.5013 -41.4749 -39.7853 -27.7689 -27.7355
   -27.6773 -27.6501 -27.5823 -27.5472 -27.4366 -27.4180 -27.3747 -27.3199
   -27.2864 -27.2587 -27.2297 -27.2202 -27.1957 -27.1470 -27.1288 -27.1262
   -27.0801 -27.0416 -27.0023 -26.9599 -26.9451 -26.9330 -26.9128 -26.8939
   -26.8677 -26.8376 -26.8261 -26.8119 -24.1577 -23.9500 -23.6484 -23.5611
   -23.3001 -23.1930 -23.1606 -23.0566 -22.9184 -22.8599 -22.8284 -22.6106
   -22.5275 -22.4520 -22.3965 -22.3906 -22.2589 -22.2284 -21.7376 -21.6721
   -21.6052 -20.1528 -19.8842 -19.7941 -19.7662 -19.5879 -19.5716 -19.5535
   -19.5354 -19.5140 -19.4998 -19.3208 -19.3086 -18.1278 -17.9254 -17.7952
     1.0006   2.0053   2.9645   3.1559   3.3365   3.3874   3.5001   3.6502
     3.7049   3.7676   3.9387   4.0364   4.2354   4.5234   4.5927   4.7290
     4.7732   4.9410   5.0721   5.1344   5.1948   5.2837   5.3147   5.3301
     5.4132   5.5678   5.5865   5.7307   5.7508   5.7758   5.7979   5.8516
     5.9736   6.0838   6.1750   6.2321   6.2937   6.3633   6.3797   6.3996
     6.4706   6.6098   6.6905   6.7210   6.9368   7.0027   7.0493   7.1104
     7.1339   7.1726   7.2872   7.3238   7.4068   7.5204   7.5340   7.6021
     7.6488   7.7576   7.9155   8.0059   8.0711   8.1177   8.1446   8.1781
     8.2679   8.3279   8.3575   8.3854   8.5170   8.5496   8.6265   8.7582
     8.8371   8.9350   8.9798   9.0852   9.1930   9.2867   9.3068

 ------ SPIN DOWN ----------


          k = 0.0000 0.0000 0.0000 ( 61588 PWs)   bands (ev):

   -60.7708 -60.7386 -60.7257 -60.6927 -60.6747 -60.6628 -60.6260 -60.6136
   -60.5117 -60.3752 -54.3767 -54.3313 -54.2428 -54.1973 -52.6763 -46.3177
   -46.2366 -41.5862 -41.5822 -41.5014 -41.4760 -39.7853 -27.7694 -27.7366
   -27.6777 -27.6511 -27.5828 -27.5481 -27.4370 -27.4192 -27.3749 -27.3203
   -27.2871 -27.2592 -27.2305 -27.2206 -27.1964 -27.1472 -27.1291 -27.1269
   -27.0802 -27.0417 -27.0025 -26.9600 -26.9456 -26.9335 -26.9137 -26.8951
   -26.8682 -26.8387 -26.8264 -26.8129 -24.1578 -23.9500 -23.6485 -23.5612
   -23.3002 -23.1931 -23.1607 -23.0566 -22.9185 -22.8600 -22.8284 -22.6106
   -22.5275 -22.4520 -22.3967 -22.3907 -22.2590 -22.2285 -21.7377 -21.6722
   -21.6053 -20.1539 -19.8841 -19.7950 -19.7673 -19.5881 -19.5716 -19.5543
   -19.5358 -19.5151 -19.5003 -19.3222 -19.3087 -18.1278 -17.9255 -17.7953
     1.0003   2.0048   2.9634   3.1556   3.3361   3.3868   3.4991   3.6499
     3.7046   3.7671   3.9374   4.0357   4.2348   4.5230   4.5922   4.7281
     4.7726   4.9405   5.0710   5.1339   5.1941   5.2831   5.3140   5.3295
     5.4120   5.5674   5.5860   5.7301   5.7505   5.7750   5.7973   5.8510
     5.9731   6.0830   6.1742   6.2315   6.2932   6.3626   6.3790   6.3989
     6.4697   6.6092   6.6898   6.7205   6.9358   7.0017   7.0467   7.1081
     7.1314   7.1714   7.2846   7.3229   7.4033   7.5177   7.5326   7.6010
     7.6475   7.7568   7.9148   8.0049   8.0698   8.1159   8.1438   8.1767
     8.2649   8.3272   8.3565   8.3835   8.5160   8.5486   8.6256   8.7573
     8.8363   8.9326   8.9787   9.0846   9.1925   9.2860   9.3052

     the Fermi energy is     7.2800 ev

!    total energy              =   -2943.08408771 Ry
     estimated scf accuracy    <       0.00098495 Ry
     smearing contrib. (-TS)   =      -0.10113594 Ry
     internal energy E=F+TS    =   -2942.98295177 Ry

     total magnetization       =    -0.03 Bohr mag/cell
     absolute magnetization    =     0.03 Bohr mag/cell

     convergence has been achieved in   3 iterations

     negative rho (up, down):  9.089E-01 9.089E-01

     Forces acting on atoms (cartesian axes, Ry/au):

     atom    1 type  1   force =     0.00047455   -0.02762047    0.00736120
     atom    2 type  1   force =    -0.12028663   -0.01197517    0.00059966
     atom    3 type  1   force =    -0.11379057    0.00948485    0.00607111
     atom    4 type  1   force =     0.12002475   -0.01356298   -0.00193958
     atom    5 type  1   force =     0.11707952    0.01407530    0.00360084
     atom    6 type  2   force =    -0.00919219   -0.02076953    0.00294363
     atom    7 type  2   force =    -0.02055913    0.00988470   -0.01429773
     atom    8 type  3   force =    -0.10998157    0.00688851   -0.00309561
     atom    9 type  3   force =     0.09985599   -0.02854053   -0.02581939
     atom   10 type  3   force =    -0.02391636   -0.02767756   -0.06121413
     atom   11 type  3   force =    -0.02187534   -0.03342892    0.05588945
     atom   12 type  3   force =    -0.02281975    0.03250305   -0.05853999
     atom   13 type  3   force =    -0.00395256    0.02931212    0.06359618
     atom   14 type  3   force =     0.02440123   -0.02738694   -0.06144684
     atom   15 type  3   force =     0.02167538   -0.03904754    0.05941986
     atom   16 type  3   force =     0.02124950    0.03340633   -0.05520279
     atom   17 type  3   force =     0.00745526    0.04521938    0.06286416
     atom   18 type  4   force =    -0.00225369    0.02840858   -0.01142376
     atom   19 type  4   force =    -0.12943493   -0.00451931   -0.11980735
     atom   20 type  4   force =    -0.12792319    0.00774387    0.11745394
     atom   21 type  4   force =     0.12937918   -0.00632125   -0.12369162
     atom   22 type  4   force =     0.13557431   -0.00208345    0.11426521
     atom   23 type  5   force =     0.02881625    0.02600696    0.04241356
     The non-local contrib.  to forces
     atom    1 type  1   force =     0.00457386   -0.01553140    0.03143277
     atom    2 type  1   force =    -0.24768573   -0.16212616    0.01718514
     atom    3 type  1   force =    -0.24150928    0.15342765   -0.01630282
     atom    4 type  1   force =     0.24844849   -0.15984933    0.03011105
     atom    5 type  1   force =     0.26809713    0.12417474    0.01426751
     atom    6 type  2   force =     0.00886535   -0.04973785   -0.06243468
     atom    7 type  2   force =     0.00064311    0.08599145    0.06307282
     atom    8 type  3   force =    -0.25756790    0.00748848    0.00547472
     atom    9 type  3   force =     0.20555542   -0.00093288   -0.01290138
     atom   10 type  3   force =    -0.21114570    0.00673685   -0.20744205
     atom   11 type  3   force =    -0.21407349    0.00569795    0.19609205
     atom   12 type  3   force =    -0.20602156   -0.02418462   -0.17693151
     atom   13 type  3   force =    -0.19943808   -0.00731117    0.20257472
     atom   14 type  3   force =     0.21518538    0.00736631   -0.21787530
     atom   15 type  3   force =     0.22307826    0.00422763    0.18188357
     atom   16 type  3   force =     0.19912711   -0.02171166   -0.18832267
     atom   17 type  3   force =     0.24040294   -0.03592622    0.15057907
     atom   18 type  4   force =    -0.00115288    0.05729496   -0.06025519
     atom   19 type  4   force =     0.05954192    0.01025823    0.07275657
     atom   20 type  4   force =     0.05212828   -0.02015753   -0.06347056
     atom   21 type  4   force =    -0.05989474    0.02303242    0.06769854
     atom   22 type  4   force =    -0.04950004   -0.01479483   -0.06723334
     atom   23 type  5   force =    -0.03694895   -0.02568181   -0.01783972
     The ionic contribution  to forces
     atom    1 type  1   force =    -0.37567357   -4.90309834   13.98473211
     atom    2 type  1   force =   -39.72507196   -6.14811572    0.71209545
     atom    3 type  1   force =   -39.74994801    6.20874205   -0.81019397
     atom    4 type  1   force =    39.56345115   -6.23569121    0.63572417
     atom    5 type  1   force =    39.35940077    6.68940711   -1.10574731
     atom    6 type  2   force =    -0.14895482   -3.64629508  -14.03915606
     atom    7 type  2   force =    -1.01583952    3.88803642   13.97543230
     atom    8 type  3   force =   -52.27579285    0.00199990   -0.20861337
     atom    9 type  3   force =    50.96996114   -0.87355171   -1.73545085
     atom   10 type  3   force =   -36.07275665   -2.09585765  -23.05520880
     atom   11 type  3   force =   -35.18606420   -0.87039156   22.10686447
     atom   12 type  3   force =   -35.26717120    0.82557121  -22.11900150
     atom   13 type  3   force =   -36.13901953    2.27726669   23.12084464
     atom   14 type  3   force =    35.99958726   -2.11029632  -23.08262926
     atom   15 type  3   force =    35.01645421   -0.95336172   22.19582713
     atom   16 type  3   force =    35.16950979    0.86847169  -22.17176169
     atom   17 type  3   force =    35.75956808    2.67924407   23.43672673
     atom   18 type  4   force =    -0.22406280    4.40479159  -14.09729718
     atom   19 type  4   force =   -35.92606031    0.93540726  -25.52269040
     atom   20 type  4   force =   -36.02843359   -1.01071959   25.60190774
     atom   21 type  4   force =    35.81618292    0.91059574  -25.60142724
     atom   22 type  4   force =    35.22378883   -1.46894641   26.65231598
     atom   23 type  5   force =     5.25694484    0.62679156    1.12670691
     The local contribution  to forces
     atom    1 type  1   force =     0.37962089    4.88427773  -13.98562823
     atom    2 type  1   force =    39.85973499    6.30205198   -0.71313252
     atom    3 type  1   force =    39.88659951   -6.35707747    0.85025942
     atom    4 type  1   force =   -39.69469620    6.38211713   -0.64859469
     atom    5 type  1   force =   -39.51199234   -6.80376260    1.11836861
     atom    6 type  2   force =     0.12867845    3.67506537   14.10249134
     atom    7 type  2   force =     1.00975771   -3.95112382  -14.02288027
     atom    8 type  3   force =    52.44888218   -0.00292270    0.21172705
     atom    9 type  3   force =   -51.06777922    0.86829109    1.77463630
     atom   10 type  3   force =    36.27670576    2.07183490   23.21037733
     atom   11 type  3   force =    35.40985341    0.82063328  -22.26076169
     atom   12 type  3   force =    35.46590873   -0.77801487   22.24304974
     atom   13 type  3   force =    36.36587588   -2.23123191  -23.27022668
     atom   14 type  3   force =   -36.19411647    2.07904550   23.23970692
     atom   15 type  3   force =   -35.22784736    0.89507467  -22.32431228
     atom   16 type  3   force =   -35.34821503   -0.81984785   22.30632066
     atom   17 type  3   force =   -36.00552530   -2.58550320  -23.52913838
     atom   18 type  4   force =     0.22497568   -4.43509594   14.14602792
     atom   19 type  4   force =    35.75029841   -0.94980560   25.32896174
     atom   20 type  4   force =    35.87056530    1.03889775  -25.42015560
     atom   21 type  4   force =   -35.63134787   -0.93697339   25.39520447
     atom   22 type  4   force =   -35.05756513    1.47544265  -26.45994538
     atom   23 type  5   force =    -5.19247542   -0.57592706   -1.06776341
     The core correction contribution to forces
     atom    1 type  1   force =     0.00102432    0.00106191   -0.00043077
     atom    2 type  1   force =    -0.01180846   -0.00172587    0.00020756
     atom    3 type  1   force =    -0.01251835    0.00211576   -0.00109885
     atom    4 type  1   force =     0.01291205   -0.00137293    0.00260060
     atom    5 type  1   force =     0.01478170   -0.00004846    0.00090943
     atom    6 type  2   force =    -0.00047046    0.00242750    0.00268536
     atom    7 type  2   force =     0.00089266   -0.00447483   -0.00252249
     atom    8 type  3   force =    -0.03111132    0.00096768    0.00028009
     atom    9 type  3   force =     0.02199480   -0.00305937   -0.00578040
     atom   10 type  3   force =    -0.02201139    0.00928302   -0.01613013
     atom   11 type  3   force =    -0.02367254    0.00912368    0.01793233
     atom   12 type  3   force =    -0.02149306   -0.00974196   -0.01528307
     atom   13 type  3   force =    -0.02074380   -0.01012178    0.01590268
     atom   14 type  3   force =     0.02130805    0.00911691   -0.01637264
     atom   15 type  3   force =     0.02435913    0.00931235    0.01530986
     atom   16 type  3   force =     0.02116226   -0.00911227   -0.01658798
     atom   17 type  3   force =     0.02436398   -0.00942317    0.01289450
     atom   18 type  4   force =     0.00012361   -0.00295238    0.00286950
     atom   19 type  4   force =    -0.00958451   -0.00001093   -0.00969109
     atom   20 type  4   force =    -0.00916038    0.00077668    0.00916608
     atom   21 type  4   force =     0.00959027   -0.00064100   -0.00957704
     atom   22 type  4   force =     0.00863008    0.00046121    0.00972394
     atom   23 type  5   force =     0.00000000    0.00000000    0.00000000
     The Hubbard contrib.    to forces
     atom    1 type  1   force =     0.00000000    0.00000000    0.00000000
     atom    2 type  1   force =     0.00000000    0.00000000    0.00000000
     atom    3 type  1   force =     0.00000000    0.00000000    0.00000000
     atom    4 type  1   force =     0.00000000    0.00000000    0.00000000
     atom    5 type  1   force =     0.00000000    0.00000000    0.00000000
     atom    6 type  2   force =     0.00000000    0.00000000    0.00000000
     atom    7 type  2   force =     0.00000000    0.00000000    0.00000000
     atom    8 type  3   force =     0.00000000    0.00000000    0.00000000
     atom    9 type  3   force =     0.00000000    0.00000000    0.00000000
     atom   10 type  3   force =     0.00000000    0.00000000    0.00000000
     atom   11 type  3   force =     0.00000000    0.00000000    0.00000000
     atom   12 type  3   force =     0.00000000    0.00000000    0.00000000
     atom   13 type  3   force =     0.00000000    0.00000000    0.00000000
     atom   14 type  3   force =     0.00000000    0.00000000    0.00000000
     atom   15 type  3   force =     0.00000000    0.00000000    0.00000000
     atom   16 type  3   force =     0.00000000    0.00000000    0.00000000
     atom   17 type  3   force =     0.00000000    0.00000000    0.00000000
     atom   18 type  4   force =     0.00000000    0.00000000    0.00000000
     atom   19 type  4   force =     0.00000000    0.00000000    0.00000000
     atom   20 type  4   force =     0.00000000    0.00000000    0.00000000
     atom   21 type  4   force =     0.00000000    0.00000000    0.00000000
     atom   22 type  4   force =     0.00000000    0.00000000    0.00000000
     atom   23 type  5   force =     0.00000000    0.00000000    0.00000000
     The SCF correction term to forces
     atom    1 type  1   force =    -0.00823650    0.00556984   -0.02122563
     atom    2 type  1   force =     0.00537898   -0.00215920   -0.01423691
     atom    3 type  1   force =     0.00442001    0.00217705   -0.01507361
     atom    4 type  1   force =    -0.00925629    0.00113357   -0.02026166
     atom    5 type  1   force =    -0.01237329    0.00420471   -0.02267836
     atom    6 type  2   force =     0.00352373   -0.00232926    0.00087670
     atom    7 type  2   force =    -0.01517864   -0.00864432   -0.02588105
     atom    8 type  3   force =     0.00644277   -0.00074464   -0.01044506
     atom    9 type  3   force =    -0.02904169   -0.01938745   -0.04480401
     atom   10 type  3   force =     0.00612607   -0.01977448    0.00870857
     atom   11 type  3   force =    -0.00708406    0.00140794   -0.00271866
     atom   12 type  3   force =     0.00679180    0.01877350    0.01114540
     atom   13 type  3   force =    -0.00979258    0.00061049   -0.00398014
     atom   14 type  3   force =    -0.01672854   -0.01271913    0.01724249
     atom   15 type  3   force =    -0.01353439    0.00559972   -0.00776937
     atom   16 type  3   force =    -0.01950018    0.01550662    0.01666793
     atom   17 type  3   force =    -0.01051999   -0.00327189   -0.00667871
     atom   18 type  4   force =    -0.00130285    0.00427055   -0.00124976
     atom   19 type  4   force =    -0.00279598   -0.00046807    0.01237489
     atom   20 type  4   force =    -0.01218834   -0.00115322   -0.00847467
     atom   21 type  4   force =    -0.00431695   -0.00243482    0.02592871
     atom   22 type  4   force =     0.01105502    0.00565413   -0.01907694
     atom   23 type  5   force =     0.00213023    0.00072448    0.00282884

     Total force =     0.502025     Total SCF correction =     0.107242
     SCF correction compared to forces is large: reduce conv_thr to get better values


     Computing stress (Cartesian axis) and pressure


     negative rho (up, down):  9.089E-01 9.089E-01
          total   stress  (Ry/bohr**3)                   (kbar)     P=       84.74
   0.00064313   0.00000338   0.00001368           94.61        0.50        2.01
   0.00000338   0.00068403   0.00000330            0.50      100.62        0.49
   0.00001368   0.00000330   0.00040103            2.01        0.49       58.99


     Entering Dynamics:    iteration =     2
                           time      =   0.0004 pico-seconds


ATOMIC_POSITIONS (angstrom)
Hf            2.6701255415        2.8272287761        6.6041530594
Hf            1.2531028917        1.2863915643        5.0586546402
Hf            1.2555998645        7.3899144109        5.0882567799
Hf            4.0871483576        1.2863914532        5.0586542019
Hf            4.0846517410        7.3899149039        5.0882563393
Nb            2.6701238454        2.7970350981        3.5157727559
Nb            2.6701213189        5.8764895421        6.6351833984
Ta            1.2094866007        4.3410374081        5.0713139509
Ta            4.1307648543        4.3410346710        5.0713132016
Ta            1.3073758036        1.3142280477        2.0589608940
Ta            1.3029116492        1.3084961771        8.0947740701
Ta            1.3041328845        7.3759389312        2.0464193566
Ta            1.3078359387        7.3651951821        8.0861979334
Ta            4.0328755995        1.3142281739        2.0589609730
Ta            4.0373397078        1.3084955882        8.0947744790
Ta            4.0361182730        7.3759390134        2.0464197575
Ta            4.0324158219        7.3651968628        8.0861978644
Zr            2.6701253553        5.8664010636        3.5275705248
Zr            1.2439311000        4.3221857461        2.0001620858
Zr            1.2404822995        4.3542339152        8.1499703762
Zr            4.0963202020        4.3221852340        2.0001619002
Zr            4.0997707519        4.3542315344        8.1499702027
H             4.9220848056        5.0254405064        6.2593516688


     kinetic energy (Ekin) =           8.08566911 Ry
     temperature           =       38685.64188370 K 
     Ekin + Etot (const)   =       -2934.99841860 Ry
     Ions kinetic stress =          142.80 (kbar)
                                    107.10          92.74         160.66
                                     92.74          80.31         139.12
                                    160.66         139.12         241.00



     Linear momentum :   -0.0000000000    0.0000000000   -0.0000000000

     Writing config-only to output data dir outdir/pwscf.save/
     NEW-OLD atomic charge density approx. for the potential

     Check: negative core charge=   -0.000002

     negative rho (up, down):  9.088E-01 9.088E-01
     Generating pointlists ...
     new r_m :   0.1076 (alat units)  1.8993 (a.u.) for type    2
     new r_m :   0.0699 (alat units)  1.2340 (a.u.) for type    3
     new r_m :   0.0699 (alat units)  1.2340 (a.u.) for type    5

     total cpu time spent up to now is      510.6 secs

     Self-consistent Calculation

     iteration #  1     ecut=   120.00 Ry     beta= 0.70
     Davidson diagonalization with overlap
     c_bands:  2 eigenvalues not converged
     c_bands:  2 eigenvalues not converged
     ethr =  1.00E-06,  avg # of iterations = 20.0

     negative rho (up, down):  9.092E-01 9.092E-01

     total cpu time spent up to now is      550.4 secs

     total energy              =   -2943.01521634 Ry
     estimated scf accuracy    <       0.21265203 Ry

     total magnetization       =    -0.03 Bohr mag/cell
     absolute magnetization    =     0.03 Bohr mag/cell

     iteration #  2     ecut=   120.00 Ry     beta= 0.70
     Davidson diagonalization with overlap
     ethr =  7.68E-05,  avg # of iterations =  2.0

     negative rho (up, down):  9.090E-01 9.090E-01

     total cpu time spent up to now is      579.9 secs

     total energy              =   -2943.03137044 Ry
     estimated scf accuracy    <       0.13213251 Ry

     total magnetization       =    -0.03 Bohr mag/cell
     absolute magnetization    =     0.03 Bohr mag/cell

     iteration #  3     ecut=   120.00 Ry     beta= 0.70
     Davidson diagonalization with overlap
     ethr =  4.77E-05,  avg # of iterations =  1.0

     negative rho (up, down):  9.089E-01 9.089E-01

     total cpu time spent up to now is      613.9 secs

     total energy              =   -2943.03867936 Ry
     estimated scf accuracy    <       0.00431218 Ry

     total magnetization       =    -0.03 Bohr mag/cell
     absolute magnetization    =     0.03 Bohr mag/cell

     iteration #  4     ecut=   120.00 Ry     beta= 0.70
     Davidson diagonalization with overlap
     ethr =  1.56E-06,  avg # of iterations =  2.0

     negative rho (up, down):  9.088E-01 9.088E-01

     total cpu time spent up to now is      644.1 secs

     total energy              =   -2943.03889109 Ry
     estimated scf accuracy    <       0.00127178 Ry

     total magnetization       =    -0.03 Bohr mag/cell
     absolute magnetization    =     0.03 Bohr mag/cell

     iteration #  5     ecut=   120.00 Ry     beta= 0.70
     Davidson diagonalization with overlap
     ethr =  4.59E-07,  avg # of iterations =  2.0

     negative rho (up, down):  9.087E-01 9.087E-01

     Magnetic moment per site  (integrated on atomic sphere of radius R)
     atom   1 (R=0.112)  charge=  9.4632   -0.0000
     atom   2 (R=0.112)  charge=  9.0567   -0.0000
     atom   3 (R=0.112)  charge=  9.0566   -0.0001
     atom   4 (R=0.112)  charge=  9.0596   -0.0000
     atom   5 (R=0.112)  charge=  9.0641   -0.0002
     atom   6 (R=0.108)  charge= 10.1751   -0.0000
     atom   7 (R=0.108)  charge= 10.1801   -0.0001
     atom   8 (R=0.070)  charge=  5.8308   -0.0000
     atom   9 (R=0.070)  charge=  5.8502   -0.0000
     atom  10 (R=0.070)  charge=  5.8167   -0.0002
     atom  11 (R=0.070)  charge=  5.8139   -0.0001
     atom  12 (R=0.070)  charge=  5.8153   -0.0003
     atom  13 (R=0.070)  charge=  5.8157   -0.0001
     atom  14 (R=0.070)  charge=  5.8143   -0.0002
     atom  15 (R=0.070)  charge=  5.8116   -0.0002
     atom  16 (R=0.070)  charge=  5.8133   -0.0005
     atom  17 (R=0.070)  charge=  5.8141   -0.0003
     atom  18 (R=0.091)  charge=  7.7804    0.0000
     atom  19 (R=0.091)  charge=  7.5886   -0.0005
     atom  20 (R=0.091)  charge=  7.5851    0.0000
     atom  21 (R=0.091)  charge=  7.5870   -0.0007
     atom  22 (R=0.091)  charge=  7.5864   -0.0002
     atom  23 (R=0.070)  charge=  0.9201   -0.0000

     total cpu time spent up to now is      661.4 secs

     End of self-consistent calculation

 ------ SPIN UP ------------


          k = 0.0000 0.0000 0.0000 ( 61588 PWs)   bands (ev):

   -60.7689 -60.7629 -60.7161 -60.7159 -60.6888 -60.6666 -60.6410 -60.6254
   -60.5233 -60.2797 -54.3749 -54.3290 -54.2399 -54.1946 -52.6806 -46.3195
   -46.2471 -41.6098 -41.5897 -41.5258 -41.4818 -39.7869 -27.7641 -27.7583
   -27.6750 -27.6742 -27.5768 -27.5688 -27.4473 -27.4338 -27.3687 -27.3242
   -27.3003 -27.2534 -27.2514 -27.2251 -27.2087 -27.1567 -27.1498 -27.1317
   -27.0907 -27.0179 -26.9624 -26.9403 -26.9364 -26.9277 -26.9149 -26.9081
   -26.8679 -26.8631 -26.8372 -26.8240 -24.1571 -23.9480 -23.6508 -23.5624
   -23.3006 -23.1910 -23.1611 -23.0568 -22.9185 -22.8597 -22.8285 -22.6103
   -22.5320 -22.4650 -22.4015 -22.3907 -22.2626 -22.2319 -21.7423 -21.6763
   -21.6096 -20.1603 -19.9105 -19.8041 -19.7713 -19.6176 -19.5807 -19.5641
   -19.5573 -19.5220 -19.5134 -19.3336 -19.3286 -18.1324 -17.9281 -17.7985
     0.8690   1.9309   2.9499   3.1456   3.3252   3.4025   3.4893   3.6433
     3.6991   3.7598   3.9292   4.0244   4.2385   4.5078   4.5934   4.7194
     4.7545   4.9367   5.0643   5.1260   5.2011   5.2746   5.3073   5.3148
     5.4039   5.5623   5.5813   5.7208   5.7459   5.7673   5.7885   5.8575
     5.9688   6.0769   6.1676   6.2255   6.2862   6.3565   6.3730   6.3844
     6.4664   6.6085   6.6839   6.7115   6.9282   7.0008   7.0404   7.1019
     7.1323   7.1672   7.2736   7.3102   7.4016   7.5153   7.5298   7.5780
     7.6318   7.7265   7.9098   7.9982   8.0592   8.1091   8.1376   8.1669
     8.2617   8.3259   8.3518   8.3763   8.5115   8.5504   8.6141   8.7475
     8.8306   8.9299   8.9623   9.0794   9.1744   9.2852   9.3023

 ------ SPIN DOWN ----------


          k = 0.0000 0.0000 0.0000 ( 61588 PWs)   bands (ev):

   -60.7691 -60.7635 -60.7167 -60.7163 -60.6895 -60.6670 -60.6416 -60.6257
   -60.5233 -60.2797 -54.3750 -54.3291 -54.2399 -54.1946 -52.6807 -46.3196
   -46.2471 -41.6100 -41.5905 -41.5259 -41.4826 -39.7869 -27.7647 -27.7591
   -27.6758 -27.6747 -27.5773 -27.5694 -27.4483 -27.4342 -27.3689 -27.3246
   -27.3007 -27.2539 -27.2520 -27.2256 -27.2092 -27.1571 -27.1503 -27.1320
   -27.0908 -27.0180 -26.9626 -26.9409 -26.9372 -26.9284 -26.9157 -26.9082
   -26.8684 -26.8640 -26.8381 -26.8243 -24.1572 -23.9480 -23.6509 -23.5625
   -23.3006 -23.1911 -23.1611 -23.0569 -22.9185 -22.8598 -22.8286 -22.6103
   -22.5320 -22.4650 -22.4016 -22.3908 -22.2627 -22.2320 -21.7423 -21.6763
   -21.6096 -20.1611 -19.9105 -19.8048 -19.7721 -19.6179 -19.5808 -19.5648
   -19.5577 -19.5225 -19.5141 -19.3338 -19.3297 -18.1325 -17.9281 -17.7987
     0.8688   1.9305   2.9489   3.1454   3.3249   3.4020   3.4885   3.6430
     3.6988   3.7593   3.9282   4.0239   4.2380   4.5075   4.5930   4.7186
     4.7541   4.9362   5.0634   5.1256   5.2004   5.2741   5.3067   5.3143
     5.4029   5.5619   5.5808   5.7203   5.7455   5.7667   5.7880   5.8570
     5.9683   6.0763   6.1669   6.2250   6.2858   6.3558   6.3724   6.3839
     6.4657   6.6080   6.6833   6.7110   6.9274   7.0000   7.0383   7.0999
     7.1304   7.1663   7.2714   7.3092   7.3988   7.5131   7.5286   7.5770
     7.6306   7.7258   7.9091   7.9973   8.0581   8.1076   8.1369   8.1658
     8.2593   8.3254   8.3509   8.3746   8.5107   8.5495   8.6133   8.7467
     8.8299   8.9279   8.9615   9.0788   9.1739   9.2849   9.3020

     the Fermi energy is     7.2714 ev

!    total energy              =   -2943.03874517 Ry
     estimated scf accuracy    <       0.00027695 Ry
     smearing contrib. (-TS)   =      -0.10225692 Ry
     internal energy E=F+TS    =   -2942.93648825 Ry

     total magnetization       =    -0.03 Bohr mag/cell
     absolute magnetization    =     0.03 Bohr mag/cell

     convergence has been achieved in   5 iterations

     negative rho (up, down):  9.087E-01 9.087E-01

     Forces acting on atoms (cartesian axes, Ry/au):

     atom    1 type  1   force =    -0.00044237   -0.02416867   -0.00336666
     atom    2 type  1   force =    -0.11675920   -0.01237329   -0.00741861
     atom    3 type  1   force =    -0.11122750    0.00944879   -0.00217583
     atom    4 type  1   force =     0.11626007   -0.01211795   -0.01144726
     atom    5 type  1   force =     0.11298175    0.01571178   -0.00641261
     atom    6 type  2   force =    -0.00562922   -0.02097260    0.00783119
     atom    7 type  2   force =    -0.02218225    0.01182173   -0.01288891
     atom    8 type  3   force =    -0.10913641    0.00802568   -0.00122146
     atom    9 type  3   force =     0.03220848   -0.09009881   -0.12833646
     atom   10 type  3   force =    -0.02157131   -0.03180876   -0.05491628
     atom   11 type  3   force =    -0.02272073   -0.03264340    0.05794570
     atom   12 type  3   force =    -0.01888506    0.03682558   -0.05276036
     atom   13 type  3   force =    -0.00429894    0.02885833    0.06554795
     atom   14 type  3   force =     0.02149997   -0.02998798   -0.05447760
     atom   15 type  3   force =     0.02011109   -0.03804529    0.05993870
     atom   16 type  3   force =     0.01827329    0.03645646   -0.04842691
     atom   17 type  3   force =     0.00657906    0.04404842    0.06395351
     atom   18 type  4   force =    -0.00004953    0.02835450   -0.00845309
     atom   19 type  4   force =    -0.13000791   -0.00458957   -0.11392563
     atom   20 type  4   force =    -0.12892244    0.00653253    0.11609361
     atom   21 type  4   force =     0.13108120   -0.00615944   -0.11692645
     atom   22 type  4   force =     0.13852474    0.00111390    0.10686040
     atom   23 type  5   force =     0.09431323    0.07576802    0.14498310
     The non-local contrib.  to forces
     atom    1 type  1   force =     0.00282651   -0.01347639    0.02451058
     atom    2 type  1   force =    -0.24614253   -0.16285220    0.01357334
     atom    3 type  1   force =    -0.24096643    0.15390120   -0.02096721
     atom    4 type  1   force =     0.24552855   -0.16062563    0.02396016
     atom    5 type  1   force =     0.26115136    0.12996270    0.00184553
     atom    6 type  2   force =     0.00918756   -0.05042792   -0.06285412
     atom    7 type  2   force =     0.00390905    0.08636789    0.06656275
     atom    8 type  3   force =    -0.25413515    0.00659954    0.00178853
     atom    9 type  3   force =     0.17763975   -0.01855773   -0.04610592
     atom   10 type  3   force =    -0.21077600    0.00216575   -0.20726647
     atom   11 type  3   force =    -0.21804104    0.00853083    0.19446463
     atom   12 type  3   force =    -0.20270737   -0.02084168   -0.17495325
     atom   13 type  3   force =    -0.20101039   -0.00819904    0.20201448
     atom   14 type  3   force =     0.21251541    0.00689347   -0.21575778
     atom   15 type  3   force =     0.22178936    0.00434488    0.18201667
     atom   16 type  3   force =     0.19544900   -0.01999316   -0.18624174
     atom   17 type  3   force =     0.23045496   -0.02490091    0.16245842
     atom   18 type  4   force =    -0.00308908    0.05927755   -0.06034764
     atom   19 type  4   force =     0.05908468    0.01033201    0.07640807
     atom   20 type  4   force =     0.05121330   -0.01973408   -0.06651041
     atom   21 type  4   force =    -0.06214033    0.02239858    0.07229989
     atom   22 type  4   force =    -0.04941475   -0.01302329   -0.07144255
     atom   23 type  5   force =    -0.04484029   -0.03504098   -0.03750095
     The ionic contribution  to forces
     atom    1 type  1   force =    -0.41063266   -4.93908041   14.02081982
     atom    2 type  1   force =   -39.73602257   -6.15713992    0.71585516
     atom    3 type  1   force =   -39.76392772    6.21660324   -0.80308863
     atom    4 type  1   force =    39.56533807   -6.27024475    0.64011015
     atom    5 type  1   force =    39.38017990    6.73071543   -1.07237934
     atom    6 type  2   force =    -0.16996436   -3.66691982  -14.06481618
     atom    7 type  2   force =    -1.03939851    3.95083756   14.05810331
     atom    8 type  3   force =   -52.31818504    0.00224802   -0.20647815
     atom    9 type  3   force =    50.64813042   -1.15217989   -2.21721913
     atom   10 type  3   force =   -36.07731993   -2.09931485  -23.06393870
     atom   11 type  3   force =   -35.19145153   -0.87612644   22.11348374
     atom   12 type  3   force =   -35.27235203    0.82771344  -22.12925050
     atom   13 type  3   force =   -36.14030126    2.27545559   23.12665146
     atom   14 type  3   force =    36.00110141   -2.11766945  -23.09832531
     atom   15 type  3   force =    35.02616752   -0.96759827   22.20943416
     atom   16 type  3   force =    35.17247606    0.87457575  -22.19233229
     atom   17 type  3   force =    35.81315849    2.62425859   23.41796512
     atom   18 type  4   force =    -0.25160894    4.42602682  -14.12975676
     atom   19 type  4   force =   -35.93384053    0.93637484  -25.53618912
     atom   20 type  4   force =   -36.03917307   -1.00471241   25.61475749
     atom   21 type  4   force =    35.81677579    0.91113089  -25.63914186
     atom   22 type  4   force =    35.34172072   -1.36964867   26.64912650
     atom   23 type  5   force =     5.57912979    0.84469473    1.58660907
     The local contribution  to forces
     atom    1 type  1   force =     0.40442208    4.93206155  -14.06565537
     atom    2 type  1   force =    39.87776515    6.31100781   -0.75267141
     atom    3 type  1   force =    39.90678201   -6.36406655    0.80855220
     atom    4 type  1   force =   -39.71138078    6.42254603   -0.69313454
     atom    5 type  1   force =   -39.54685137   -6.84567049    1.04810668
     atom    6 type  2   force =     0.15398197    3.69346628   14.12988113
     atom    7 type  2   force =     1.00741620   -4.02633331  -14.15675035
     atom    8 type  3   force =    52.49647462   -0.00236954    0.18997044
     atom    9 type  3   force =   -50.82200113    1.08322719    2.12551319
     atom   10 type  3   force =    36.29037238    2.05206154   23.24089679
     atom   11 type  3   force =    35.41104804    0.83016053  -22.26994334
     atom   12 type  3   force =    35.47953948   -0.75425268   22.27443645
     atom   13 type  3   force =    36.35565751   -2.23277467  -23.28150544
     atom   14 type  3   force =   -36.21858069    2.06549012   23.28538982
     atom   15 type  3   force =   -35.25677124    0.91825348  -22.35040179
     atom   16 type  3   force =   -35.37535167   -0.80308249   22.35599336
     atom   17 type  3   force =   -36.06438664   -2.54674888  -23.53479804
     atom   18 type  4   force =     0.25455455   -4.45404115   14.17615240
     atom   19 type  4   force =    35.75267212   -0.95244557   25.36627724
     atom   20 type  4   force =    35.86627581    1.03020196  -25.44788241
     atom   21 type  4   force =   -35.63556231   -0.93918586   25.47256833
     atom   22 type  4   force =   -35.17269067    1.38028070  -26.48267431
     atom   23 type  5   force =    -5.44179381   -0.73425887   -1.40808774
     The core correction contribution to forces
     atom    1 type  1   force =     0.00115623    0.00085188   -0.00069299
     atom    2 type  1   force =    -0.01178391   -0.00188752    0.00033914
     atom    3 type  1   force =    -0.01255031    0.00218398   -0.00097459
     atom    4 type  1   force =     0.01270957   -0.00161841    0.00228837
     atom    5 type  1   force =     0.01424926    0.00012186    0.00031126
     atom    6 type  2   force =    -0.00032481    0.00274246    0.00289366
     atom    7 type  2   force =     0.00067246   -0.00446511   -0.00270654
     atom    8 type  3   force =    -0.03056804    0.00077466    0.00022386
     atom    9 type  3   force =     0.01937451   -0.00410191   -0.00844560
     atom   10 type  3   force =    -0.02181193    0.00925847   -0.01601216
     atom   11 type  3   force =    -0.02426025    0.00920162    0.01809965
     atom   12 type  3   force =    -0.02128593   -0.01006193   -0.01524710
     atom   13 type  3   force =    -0.02058177   -0.01029007    0.01587714
     atom   14 type  3   force =     0.02123472    0.00899380   -0.01666208
     atom   15 type  3   force =     0.02433816    0.00923532    0.01522005
     atom   16 type  3   force =     0.02102815   -0.00906890   -0.01669580
     atom   17 type  3   force =     0.02414108   -0.00924872    0.01417634
     atom   18 type  4   force =     0.00026625   -0.00312130    0.00292239
     atom   19 type  4   force =    -0.00960909   -0.00002561   -0.00977204
     atom   20 type  4   force =    -0.00924904    0.00074544    0.00921487
     atom   21 type  4   force =     0.00970183   -0.00061968   -0.00955809
     atom   22 type  4   force =     0.00897455    0.00056280    0.00942721
     atom   23 type  5   force =     0.00000000    0.00000000    0.00000000
     The Hubbard contrib.    to forces
     atom    1 type  1   force =     0.00000000    0.00000000    0.00000000
     atom    2 type  1   force =     0.00000000    0.00000000    0.00000000
     atom    3 type  1   force =     0.00000000    0.00000000    0.00000000
     atom    4 type  1   force =     0.00000000    0.00000000    0.00000000
     atom    5 type  1   force =     0.00000000    0.00000000    0.00000000
     atom    6 type  2   force =     0.00000000    0.00000000    0.00000000
     atom    7 type  2   force =     0.00000000    0.00000000    0.00000000
     atom    8 type  3   force =     0.00000000    0.00000000    0.00000000
     atom    9 type  3   force =     0.00000000    0.00000000    0.00000000
     atom   10 type  3   force =     0.00000000    0.00000000    0.00000000
     atom   11 type  3   force =     0.00000000    0.00000000    0.00000000
     atom   12 type  3   force =     0.00000000    0.00000000    0.00000000
     atom   13 type  3   force =     0.00000000    0.00000000    0.00000000
     atom   14 type  3   force =     0.00000000    0.00000000    0.00000000
     atom   15 type  3   force =     0.00000000    0.00000000    0.00000000
     atom   16 type  3   force =     0.00000000    0.00000000    0.00000000
     atom   17 type  3   force =     0.00000000    0.00000000    0.00000000
     atom   18 type  4   force =     0.00000000    0.00000000    0.00000000
     atom   19 type  4   force =     0.00000000    0.00000000    0.00000000
     atom   20 type  4   force =     0.00000000    0.00000000    0.00000000
     atom   21 type  4   force =     0.00000000    0.00000000    0.00000000
     atom   22 type  4   force =     0.00000000    0.00000000    0.00000000
     atom   23 type  5   force =     0.00000000    0.00000000    0.00000000
     The SCF correction term to forces
     atom    1 type  1   force =     0.00144524   -0.00448796    0.01662532
     atom    2 type  1   force =    -0.00091558   -0.00146412    0.01445916
     atom    3 type  1   force =    -0.00090527    0.00086427    0.01327641
     atom    4 type  1   force =     0.00372443   -0.00213783    0.01430260
     atom    5 type  1   force =     0.00391236    0.00061962    0.01467727
     atom    6 type  2   force =     0.00115018    0.00020375    0.00170072
     atom    7 type  2   force =     0.00487833    0.00545205    0.02087594
     atom    8 type  3   force =    -0.00306304    0.00081035    0.01224786
     atom    9 type  3   force =     0.00872470    0.00155088    0.01689502
     atom   10 type  3   force =    -0.00237605    0.00405768   -0.00962172
     atom   11 type  3   force =    -0.00035618   -0.00437258    0.00081503
     atom   12 type  3   force =    -0.00241944   -0.00569423   -0.00877194
     atom   13 type  3   force =     0.00159675    0.00470386    0.00148432
     atom   14 type  3   force =     0.00488889    0.00634143   -0.01014825
     atom   15 type  3   force =     0.00424706   -0.00224334    0.00264363
     atom   16 type  3   force =     0.00433153   -0.00593739   -0.01017643
     atom   17 type  3   force =     0.00287093    0.00072570    0.00312568
     atom   18 type  4   force =    -0.00051254    0.00024993    0.00155053
     atom   19 type  4   force =     0.00134467    0.00121209   -0.01167576
     atom   20 type  4   force =     0.00167033    0.00006898    0.00548808
     atom   21 type  4   force =     0.00196598    0.00015398   -0.01412072
     atom   22 type  4   force =     0.00959466    0.00297971    0.00139756
     atom   23 type  5   force =     0.00147732    0.00041047    0.00293673

     Total force =     0.538229     Total SCF correction =     0.057468
     SCF correction compared to forces is large: reduce conv_thr to get better values


     Computing stress (Cartesian axis) and pressure


     negative rho (up, down):  9.087E-01 9.087E-01
          total   stress  (Ry/bohr**3)                   (kbar)     P=       87.97
   0.00066860   0.00001453   0.00004005           98.35        2.14        5.89
   0.00001453   0.00068715   0.00002698            2.14      101.08        3.97
   0.00004005   0.00002698   0.00043833            5.89        3.97       64.48


     Entering Dynamics:    iteration =     3
[...]
     3.6855   3.7575   3.9332   4.0424   4.2018   4.5073   4.5741   4.7182
     4.7814   4.9292   5.0712   5.1235   5.1496   5.2817   5.3108   5.3380
     5.4119   5.5656   5.5837   5.7230   5.7341   5.7714   5.8022   5.8214
     5.9673   6.0685   6.1580   6.2199   6.2905   6.3382   6.3829   6.4155
     6.4538   6.5914   6.6770   6.7244   6.9292   6.9626   7.0477   7.0935
     7.1244   7.1622   7.2884   7.3200   7.3788   7.5200   7.5242   7.6261
     7.6585   7.8421   7.9117   7.9907   8.1111   8.1209   8.1494   8.2044
     8.2470   8.3212   8.3483   8.3946   8.5135   8.5258   8.6497   8.7373
     8.8340   8.9284   8.9993   9.0816   9.1570   9.2418   9.2875

     the Fermi energy is     7.2728 ev

!    total energy              =   -2943.08886807 Ry
     estimated scf accuracy    <       0.00033272 Ry
     smearing contrib. (-TS)   =      -0.09836966 Ry
     internal energy E=F+TS    =   -2942.99049841 Ry

     total magnetization       =    -0.00 Bohr mag/cell
     absolute magnetization    =     0.00 Bohr mag/cell

     convergence has been achieved in   5 iterations

     negative rho (up, down):  9.089E-01 9.089E-01

     Forces acting on atoms (cartesian axes, Ry/au):

     atom    1 type  1   force =    -0.00453957   -0.02613743    0.00000078
     atom    2 type  1   force =    -0.11748368   -0.01250070    0.00080357
     atom    3 type  1   force =    -0.11041721    0.00975894    0.00679237
     atom    4 type  1   force =     0.11766153   -0.01691144   -0.00145445
     atom    5 type  1   force =     0.11112568    0.01255775    0.00385252
     atom    6 type  2   force =    -0.01330528   -0.02029590   -0.00090772
     atom    7 type  2   force =    -0.01558332    0.00423442   -0.01520472
     atom    8 type  3   force =    -0.10588843    0.00292463   -0.00656118
     atom    9 type  3   force =     0.12875391    0.01205153    0.02704779
     atom   10 type  3   force =    -0.02147516   -0.03043000   -0.05983609
     atom   11 type  3   force =    -0.01700297   -0.03421581    0.05277573
     atom   12 type  3   force =    -0.01880663    0.03459228   -0.05442588
     atom   13 type  3   force =    -0.01125879    0.02719497    0.05893599
     atom   14 type  3   force =     0.02316949   -0.03018243   -0.05825628
     atom   15 type  3   force =     0.02186742   -0.03722696    0.05757408
     atom   16 type  3   force =     0.01863995    0.03564741   -0.05236162
     atom   17 type  3   force =     0.02202440    0.03224249    0.05473856
     atom   18 type  4   force =    -0.00380802    0.02831821   -0.00869395
     atom   19 type  4   force =    -0.12666789   -0.00453249   -0.11581223
     atom   20 type  4   force =    -0.12519387    0.01025275    0.11234063
     atom   21 type  4   force =     0.12494195   -0.00680322   -0.11587489
     atom   22 type  4   force =     0.13463608   -0.00210068    0.12513819
     atom   23 type  5   force =    -0.01138960    0.01156169   -0.01061119
     The non-local contrib.  to forces
     atom    1 type  1   force =     0.00215694   -0.01431001    0.02578208
     atom    2 type  1   force =    -0.24771635   -0.16387652    0.01263545
     atom    3 type  1   force =    -0.23928108    0.15533511   -0.01842507
     atom    4 type  1   force =     0.24565771   -0.16140604    0.02516646
     atom    5 type  1   force =     0.27241068    0.11931982    0.01749772
     atom    6 type  2   force =     0.00438143   -0.03745956   -0.04882667
     atom    7 type  2   force =    -0.01944171    0.07636998    0.05620308
     atom    8 type  3   force =    -0.26625740    0.00745402    0.00521636
     atom    9 type  3   force =     0.26795601    0.03355328    0.04047306
     atom   10 type  3   force =    -0.20852628    0.00674736   -0.20280529
     atom   11 type  3   force =    -0.21088485    0.00137383    0.19618502
     atom   12 type  3   force =    -0.20625935   -0.02140049   -0.17450354
     atom   13 type  3   force =    -0.20543058   -0.00601236    0.20132141
     atom   14 type  3   force =     0.21066054    0.00491878   -0.20935533
     atom   15 type  3   force =     0.22572769    0.00701525    0.18579887
     atom   16 type  3   force =     0.19631514   -0.01727119   -0.18208549
     atom   17 type  3   force =     0.25101395   -0.05086685    0.14147391
     atom   18 type  4   force =     0.00203033    0.05093427   -0.05691482
     atom   19 type  4   force =     0.05956650    0.00639672    0.07438155
     atom   20 type  4   force =     0.04594143   -0.02021683   -0.06196539
     atom   21 type  4   force =    -0.05885677    0.01972931    0.07715020
     atom   22 type  4   force =    -0.05579608   -0.01844055   -0.08410216
     atom   23 type  5   force =    -0.02794949   -0.01260582    0.01237704
     The ionic contribution  to forces
     atom    1 type  1   force =    -0.19697517   -4.69726607   14.10855362
     atom    2 type  1   force =   -39.72291214   -6.16443239    0.74915897
     atom    3 type  1   force =   -39.67534366    6.16486548   -0.78000399
     atom    4 type  1   force =    39.60703624   -6.29524866    0.74680630
     atom    5 type  1   force =    39.39290255    6.33407424   -1.02422264
     atom    6 type  2   force =    -0.39837419   -3.89144357  -14.23295419
     atom    7 type  2   force =    -0.53937849    3.57273145   13.75729919
     atom    8 type  3   force =   -52.32647790    0.07599877   -0.07344569
     atom    9 type  3   force =    51.45523758    0.04249248   -0.42796798
     atom   10 type  3   force =   -36.06767966   -2.09835167  -23.02788044
     atom   11 type  3   force =   -35.13739893   -0.83306749   22.04938469
     atom   12 type  3   force =   -35.24703750    0.81197455  -22.07001268
     atom   13 type  3   force =   -36.07218845    2.23760836   23.04352939
     atom   14 type  3   force =    35.98832880   -2.15144651  -23.07273185
     atom   15 type  3   force =    34.98735795   -0.85769537   22.09478639
     atom   16 type  3   force =    35.16164987    0.85432084  -22.08155722
     atom   17 type  3   force =    35.53797581    2.73782616   23.32528793
     atom   18 type  4   force =    -0.22814097    4.59228810  -14.02599218
     atom   19 type  4   force =   -35.92451931    0.94747187  -25.47186513
     atom   20 type  4   force =   -35.89195307   -1.00655198   25.45866828
     atom   21 type  4   force =    35.81773248    0.96274856  -25.66241377
     atom   22 type  4   force =    34.90632286   -1.67311589   26.08243086
     atom   23 type  5   force =     4.57383530    0.33421872    0.53514214
     The local contribution  to forces
     atom    1 type  1   force =     0.18883992    4.68348530  -14.12488295
     atom    2 type  1   force =    39.86368657    6.31902534   -0.74778388
     atom    3 type  1   force =    39.81601304   -6.31579280    0.82055341
     atom    4 type  1   force =   -39.74693482    6.44038214   -0.76234371
     atom    5 type  1   force =   -39.56915840   -6.44307344    1.02213046
     atom    6 type  2   force =     0.37877173    3.91081516   14.29857746
     atom    7 type  2   force =     0.54022510   -3.63939555  -13.81726798
     atom    8 type  3   force =    52.51741279   -0.07922915    0.07472928
     atom    9 type  3   force =   -51.62588745   -0.06307240    0.42685319
     atom   10 type  3   force =    36.27679481    2.05598417   23.18983453
     atom   11 type  3   force =    35.35113899    0.78448260  -22.21463489
     atom   12 type  3   force =    35.45627409   -0.75264300   22.20873461
     atom   13 type  3   force =    36.28635159   -2.19294010  -23.20789794
     atom   14 type  3   force =   -36.19673542    2.11036668   23.24137069
     atom   15 type  3   force =   -35.21319930    0.80049940  -22.24436752
     atom   16 type  3   force =   -35.36237982   -0.79630956   22.23019084
     atom   17 type  3   force =   -35.78629395   -2.64557208  -23.43106601
     atom   18 type  4   force =     0.22017033   -4.61481773   14.08985067
     atom   19 type  4   force =    35.74791732   -0.95732879   25.29518653
     atom   20 type  4   force =    35.72487492    1.03790795  -25.29912051
     atom   21 type  4   force =   -35.64408741   -0.98792282   25.48176579
     atom   22 type  4   force =   -34.71827765    1.69084473  -25.88968322
     atom   23 type  5   force =    -4.55634844   -0.30969790   -0.55578552
     The core correction contribution to forces
     atom    1 type  1   force =     0.00043584    0.00192337   -0.00125698
     atom    2 type  1   force =    -0.01213239   -0.00205815    0.00006741
     atom    3 type  1   force =    -0.01245832    0.00220733   -0.00156184
     atom    4 type  1   force =     0.01301762   -0.00109283    0.00224015
     atom    5 type  1   force =     0.01535789    0.00053038    0.00221640
     atom    6 type  2   force =    -0.00042122    0.00153460    0.00178567
     atom    7 type  2   force =     0.00168947   -0.00404047   -0.00225720
     atom    8 type  3   force =    -0.03295939    0.00104905    0.00018353
     atom    9 type  3   force =     0.03042483    0.00085254    0.00186357
     atom   10 type  3   force =    -0.02235927    0.00943016   -0.01635395
     atom   11 type  3   force =    -0.02259721    0.00882794    0.01721163
     atom   12 type  3   force =    -0.02123515   -0.00924902   -0.01570063
     atom   13 type  3   force =    -0.02190554   -0.00942006    0.01603125
     atom   14 type  3   force =     0.02123181    0.00981461   -0.01536828
     atom   15 type  3   force =     0.02471197    0.00934555    0.01721006
     atom   16 type  3   force =     0.02185862   -0.00998005   -0.01615175
     atom   17 type  3   force =     0.02293525   -0.00753273    0.01232722
     atom   18 type  4   force =    -0.00010350   -0.00263478    0.00285281
     atom   19 type  4   force =    -0.00962876    0.00018067   -0.00962201
     atom   20 type  4   force =    -0.00883757    0.00076621    0.00899507
     atom   21 type  4   force =     0.00954231   -0.00050840   -0.00992348
     atom   22 type  4   force =     0.00801089   -0.00006720    0.01097528
     atom   23 type  5   force =     0.00000000    0.00000000    0.00000000
     The Hubbard contrib.    to forces
     atom    1 type  1   force =     0.00000000    0.00000000    0.00000000
     atom    2 type  1   force =     0.00000000    0.00000000    0.00000000
     atom    3 type  1   force =     0.00000000    0.00000000    0.00000000
     atom    4 type  1   force =     0.00000000    0.00000000    0.00000000
     atom    5 type  1   force =     0.00000000    0.00000000    0.00000000
     atom    6 type  2   force =     0.00000000    0.00000000    0.00000000
     atom    7 type  2   force =     0.00000000    0.00000000    0.00000000
     atom    8 type  3   force =     0.00000000    0.00000000    0.00000000
     atom    9 type  3   force =     0.00000000    0.00000000    0.00000000
     atom   10 type  3   force =     0.00000000    0.00000000    0.00000000
     atom   11 type  3   force =     0.00000000    0.00000000    0.00000000
     atom   12 type  3   force =     0.00000000    0.00000000    0.00000000
     atom   13 type  3   force =     0.00000000    0.00000000    0.00000000
     atom   14 type  3   force =     0.00000000    0.00000000    0.00000000
     atom   15 type  3   force =     0.00000000    0.00000000    0.00000000
     atom   16 type  3   force =     0.00000000    0.00000000    0.00000000
     atom   17 type  3   force =     0.00000000    0.00000000    0.00000000
     atom   18 type  4   force =     0.00000000    0.00000000    0.00000000
     atom   19 type  4   force =     0.00000000    0.00000000    0.00000000
     atom   20 type  4   force =     0.00000000    0.00000000    0.00000000
     atom   21 type  4   force =     0.00000000    0.00000000    0.00000000
     atom   22 type  4   force =     0.00000000    0.00000000    0.00000000
     atom   23 type  5   force =     0.00000000    0.00000000    0.00000000
     The SCF correction term to forces
     atom    1 type  1   force =     0.00099291   -0.00000728   -0.00701603
     atom    2 type  1   force =     0.00158065   -0.00119623   -0.01209543
     atom    3 type  1   force =     0.00064281    0.00310656   -0.01259118
     atom    4 type  1   force =    -0.00112521    0.00041671   -0.01214470
     atom    5 type  1   force =    -0.00039704    0.00166951   -0.01259047
     atom    6 type  2   force =     0.00232697   -0.00377979   -0.01831103
     atom    7 type  2   force =     0.00131233   -0.00146823   -0.00800286
     atom    8 type  3   force =     0.00238347   -0.00238530   -0.01206571
     atom    9 type  3   force =     0.00101294   -0.00181162   -0.01299509
     atom   10 type  3   force =     0.00028526   -0.00427727   -0.00145199
     atom   11 type  3   force =     0.00272904    0.00413006    0.00580822
     atom   12 type  3   force =    -0.00055871    0.00587299   -0.00176468
     atom   13 type  3   force =     0.00190420   -0.00207812    0.00713082
     atom   14 type  3   force =    -0.00032623   -0.00387324   -0.00099257
     atom   15 type  3   force =    -0.00274088    0.00357097    0.00532523
     atom   16 type  3   force =     0.00118615    0.00485012   -0.00157906
     atom   17 type  3   force =    -0.00361665   -0.00164925    0.00789445
     atom   18 type  4   force =     0.00222580    0.00251109   -0.01731148
     atom   19 type  4   force =    -0.00001364   -0.00129020   -0.00271422
     atom   20 type  4   force =     0.00477043   -0.00168985    0.00694214
     atom   21 type  4   force =     0.00060135   -0.00088712   -0.00127468
     atom   22 type  4   force =    -0.00563392   -0.00135901    0.00669638
     atom   23 type  5   force =    -0.00093697   -0.00039056   -0.00116590

     Total force =     0.492378     Total SCF correction =     0.047493


     Computing stress (Cartesian axis) and pressure


     negative rho (up, down):  9.089E-01 9.089E-01
          total   stress  (Ry/bohr**3)                   (kbar)     P=       81.42
   0.00062181   0.00000895   0.00001299           91.47        1.32        1.91
   0.00000895   0.00065511  -0.00001612            1.32       96.37       -2.37
   0.00001299  -0.00001612   0.00038360            1.91       -2.37       56.43


     Entering Dynamics:    iteration =    20
                           time      =   0.0041 pico-seconds


ATOMIC_POSITIONS (angstrom)
Hf            2.6713466402        2.8279949027        6.6058647822
Hf            1.2528874735        1.2872124905        5.0603004949
Hf            1.2554362500        7.3910028007        5.0899783508
Hf            4.0896190452        1.2872305608        5.0603040276
Hf            4.0870999046        7.3910498847        5.0899635695
Nb            2.6715243455        2.7978247130        3.5178487310
Nb            2.6708978186        5.8777337536        6.6365940358
Ta            1.2093314807        4.3421446124        5.0730345287
Ta            4.1062752097        4.3188242347        5.0326085876
Ta            1.3082007845        1.3148226615        2.0600184793
Ta            1.3037866484        1.3090773317        8.0971030972
Ta            1.3050506542        7.3773386804        2.0474964367
Ta            1.3088873759        7.3665135819        8.0885976431
Ta            4.0342372869        1.3149097428        2.0600092970
Ta            4.0386925104        1.3090790113        8.0971256202
Ta            4.0374489444        7.3772932520        2.0475319219
Ta            4.0336474458        7.3665723662        8.0885610037
Zr            2.6713150592        5.8679322458        3.5290876253
Zr            1.2421773715        4.3230735587        1.9992512007
Zr            1.2387284300        4.3553261916        8.1542406896
Zr            4.1003504206        4.3230568813        1.9991445410
Zr            4.1039130267        4.3552672061        8.1541224630
H             5.4563747736        5.4613861951        7.0765059669


     kinetic energy (Ekin) =           8.09547528 Ry
     temperature           =       38732.55921798 K 
     Ekin + Etot (const)   =       -2934.99339278 Ry
     Ions kinetic stress =          142.97 (kbar)
                                    106.88          90.30         161.79
                                     90.30          76.47         136.99
                                    161.79         136.99         245.58



     Linear momentum :   -0.0000000000   -0.0000000000    0.0000000000

     The maximum number of steps has been reached.

     End of molecular dynamics calculation

     diffusion coefficients :
     atom     1   D =       0.00000003 cm^2/s
     atom     2   D =       0.00000002 cm^2/s
     atom     3   D =       0.00000002 cm^2/s
     atom     4   D =       0.00000005 cm^2/s
     atom     5   D =       0.00000005 cm^2/s
     atom     6   D =       0.00000003 cm^2/s
     atom     7   D =       0.00000002 cm^2/s
     atom     8   D =       0.00000002 cm^2/s
     atom     9   D =       0.00001052 cm^2/s
     atom    10   D =       0.00000001 cm^2/s
     atom    11   D =       0.00000003 cm^2/s
     atom    12   D =       0.00000002 cm^2/s
     atom    13   D =       0.00000004 cm^2/s
     atom    14   D =       0.00000002 cm^2/s
     atom    15   D =       0.00000004 cm^2/s
     atom    16   D =       0.00000002 cm^2/s
     atom    17   D =       0.00000004 cm^2/s
     atom    18   D =       0.00000003 cm^2/s
     atom    19   D =       0.00000002 cm^2/s
     atom    20   D =       0.00000010 cm^2/s
     atom    21   D =       0.00000008 cm^2/s
     atom    22   D =       0.00000016 cm^2/s
     atom    23   D =       0.00174579 cm^2/s

     < D > =       0.00007640 cm^2/s

     Writing all to output data dir outdir/pwscf.save/

     init_run     :      9.92s CPU     12.02s WALL (       1 calls)
     electrons    :   2476.69s CPU   2995.45s WALL (      20 calls)
     update_pot   :     19.89s CPU     21.37s WALL (      19 calls)
     forces       :    243.24s CPU    277.46s WALL (      20 calls)
     stress       :    376.67s CPU    408.53s WALL (      20 calls)

     Called by init_run:
     wfcinit      :      7.45s CPU      9.14s WALL (       1 calls)
     potinit      :      0.45s CPU      0.51s WALL (       1 calls)
     hinit0       :      0.93s CPU      1.06s WALL (       1 calls)

     Called by electrons:
     c_bands      :   1995.70s CPU   2431.50s WALL (     101 calls)
     sum_band     :    320.64s CPU    377.68s WALL (     101 calls)
     v_of_rho     :     10.72s CPU     12.61s WALL (     121 calls)
     newd         :    180.37s CPU    207.42s WALL (     121 calls)
     mix_rho      :      0.96s CPU      1.29s WALL (     101 calls)

     Called by c_bands:
     init_us_2    :      3.92s CPU      4.11s WALL (     486 calls)
     init_us_2:cp :      3.91s CPU      4.10s WALL (     486 calls)
     regterg      :   1981.91s CPU   2414.50s WALL (     202 calls)

     Called by *egterg:
     rdiaghg      :     69.84s CPU     89.40s WALL (    1704 calls)
     h_psi        :   1027.14s CPU   1159.85s WALL (    1744 calls)
     s_psi        :    343.16s CPU    343.92s WALL (    1744 calls)
     g_psi        :      0.71s CPU      0.76s WALL (    1540 calls)

     Called by h_psi:
     h_psi:calbec :    493.39s CPU    587.03s WALL (    1744 calls)
     vloc_psi     :    105.37s CPU    142.72s WALL (    1744 calls)
     add_vuspsi   :    427.06s CPU    428.69s WALL (    1744 calls)

     General routines
     calbec       :    850.50s CPU   1013.51s WALL (    2146 calls)
     fft          :      9.21s CPU     26.26s WALL (    2514 calls)
     ffts         :      0.21s CPU      0.29s WALL (     101 calls)
     fftw         :    113.24s CPU    154.79s WALL (  107548 calls)

     Parallel routines

     PWSCF        :  52m38.30s CPU      1h 2m WALL


   This run was terminated on:  17:14: 0  13Jun2023            

=------------------------------------------------------------------------------=
   JOB DONE.
=------------------------------------------------------------------------------=
