
     Program PWSCF v.7.2 starts on 15Jun2023 at  0:11:58 

     This program is part of the open-source Quantum ESPRESSO suite
     for quantum simulation of materials; please cite
         "P. Giannozzi et al., J. Phys.:Condens. Matter 21 395502 (2009);
         "P. Giannozzi et al., J. Phys.:Condens. Matter 29 465901 (2017);
         "P. Giannozzi et al., J. Chem. Phys. 152 154105 (2020);
          URL http://www.quantum-espresso.org", 
     in publications or presentations arising from this work. More details at
     http://www.quantum-espresso.org/quote

     Parallel version (MPI), running on    42 processors

     MPI processes distributed on     1 nodes
     175569 MiB available memory on the printing compute node when the environment starts

     Reading input from md_data/md_Hf5Nb2Ta10Zr5H_20steps_200eV_incident30_polar90.in
Warning: card &CELL ignored
Warning: card / ignored

     Current dimensions of program PWSCF are:
     Max number of different atomic species (ntypx) = 10
     Max number of k-points (npk) =  40000
     Max angular momentum in pseudopotentials (lmaxx) =  4

     File outdir/pwscf.md deleted, as requested

     gamma-point specific algorithms are used

     R & G space division:  proc/nbgrp/npool/nimage =      42
     Subspace diagonalization in iterative solution of the eigenvalue problem:
     one sub-group per band group will be used
     custom distributed-memory algorithm (size of sub-group:  2*  2 procs)


     Parallelization info
     --------------------
     sticks:   dense  smooth     PW     G-vecs:    dense   smooth      PW
     Min         262     262     63                23470    23470    2920
     Max         265     265     66                23484    23484    2942
     Sum       11057   11057   2753               986005   986005  123175

     Using Slab Decomposition



     bravais-lattice index     =            0
     lattice parameter (alat)  =      17.6500  a.u.
     unit-cell volume          =    5552.8853 (a.u.)^3
     number of atoms/cell      =           23
     number of atomic types    =            5
     number of electrons       =       277.00
     number of Kohn-Sham states=          167
     kinetic-energy cutoff     =     120.0000  Ry
     charge density cutoff     =     480.0000  Ry
     scf convergence threshold =      1.0E-03
     mixing beta               =       0.7000
     number of iterations used =            8  TF        mixing
     energy convergence thresh.=      0.0E+00
     force convergence thresh. =      0.0E+00
     Exchange-correlation=  SLA  PW   PBX  PBC
                           (   1   4   3   4   0   0   0)
     nstep                     =           20


     celldm(1)=  17.650041  celldm(2)=   0.000000  celldm(3)=   0.000000
     celldm(4)=   0.000000  celldm(5)=   0.000000  celldm(6)=   0.000000

     crystal axes: (cart. coord. in units of alat)
               a(1) = (   1.000000   0.000000   0.000000 )  
               a(2) = (   0.000000   0.929336   0.000000 )  
               a(3) = (   0.000000   0.000000   1.086698 )  

     reciprocal axes: (cart. coord. in units 2 pi/alat)
               b(1) = (  1.000000  0.000000  0.000000 )  
               b(2) = (  0.000000  1.076037  0.000000 )  
               b(3) = (  0.000000  0.000000  0.920219 )  


     PseudoPot. # 1 for Hf read from file:
     q-e/pseudo/hf_pbe_v1.uspp.F.UPF
     MD5 check sum: 8ee9378dfe14276e333edf04c5e4aa26
     Pseudo is Ultrasoft + core correction, Zval = 12.0
     Generated by new atomic code, or converted to UPF format
     Using radial grid of  921 points,  8 beta functions with: 
                l(1) =   0
                l(2) =   0
                l(3) =   0
                l(4) =   1
                l(5) =   1
                l(6) =   2
                l(7) =   2
                l(8) =   3
     Q(r) pseudized with  6 coefficients,  rinner =    1.200   1.200   1.200
                                                       1.200   1.200   1.200
                                                       1.200

     PseudoPot. # 2 for Nb read from file:
     q-e/pseudo/nb_pbe_v1.uspp.F.UPF
     MD5 check sum: 573aab8a2fa660278ed4a62cd769473f
     Pseudo is Ultrasoft + core correction, Zval = 13.0
     Generated by new atomic code, or converted to UPF format
     Using radial grid of  887 points,  6 beta functions with: 
                l(1) =   0
                l(2) =   0
                l(3) =   1
                l(4) =   1
                l(5) =   2
                l(6) =   2
     Q(r) pseudized with  6 coefficients,  rinner =    1.000   1.000   1.000
                                                       1.000   1.000

     PseudoPot. # 3 for Ta read from file:
     q-e/pseudo/ta_pbe_v1.uspp.F.UPF
     MD5 check sum: f8bbe9446314a3b8ea5d9f3e3836c939
     Pseudo is Ultrasoft + core correction, Zval = 13.0
     Generated by new atomic code, or converted to UPF format
     Using radial grid of  921 points,  7 beta functions with: 
                l(1) =   0
                l(2) =   0
                l(3) =   1
                l(4) =   1
                l(5) =   2
                l(6) =   2
                l(7) =   3
     Q(r) pseudized with  6 coefficients,  rinner =    1.300   1.300   1.300
                                                       1.300   1.300   1.300
                                                       1.300

     PseudoPot. # 4 for Zr read from file:
     q-e/pseudo/zr_pbe_v1.uspp.F.UPF
     MD5 check sum: 5db81b1e868ab7776c4564c113de050b
     Pseudo is Ultrasoft + core correction, Zval = 12.0
     Generated by new atomic code, or converted to UPF format
     Using radial grid of  887 points,  6 beta functions with: 
                l(1) =   0
                l(2) =   0
                l(3) =   1
                l(4) =   1
                l(5) =   2
                l(6) =   2
     Q(r) pseudized with  6 coefficients,  rinner =    1.200   1.200   1.200
                                                       1.200   1.200

     PseudoPot. # 5 for H  read from file:
     q-e/pseudo/h_pbe_v1.4.uspp.F.UPF
     MD5 check sum: 761ae9a214b05c3daf00ab9f6b793d6f
     Pseudo is Ultrasoft, Zval =  1.0
     Generated by new atomic code, or converted to UPF format
     Using radial grid of  615 points,  2 beta functions with: 
                l(1) =   0
                l(2) =   0
     Q(r) pseudized with  8 coefficients,  rinner =    0.700

     atomic species   valence    mass     pseudopotential
        Hf            12.00   178.49000     Hf( 1.00)
        Nb            13.00    92.90637     Nb( 1.00)
        Ta            13.00   180.94788     Ta( 1.00)
        Zr            12.00    91.22400     Zr( 1.00)
        H              1.00     2.01400     H ( 1.00)

     Starting magnetic structure 
     atomic species   magnetization
        Hf           0.000
        Nb           0.000
        Ta           0.000
        Zr           0.000
        H            0.000

     No symmetry found



   Cartesian axes

     site n.     atom                  positions (alat units)
         1           Hf  tau(   1) = (   0.2858672   0.3026898   0.7070626  )
         2           Hf  tau(   2) = (   0.1341532   0.1377178   0.5415917  )
         3           Hf  tau(   3) = (   0.1344204   0.7911996   0.5447610  )
         4           Hf  tau(   4) = (   0.4375813   0.1377178   0.5415917  )
         5           Hf  tau(   5) = (   0.4373140   0.7911996   0.5447610  )
         6           Nb  tau(   6) = (   0.2858672   0.2994572   0.3764008  )
         7           Nb  tau(   7) = (   0.2858672   0.6291626   0.7103852  )
         8           Ta  tau(   8) = (   0.1294832   0.4647675   0.5429471  )
         9           Ta  tau(   9) = (   0.4422513   0.4647675   0.5429471  )
        10           Ta  tau(  10) = (   0.1399628   0.1406984   0.2204260  )
        11           Ta  tau(  11) = (   0.1394848   0.1400847   0.8666573  )
        12           Ta  tau(  12) = (   0.1396156   0.7897030   0.2190832  )
        13           Ta  tau(  13) = (   0.1400119   0.7885528   0.8657390  )
        14           Ta  tau(  14) = (   0.4317717   0.1406984   0.2204260  )
        15           Ta  tau(  15) = (   0.4322496   0.1400847   0.8666573  )
        16           Ta  tau(  16) = (   0.4321189   0.7897030   0.2190832  )
        17           Ta  tau(  17) = (   0.4317226   0.7885528   0.8657390  )
        18           Zr  tau(  18) = (   0.2858672   0.6280820   0.3776642  )
        19           Zr  tau(  19) = (   0.1331729   0.4627493   0.2141328  )
        20           Zr  tau(  20) = (   0.1328036   0.4661802   0.8725649  )
        21           Zr  tau(  21) = (   0.4385616   0.4627493   0.2141328  )
        22           Zr  tau(  22) = (   0.4389309   0.4661802   0.8725649  )
        23           H   tau(  23) = (   0.6276957   0.4646681   0.6501263  )

     number of k points=     1  Gaussian smearing, width (Ry)=  0.0220
                       cart. coord. in units 2pi/alat
        k(    1) = (   0.0000000   0.0000000   0.0000000), wk =   1.0000000

     Dense  grid:   493003 G-vectors     FFT dimensions: ( 125, 120, 135)

     Estimated max dynamical RAM per process >     133.03 MB

     Estimated total dynamical RAM >       5.46 GB

     Check: negative core charge=   -0.000002
     Generating pointlists ...
     new r_m :   0.1117 (alat units)  1.9717 (a.u.) for type    1
     new r_m :   0.1098 (alat units)  1.9374 (a.u.) for type    2
     new r_m :   0.0884 (alat units)  1.5594 (a.u.) for type    3
     new r_m :   0.1112 (alat units)  1.9625 (a.u.) for type    4
     new r_m :   0.0884 (alat units)  1.5594 (a.u.) for type    5

     Initial potential from superposition of free atoms

     starting charge     266.9726, renormalised to     277.0000

     negative rho (up, down):  9.217E-01 9.217E-01
     Starting wfcs are  287 randomized atomic wfcs

     total cpu time spent up to now is       12.1 secs

     Self-consistent Calculation

     iteration #  1     ecut=   120.00 Ry     beta= 0.70
     Davidson diagonalization with overlap
     ethr =  1.00E-02,  avg # of iterations =  2.0

     negative rho (up, down):  9.974E-01 9.971E-01

     total cpu time spent up to now is       30.1 secs

     total energy              =   -2930.56980442 Ry
     estimated scf accuracy    <     277.06023899 Ry

     total magnetization       =    -0.00 Bohr mag/cell
     absolute magnetization    =     0.09 Bohr mag/cell

     iteration #  2     ecut=   120.00 Ry     beta= 0.70
     Davidson diagonalization with overlap
     ethr =  1.00E-02,  avg # of iterations =  5.0

     negative rho (up, down):  9.719E-01 9.682E-01

     total cpu time spent up to now is       59.5 secs

     total energy              =   -2942.27524027 Ry
     estimated scf accuracy    <      29.86359976 Ry

     total magnetization       =    -0.12 Bohr mag/cell
     absolute magnetization    =     0.36 Bohr mag/cell

     iteration #  3     ecut=   120.00 Ry     beta= 0.70
     Davidson diagonalization with overlap
     ethr =  1.00E-02,  avg # of iterations =  2.0

     negative rho (up, down):  1.007E+00 1.007E+00

     total cpu time spent up to now is       97.4 secs

     total energy              =   -2942.65653681 Ry
     estimated scf accuracy    <      13.03972953 Ry

     total magnetization       =    -0.08 Bohr mag/cell
     absolute magnetization    =     0.48 Bohr mag/cell

     iteration #  4     ecut=   120.00 Ry     beta= 0.70
     Davidson diagonalization with overlap
     ethr =  4.71E-03,  avg # of iterations =  3.0

     negative rho (up, down):  1.014E+00 1.015E+00

     total cpu time spent up to now is      127.9 secs

     total energy              =   -2942.91456373 Ry
     estimated scf accuracy    <       3.21496595 Ry

     total magnetization       =     0.02 Bohr mag/cell
     absolute magnetization    =     0.42 Bohr mag/cell

     iteration #  5     ecut=   120.00 Ry     beta= 0.70
     Davidson diagonalization with overlap
     ethr =  1.16E-03,  avg # of iterations =  8.0

     negative rho (up, down):  9.904E-01 9.910E-01

     total cpu time spent up to now is      149.7 secs

     total energy              =   -2943.07485376 Ry
     estimated scf accuracy    <       1.76673206 Ry

     total magnetization       =    -0.01 Bohr mag/cell
     absolute magnetization    =     0.25 Bohr mag/cell

     iteration #  6     ecut=   120.00 Ry     beta= 0.70
     Davidson diagonalization with overlap
     ethr =  6.38E-04,  avg # of iterations =  2.0

     negative rho (up, down):  9.764E-01 9.768E-01

     total cpu time spent up to now is      166.6 secs

     total energy              =   -2943.11404655 Ry
     estimated scf accuracy    <       1.00735984 Ry

     total magnetization       =    -0.02 Bohr mag/cell
     absolute magnetization    =     0.18 Bohr mag/cell

     iteration #  7     ecut=   120.00 Ry     beta= 0.70
     Davidson diagonalization with overlap
     ethr =  3.64E-04,  avg # of iterations =  2.0

     negative rho (up, down):  9.476E-01 9.479E-01

     total cpu time spent up to now is      183.1 secs

     total energy              =   -2943.06431998 Ry
     estimated scf accuracy    <       0.38701470 Ry

     total magnetization       =    -0.00 Bohr mag/cell
     absolute magnetization    =     0.15 Bohr mag/cell

     iteration #  8     ecut=   120.00 Ry     beta= 0.70
     Davidson diagonalization with overlap
     ethr =  1.40E-04,  avg # of iterations =  8.0

     negative rho (up, down):  9.216E-01 9.217E-01

     total cpu time spent up to now is      201.1 secs

     total energy              =   -2943.06254509 Ry
     estimated scf accuracy    <       0.20532332 Ry

     total magnetization       =     0.00 Bohr mag/cell
     absolute magnetization    =     0.12 Bohr mag/cell

     iteration #  9     ecut=   120.00 Ry     beta= 0.70
     Davidson diagonalization with overlap
     ethr =  7.41E-05,  avg # of iterations =  2.0

     negative rho (up, down):  9.079E-01 9.079E-01

     total cpu time spent up to now is      232.7 secs

     total energy              =   -2943.05797870 Ry
     estimated scf accuracy    <       0.06038637 Ry

     total magnetization       =     0.01 Bohr mag/cell
     absolute magnetization    =     0.09 Bohr mag/cell

     iteration # 10     ecut=   120.00 Ry     beta= 0.70
     Davidson diagonalization with overlap
     ethr =  2.18E-05,  avg # of iterations = 13.0

     negative rho (up, down):  9.085E-01 9.085E-01

     total cpu time spent up to now is      280.2 secs

     total energy              =   -2943.06449003 Ry
     estimated scf accuracy    <       0.02919452 Ry

     total magnetization       =     0.01 Bohr mag/cell
     absolute magnetization    =     0.07 Bohr mag/cell

     iteration # 11     ecut=   120.00 Ry     beta= 0.70
     Davidson diagonalization with overlap
     ethr =  1.05E-05,  avg # of iterations =  2.0

     negative rho (up, down):  9.091E-01 9.091E-01

     total cpu time spent up to now is      298.8 secs

     total energy              =   -2943.06776952 Ry
     estimated scf accuracy    <       0.00666322 Ry

     total magnetization       =     0.02 Bohr mag/cell
     absolute magnetization    =     0.05 Bohr mag/cell

     iteration # 12     ecut=   120.00 Ry     beta= 0.70
     Davidson diagonalization with overlap
     ethr =  2.41E-06,  avg # of iterations = 12.5

     negative rho (up, down):  9.092E-01 9.092E-01

     total cpu time spent up to now is      318.5 secs

     total energy              =   -2943.07012351 Ry
     estimated scf accuracy    <       0.00280606 Ry

     total magnetization       =     0.02 Bohr mag/cell
     absolute magnetization    =     0.05 Bohr mag/cell

     iteration # 13     ecut=   120.00 Ry     beta= 0.70
     Davidson diagonalization with overlap
     ethr =  1.01E-06,  avg # of iterations =  4.0

     negative rho (up, down):  9.089E-01 9.089E-01

     Magnetic moment per site  (integrated on atomic sphere of radius R)
     atom   1 (R=0.112)  charge=  9.4641   -0.0001
     atom   2 (R=0.112)  charge=  9.0587   -0.0003
     atom   3 (R=0.112)  charge=  9.0582   -0.0002
     atom   4 (R=0.112)  charge=  9.0594    0.0002
     atom   5 (R=0.112)  charge=  9.0581    0.0001
     atom   6 (R=0.110)  charge= 10.3487   -0.0000
     atom   7 (R=0.110)  charge= 10.3488    0.0000
     atom   8 (R=0.088)  charge=  8.1295    0.0002
     atom   9 (R=0.088)  charge=  8.1188   -0.0002
     atom  10 (R=0.088)  charge=  8.1085   -0.0000
     atom  11 (R=0.088)  charge=  8.1051    0.0001
     atom  12 (R=0.088)  charge=  8.1093   -0.0001
     atom  13 (R=0.088)  charge=  8.1064    0.0002
     atom  14 (R=0.088)  charge=  8.1071    0.0001
     atom  15 (R=0.088)  charge=  8.1086    0.0005
     atom  16 (R=0.088)  charge=  8.1081    0.0012
     atom  17 (R=0.088)  charge=  8.1098    0.0009
     atom  18 (R=0.111)  charge=  9.4542   -0.0002
     atom  19 (R=0.111)  charge=  8.9990    0.0012
     atom  20 (R=0.111)  charge=  8.9967   -0.0015
     atom  21 (R=0.111)  charge=  8.9976    0.0022
     atom  22 (R=0.111)  charge=  8.9886    0.0000
     atom  23 (R=0.088)  charge=  0.9769    0.0000

     total cpu time spent up to now is      335.4 secs

     End of self-consistent calculation

 ------ SPIN UP ------------


          k = 0.0000 0.0000 0.0000 ( 61588 PWs)   bands (ev):

   -60.7870 -60.7854 -60.7412 -60.7393 -60.7093 -60.7053 -60.6648 -60.6598
   -60.4982 -60.4275 -54.4048 -54.3537 -54.2806 -54.2297 -52.7046 -46.2693
   -46.2613 -41.6721 -41.6291 -41.5677 -41.5286 -39.7980 -27.7904 -27.7847
   -27.7027 -27.6998 -27.6010 -27.5953 -27.4756 -27.4651 -27.3721 -27.3418
   -27.3036 -27.2745 -27.2680 -27.2456 -27.2336 -27.1775 -27.1710 -27.1396
   -27.0922 -27.0722 -27.0254 -26.9657 -26.9625 -26.9570 -26.9433 -26.9146
   -26.8969 -26.8884 -26.8632 -26.8621 -24.1879 -23.9781 -23.6730 -23.5903
   -23.3312 -23.1975 -23.1730 -23.0739 -22.9466 -22.8768 -22.8617 -22.6428
   -22.5102 -22.4594 -22.4052 -22.3602 -22.2905 -22.2423 -21.7662 -21.7084
   -21.6340 -20.1983 -19.9703 -19.8313 -19.8269 -19.6468 -19.6223 -19.5985
   -19.5894 -19.5759 -19.5530 -19.3979 -19.3719 -18.1460 -17.9407 -17.8139
     1.4658   2.9191   3.0156   3.1307   3.3014   3.4497   3.4871   3.6688
     3.7364   3.8461   3.9103   4.0463   4.2867   4.4955   4.5961   4.6729
     4.7309   4.9186   5.0241   5.0551   5.1089   5.2509   5.2799   5.3094
     5.3935   5.5523   5.5625   5.7129   5.7356   5.7471   5.7567   5.7915
     5.9205   6.0907   6.1458   6.2194   6.2628   6.3120   6.3566   6.3702
     6.4520   6.6452   6.6537   6.6736   6.8342   6.9416   7.0035   7.0430
     7.0930   7.1384   7.2594   7.3107   7.3365   7.4123   7.5232   7.5745
     7.6282   7.6561   7.8851   7.9445   8.0761   8.0913   8.1167   8.1835
     8.2428   8.3380   8.3432   8.3579   8.4886   8.5108   8.6175   8.7404
     8.7683   8.8968   8.9310   9.0549   9.1929   9.2219   9.2736

 ------ SPIN DOWN ----------


          k = 0.0000 0.0000 0.0000 ( 61588 PWs)   bands (ev):

   -60.7868 -60.7849 -60.7411 -60.7387 -60.7088 -60.7050 -60.6645 -60.6594
   -60.4979 -60.4277 -54.4048 -54.3538 -54.2806 -54.2298 -52.7046 -46.2693
   -46.2614 -41.6724 -41.6275 -41.5689 -41.5270 -39.7981 -27.7898 -27.7843
   -27.7024 -27.6991 -27.6004 -27.5949 -27.4752 -27.4645 -27.3718 -27.3414
   -27.3033 -27.2742 -27.2673 -27.2452 -27.2330 -27.1771 -27.1705 -27.1394
   -27.0923 -27.0719 -27.0254 -26.9653 -26.9619 -26.9563 -26.9429 -26.9147
   -26.8962 -26.8881 -26.8628 -26.8616 -24.1878 -23.9781 -23.6730 -23.5904
   -23.3313 -23.1976 -23.1731 -23.0740 -22.9467 -22.8769 -22.8618 -22.6430
   -22.5102 -22.4595 -22.4052 -22.3602 -22.2904 -22.2423 -21.7662 -21.7086
   -21.6341 -20.1968 -19.9718 -19.8290 -19.8256 -19.6468 -19.6223 -19.5982
   -19.5897 -19.5743 -19.5539 -19.3991 -19.3696 -18.1461 -17.9406 -17.8140
     1.4661   2.9196   3.0156   3.1308   3.3016   3.4505   3.4873   3.6689
     3.7366   3.8464   3.9108   4.0468   4.2869   4.4955   4.5964   4.6732
     4.7311   4.9190   5.0242   5.0560   5.1094   5.2511   5.2802   5.3096
     5.3943   5.5526   5.5627   5.7133   5.7363   5.7472   5.7569   5.7920
     5.9206   6.0915   6.1463   6.2197   6.2630   6.3124   6.3569   6.3706
     6.4525   6.6455   6.6540   6.6740   6.8349   6.9424   7.0049   7.0434
     7.0952   7.1398   7.2607   7.3111   7.3392   7.4142   7.5226   7.5757
     7.6291   7.6570   7.8856   7.9448   8.0772   8.0920   8.1173   8.1848
     8.2437   8.3383   8.3442   8.3589   8.4895   8.5113   8.6179   8.7408
     8.7688   8.8987   8.9324   9.0555   9.1940   9.2222   9.2742

     the Fermi energy is     7.2348 ev

!    total energy              =   -2943.07136859 Ry
     estimated scf accuracy    <       0.00044700 Ry
     smearing contrib. (-TS)   =      -0.10010666 Ry
     internal energy E=F+TS    =   -2942.97126193 Ry

     total magnetization       =     0.02 Bohr mag/cell
     absolute magnetization    =     0.04 Bohr mag/cell

     convergence has been achieved in  13 iterations

     negative rho (up, down):  9.089E-01 9.089E-01

     Forces acting on atoms (cartesian axes, Ry/au):

     atom    1 type  1   force =    -0.01037380   -0.02469643    0.00770510
     atom    2 type  1   force =    -0.11413734   -0.01656073   -0.00184054
     atom    3 type  1   force =    -0.11281493    0.01481430    0.00256351
     atom    4 type  1   force =     0.11289255   -0.02207106   -0.00519792
     atom    5 type  1   force =     0.11398331    0.01892224    0.00102007
     atom    6 type  2   force =    -0.00735167   -0.01915610    0.00697328
     atom    7 type  2   force =    -0.01319586    0.01235174   -0.00778673
     atom    8 type  3   force =    -0.11777606    0.00321561   -0.00151014
     atom    9 type  3   force =     0.16281463    0.00406118    0.01450506
     atom   10 type  3   force =    -0.02323637   -0.03224603   -0.06030311
     atom   11 type  3   force =    -0.01948730   -0.03634204    0.05784619
     atom   12 type  3   force =    -0.01808551    0.03718462   -0.05440676
     atom   13 type  3   force =    -0.02004127    0.03022858    0.06158144
     atom   14 type  3   force =     0.02547024   -0.02886652   -0.05650926
     atom   15 type  3   force =     0.01628645   -0.04026465    0.05375616
     atom   16 type  3   force =     0.02074562    0.03326275   -0.05118760
     atom   17 type  3   force =     0.01627096    0.03503270    0.05813454
     atom   18 type  4   force =    -0.00896534    0.02865181   -0.01407576
     atom   19 type  4   force =    -0.12925347   -0.00497366   -0.11698006
     atom   20 type  4   force =    -0.13525064    0.00524026    0.11233479
     atom   21 type  4   force =     0.12699061   -0.00520527   -0.11735699
     atom   22 type  4   force =     0.16396895    0.00763697    0.10009424
     atom   23 type  5   force =    -0.02945375   -0.00022025    0.01064048
     The non-local contrib.  to forces
     atom    1 type  1   force =    -0.00708670   -0.01315940    0.03451439
     atom    2 type  1   force =    -0.24428130   -0.16406012    0.01647086
     atom    3 type  1   force =    -0.23825009    0.16052238   -0.02766629
     atom    4 type  1   force =     0.26143597   -0.16082084    0.03078271
     atom    5 type  1   force =     0.25127219    0.15629241   -0.01429494
     atom    6 type  2   force =     0.00324811   -0.05253805   -0.06323607
     atom    7 type  2   force =    -0.01876504    0.05458840    0.05521148
     atom    8 type  3   force =    -0.27130849    0.00165837    0.00109123
     atom    9 type  3   force =     0.10857848   -0.00053977   -0.05897489
     atom   10 type  3   force =    -0.21581466    0.00575535   -0.20594601
     atom   11 type  3   force =    -0.21663442    0.00789579    0.19531205
     atom   12 type  3   force =    -0.20456531   -0.01962294   -0.17804570
     atom   13 type  3   force =    -0.20698539   -0.00488059    0.20875917
     atom   14 type  3   force =     0.20796012    0.00475254   -0.21953028
     atom   15 type  3   force =     0.23207992    0.00799457    0.17961579
     atom   16 type  3   force =     0.19664526   -0.01999064   -0.18998419
     atom   17 type  3   force =     0.22241403   -0.00469078    0.19149566
     atom   18 type  4   force =     0.00336234    0.05953145   -0.06141789
     atom   19 type  4   force =     0.06163581    0.00907718    0.07391198
     atom   20 type  4   force =     0.05152222   -0.01414511   -0.05850191
     atom   21 type  4   force =    -0.05291377    0.01001774    0.07594851
     atom   22 type  4   force =    -0.05668759   -0.01070943   -0.09331050
     atom   23 type  5   force =    -0.03925946   -0.00000096   -0.01413183
     The ionic contribution  to forces
     atom    1 type  1   force =    -0.33925142   -4.74720957   14.02699793
     atom    2 type  1   force =   -39.66248163   -6.18415836    0.72476069
     atom    3 type  1   force =   -39.63519894    6.17121189   -0.76889681
     atom    4 type  1   force =    39.44291274   -6.37650162    0.64401299
     atom    5 type  1   force =    39.41318384    6.36587510   -0.84814787
     atom    6 type  2   force =    -0.17065393   -3.61832791  -14.03170692
     atom    7 type  2   force =    -0.36203446    3.75439789   13.96127222
     atom    8 type  3   force =   -52.07814131    0.07188752   -0.16241189
     atom    9 type  3   force =    50.56657761    0.07261802   -0.95498199
     atom   10 type  3   force =   -36.04350637   -2.11374533  -23.07260453
     atom   11 type  3   force =   -35.12256741   -0.89557811   22.11554073
     atom   12 type  3   force =   -35.22755961    0.81607498  -22.12566267
     atom   13 type  3   force =   -36.02273631    2.22942334   23.09391164
     atom   14 type  3   force =    35.96610570   -2.14505102  -23.11584314
     atom   15 type  3   force =    34.94591863   -1.02097058   22.22460612
     atom   16 type  3   force =    35.15084800    0.84699997  -22.16826631
     atom   17 type  3   force =    35.84437850    2.35568738   23.20318709
     atom   18 type  4   force =    -0.15928070    4.42256152  -13.98437079
     atom   19 type  4   force =   -35.88084756    0.95669503  -25.54154909
     atom   20 type  4   force =   -35.86879705   -0.95269571   25.58576488
     atom   21 type  4   force =    35.76474304    0.95609777  -25.64354188
     atom   22 type  4   force =    35.33034193   -0.94927204   26.09324942
     atom   23 type  5   force =     4.14804671   -0.01602015    0.74468019
     The local contribution  to forces
     atom    1 type  1   force =     0.33746741    4.73273741  -14.05448543
     atom    2 type  1   force =    39.81730999    6.32829324   -0.74317133
     atom    3 type  1   force =    39.78392617   -6.31440822    0.79950706
     atom    4 type  1   force =   -39.61503914    6.51411368   -0.68440228
     atom    5 type  1   force =   -39.57272583   -6.50196695    0.86097264
     atom    6 type  2   force =     0.16636426    3.64713689   14.09707894
     atom    7 type  2   force =     0.37280240   -3.79359249  -14.02547706
     atom    8 type  3   force =    52.26963278   -0.07040658    0.15788692
     atom    9 type  3   force =   -50.52687089   -0.06835184    1.03462053
     atom   10 type  3   force =    36.26117830    2.06499040   23.23557741
     atom   11 type  3   force =    35.35178550    0.84310159  -22.27276076
     atom   12 type  3   force =    35.44021705   -0.74844758   22.26618342
     atom   13 type  3   force =    36.23790752   -2.18326921  -23.25907452
     atom   14 type  3   force =   -36.17068243    2.10232815   23.29558298
     atom   15 type  3   force =   -35.19121787    0.96299737  -22.36395487
     atom   16 type  3   force =   -35.35002426   -0.78305072   22.32363690
     atom   17 type  3   force =   -36.07495844   -2.30558658  -23.35051005
     atom   18 type  4   force =     0.15220240   -4.44935826   14.02526910
     atom   19 type  4   force =    35.70119381   -0.97123924   25.36106811
     atom   20 type  4   force =    35.69301608    0.96917686  -25.42407929
     atom   21 type  4   force =   -35.59038307   -0.97233659   25.46424006
     atom   22 type  4   force =   -35.11731668    0.96553372  -25.91330749
     atom   23 type  5   force =    -4.13867175    0.01597953   -0.72046956
     The core correction contribution to forces
     atom    1 type  1   force =     0.00252941    0.00061542    0.00013221
     atom    2 type  1   force =    -0.01270522   -0.00192172   -0.00017575
     atom    3 type  1   force =    -0.01252861    0.00288538   -0.00220669
     atom    4 type  1   force =     0.01382055   -0.00315338    0.00339179
     atom    5 type  1   force =     0.01403107    0.00319987    0.00122346
     atom    6 type  2   force =    -0.00025414    0.00219572    0.00249473
     atom    7 type  2   force =     0.00067341   -0.00265899   -0.00196947
     atom    8 type  3   force =    -0.03312908    0.00020479    0.00033851
     atom    9 type  3   force =     0.01414821    0.00035540   -0.00826270
     atom   10 type  3   force =    -0.02180919    0.00992089   -0.01598317
     atom   11 type  3   force =    -0.02433097    0.00927663    0.01752399
     atom   12 type  3   force =    -0.02187362   -0.01003229   -0.01535680
     atom   13 type  3   force =    -0.02297635   -0.00877463    0.01738571
     atom   14 type  3   force =     0.02272387    0.01026433   -0.01649059
     atom   15 type  3   force =     0.02531259    0.01066286    0.01348930
     atom   16 type  3   force =     0.02233885   -0.01070302   -0.01600882
     atom   17 type  3   force =     0.02316028   -0.00931213    0.01403587
     atom   18 type  4   force =    -0.00021603   -0.00303121    0.00289593
     atom   19 type  4   force =    -0.00981373    0.00003496   -0.00964773
     atom   20 type  4   force =    -0.00935640    0.00036873    0.00879539
     atom   21 type  4   force =     0.00938094   -0.00002244   -0.00991747
     atom   22 type  4   force =     0.00998018    0.00018884    0.01047193
     atom   23 type  5   force =     0.00000000    0.00000000    0.00000000
     The Hubbard contrib.    to forces
     atom    1 type  1   force =     0.00000000    0.00000000    0.00000000
     atom    2 type  1   force =     0.00000000    0.00000000    0.00000000
     atom    3 type  1   force =     0.00000000    0.00000000    0.00000000
     atom    4 type  1   force =     0.00000000    0.00000000    0.00000000
     atom    5 type  1   force =     0.00000000    0.00000000    0.00000000
     atom    6 type  2   force =     0.00000000    0.00000000    0.00000000
     atom    7 type  2   force =     0.00000000    0.00000000    0.00000000
     atom    8 type  3   force =     0.00000000    0.00000000    0.00000000
     atom    9 type  3   force =     0.00000000    0.00000000    0.00000000
     atom   10 type  3   force =     0.00000000    0.00000000    0.00000000
     atom   11 type  3   force =     0.00000000    0.00000000    0.00000000
     atom   12 type  3   force =     0.00000000    0.00000000    0.00000000
     atom   13 type  3   force =     0.00000000    0.00000000    0.00000000
     atom   14 type  3   force =     0.00000000    0.00000000    0.00000000
     atom   15 type  3   force =     0.00000000    0.00000000    0.00000000
     atom   16 type  3   force =     0.00000000    0.00000000    0.00000000
     atom   17 type  3   force =     0.00000000    0.00000000    0.00000000
     atom   18 type  4   force =     0.00000000    0.00000000    0.00000000
     atom   19 type  4   force =     0.00000000    0.00000000    0.00000000
     atom   20 type  4   force =     0.00000000    0.00000000    0.00000000
     atom   21 type  4   force =     0.00000000    0.00000000    0.00000000
     atom   22 type  4   force =     0.00000000    0.00000000    0.00000000
     atom   23 type  5   force =     0.00000000    0.00000000    0.00000000
     The SCF correction term to forces
     atom    1 type  1   force =    -0.00367653    0.00229717    0.00035201
     atom    2 type  1   force =    -0.01162320    0.00526369    0.00008098
     atom    3 type  1   force =    -0.01040748   -0.00541966    0.00163224
     atom    4 type  1   force =     0.01011841    0.00426857    0.00082287
     atom    5 type  1   force =     0.00857802   -0.00450073    0.00107278
     atom    6 type  2   force =    -0.00570001    0.00235472    0.00214861
     atom    7 type  2   force =    -0.00551620   -0.00040560    0.00298209
     atom    8 type  3   force =    -0.00447399   -0.00015104    0.00139108
     atom    9 type  3   force =     0.00073719   -0.00004317    0.00191011
     atom   10 type  3   force =    -0.00292847    0.00081011   -0.00154081
     atom   11 type  3   force =    -0.00738403   -0.00106048    0.00203618
     atom   12 type  3   force =    -0.00394805   -0.00081009   -0.00171901
     atom   13 type  3   force =    -0.00489477   -0.00229288    0.00040543
     atom   14 type  3   force =    -0.00028104   -0.00118307   -0.00042223
     atom   15 type  3   force =     0.00454915   -0.00097141   -0.00019418
     atom   16 type  3   force =     0.00129374   -0.00001538   -0.00075918
     atom   17 type  3   force =     0.00163257   -0.00108773   -0.00026804
     atom   18 type  4   force =    -0.00467737   -0.00107422    0.00335389
     atom   19 type  4   force =    -0.00106582    0.00043587   -0.00095734
     atom   20 type  4   force =    -0.00127952    0.00251295    0.00016172
     atom   21 type  4   force =    -0.00348056    0.00101571   -0.00428021
     atom   22 type  4   force =    -0.00199294    0.00187334    0.00279689
     atom   23 type  5   force =     0.00078673   -0.00020120    0.00036767

     Total force =     0.513777     Total SCF correction =     0.029803


     Computing stress (Cartesian axis) and pressure


     negative rho (up, down):  9.089E-01 9.089E-01
          total   stress  (Ry/bohr**3)                   (kbar)     P=       83.36
   0.00067542   0.00000017   0.00000950           99.36        0.03        1.40
   0.00000017   0.00066073  -0.00001230            0.03       97.20       -1.81
   0.00000950  -0.00001230   0.00036379            1.40       -1.81       53.51


     Molecular Dynamics Calculation

     Starting temperature  =   300.00 K

     temperature is set once at start

     mass Hf               =   178.49
     mass Nb               =    92.91
     mass Ta               =   180.95
     mass Zr               =    91.22
     mass H                =     2.01
     Time step             =     4.20 a.u.,  0.2032 femto-seconds

     Entering Dynamics:    iteration =     1
                           time      =   0.0002 pico-seconds


ATOMIC_POSITIONS (angstrom)
Hf            2.6701536166        2.8271223207        6.6040533249
Hf            1.2531413628        1.2862837063        5.0585550586
Hf            1.2556376192        7.3898047198        5.0881567262
Hf            4.0871664298        1.2862835482        5.0585549622
Hf            4.0846702427        7.3898048377        5.0881566819
Nb            2.6701535090        2.7969295497        3.5156724863
Nb            2.6701531869        5.8763793571        6.6350863993
Ta            1.2095236801        4.3409279426        5.0712146748
Ta            4.1307854228        4.3409279665        5.0712151280
Ta            1.3074059837        1.3141216768        2.0588662888
Ta            1.3029417199        1.3083901075        8.0946697247
Ta            1.3041630675        7.3758271764        2.0463245253
Ta            1.3078641884        7.3650838039        8.0860928488
Ta            4.0329019079        1.3141217725        2.0588663961
Ta            4.0373660179        1.3083899965        8.0946696090
Ta            4.0361448362        7.3758270654        2.0463246164
Ta            4.0324435333        7.3650839398        8.0860927513
Zr            2.6701534109        5.8662874518        3.5274720255
Zr            1.2439813206        4.3220776853        2.0000823186
Zr            1.2405317776        4.3541235787        8.1498507404
Zr            4.0963263807        4.3220776723        2.0000822975
Zr            4.0997776628        4.3541237132        8.1498500533
H             5.6069863369        4.3399993902        5.9246298923


     kinetic energy (Ekin) =          16.19689337 Ry
     temperature           =       77493.55158688 K 
     Ekin + Etot (const)   =       -2926.87447522 Ry
     Ions kinetic stress =          286.05 (kbar)
                                    643.63           0.00         371.59
                                      0.00           0.00           0.00
                                    371.59           0.00         214.53



     Linear momentum :   -0.0000000000    0.0000000000   -0.0000000000

     File outdir/pwscf.msd.dat deleted, as requested

     Writing config-only to output data dir outdir/pwscf.save/
     NEW-OLD atomic charge density approx. for the potential

     Check: negative core charge=   -0.000002

     negative rho (up, down):  9.088E-01 9.088E-01
     Generating pointlists ...
     new r_m :   0.0753 (alat units)  1.3292 (a.u.) for type    3
     new r_m :   0.0753 (alat units)  1.3292 (a.u.) for type    5

     total cpu time spent up to now is      359.6 secs

     Self-consistent Calculation

     iteration #  1     ecut=   120.00 Ry     beta= 0.70
     Davidson diagonalization with overlap
     ethr =  1.00E-06,  avg # of iterations = 17.5

     negative rho (up, down):  9.089E-01 9.089E-01

     total cpu time spent up to now is      421.9 secs

     total energy              =   -2943.05572748 Ry
     estimated scf accuracy    <       0.03843510 Ry

     total magnetization       =     0.02 Bohr mag/cell
     absolute magnetization    =     0.04 Bohr mag/cell

     iteration #  2     ecut=   120.00 Ry     beta= 0.70
     Davidson diagonalization with overlap
     ethr =  1.39E-05,  avg # of iterations =  2.0

     negative rho (up, down):  9.089E-01 9.089E-01

     total cpu time spent up to now is      452.0 secs

     total energy              =   -2943.05897675 Ry
     estimated scf accuracy    <       0.00763342 Ry

     total magnetization       =     0.02 Bohr mag/cell
     absolute magnetization    =     0.03 Bohr mag/cell

     iteration #  3     ecut=   120.00 Ry     beta= 0.70
     Davidson diagonalization with overlap
     ethr =  2.76E-06,  avg # of iterations =  2.0

     negative rho (up, down):  9.088E-01 9.088E-01

     total cpu time spent up to now is      467.6 secs

     total energy              =   -2943.05924618 Ry
     estimated scf accuracy    <       0.00175083 Ry

     total magnetization       =     0.02 Bohr mag/cell
     absolute magnetization    =     0.03 Bohr mag/cell

     iteration #  4     ecut=   120.00 Ry     beta= 0.70
     Davidson diagonalization with overlap
     ethr =  6.32E-07,  avg # of iterations =  2.0

     negative rho (up, down):  9.088E-01 9.088E-01

     Magnetic moment per site  (integrated on atomic sphere of radius R)
     atom   1 (R=0.112)  charge=  9.4645   -0.0000
     atom   2 (R=0.112)  charge=  9.0581   -0.0001
     atom   3 (R=0.112)  charge=  9.0578    0.0000
     atom   4 (R=0.112)  charge=  9.0588    0.0001
     atom   5 (R=0.112)  charge=  9.0579    0.0002
     atom   6 (R=0.110)  charge= 10.3505   -0.0000
     atom   7 (R=0.110)  charge= 10.3480    0.0001
     atom   8 (R=0.075)  charge=  6.6207    0.0001
     atom   9 (R=0.075)  charge=  6.6314   -0.0000
     atom  10 (R=0.075)  charge=  6.6057   -0.0000
     atom  11 (R=0.075)  charge=  6.6010   -0.0000
     atom  12 (R=0.075)  charge=  6.6053    0.0000
     atom  13 (R=0.075)  charge=  6.6027    0.0001
     atom  14 (R=0.075)  charge=  6.6041    0.0002
     atom  15 (R=0.075)  charge=  6.6013    0.0003
     atom  16 (R=0.075)  charge=  6.6050    0.0007
     atom  17 (R=0.075)  charge=  6.6023    0.0004
     atom  18 (R=0.111)  charge=  9.4562   -0.0000
     atom  19 (R=0.111)  charge=  8.9994    0.0006
     atom  20 (R=0.111)  charge=  8.9961   -0.0010
     atom  21 (R=0.111)  charge=  8.9972    0.0015
     atom  22 (R=0.111)  charge=  8.9864    0.0002
     atom  23 (R=0.075)  charge=  0.9163    0.0000

     total cpu time spent up to now is      484.0 secs

     End of self-consistent calculation

 ------ SPIN UP ------------


          k = 0.0000 0.0000 0.0000 ( 61588 PWs)   bands (ev):

   -60.7777 -60.7614 -60.7309 -60.7150 -60.6991 -60.6802 -60.6535 -60.6347
   -60.4720 -60.2499 -54.3870 -54.3385 -54.2626 -54.2145 -52.6843 -46.2434
   -46.2413 -41.6535 -41.6170 -41.5404 -41.5152 -39.7942 -27.7762 -27.7632
   -27.6919 -27.6749 -27.5877 -27.5760 -27.4581 -27.4481 -27.3425 -27.3249
   -27.2666 -27.2624 -27.2449 -27.2273 -27.2144 -27.1624 -27.1490 -27.1089
   -27.0456 -26.9761 -26.9554 -26.9433 -26.9366 -26.9224 -26.8929 -26.8768
   -26.8713 -26.8525 -26.8380 -26.8192 -24.1695 -23.9596 -23.6559 -23.5741
   -23.3141 -23.1791 -23.1562 -23.0554 -22.9287 -22.8622 -22.8437 -22.6273
   -22.4899 -22.4406 -22.3853 -22.3379 -22.2715 -22.2208 -21.7464 -21.6860
   -21.6153 -20.1851 -19.9504 -19.8223 -19.8091 -19.6288 -19.6022 -19.5865
   -19.5659 -19.5584 -19.5280 -19.3736 -19.3585 -18.1462 -17.9320 -17.8081
     1.4393   2.7291   2.9375   3.1484   3.3029   3.4644   3.4945   3.6810
     3.7477   3.8622   3.9283   4.0453   4.3022   4.5194   4.5592   4.6908
     4.7409   4.9093   5.0378   5.0704   5.1261   5.2654   5.2965   5.3305
     5.4131   5.5688   5.5819   5.7338   5.7541   5.7650   5.7794   5.7988
     5.9348   6.1084   6.1631   6.2375   6.2775   6.3326   6.3749   6.3798
     6.4661   6.6616   6.6802   6.6894   6.8585   6.9623   7.0191   7.0533
     7.1040   7.1523   7.2731   7.3253   7.3345   7.4234   7.5440   7.5719
     7.6296   7.6708   7.9013   7.9638   8.0919   8.0952   8.1303   8.1937
     8.2565   8.3567   8.3588   8.3740   8.5171   8.5230   8.6343   8.7625
     8.7839   8.9049   8.9578   9.0682   9.2069   9.2490   9.2977

 ------ SPIN DOWN ----------


          k = 0.0000 0.0000 0.0000 ( 61588 PWs)   bands (ev):

   -60.7774 -60.7611 -60.7307 -60.7146 -60.6986 -60.6800 -60.6532 -60.6343
   -60.4719 -60.2500 -54.3869 -54.3385 -54.2626 -54.2145 -52.6844 -46.2433
   -46.2413 -41.6536 -41.6160 -41.5412 -41.5141 -39.7942 -27.7758 -27.7627
   -27.6916 -27.6744 -27.5874 -27.5754 -27.4575 -27.4477 -27.3422 -27.3245
   -27.2663 -27.2622 -27.2443 -27.2267 -27.2141 -27.1620 -27.1487 -27.1086
   -27.0454 -26.9762 -26.9551 -26.9428 -26.9361 -26.9219 -26.8927 -26.8764
   -26.8709 -26.8520 -26.8377 -26.8192 -24.1695 -23.9596 -23.6559 -23.5741
   -23.3141 -23.1791 -23.1562 -23.0554 -22.9287 -22.8622 -22.8437 -22.6273
   -22.4898 -22.4406 -22.3852 -22.3379 -22.2715 -22.2208 -21.7464 -21.6860
   -21.6153 -20.1840 -19.9513 -19.8214 -19.8080 -19.6287 -19.6020 -19.5859
   -19.5666 -19.5570 -19.5287 -19.3743 -19.3570 -18.1462 -17.9320 -17.8080
     1.4396   2.7292   2.9381   3.1485   3.3030   3.4652   3.4948   3.6813
     3.7480   3.8625   3.9288   4.0458   4.3025   4.5195   4.5595   4.6910
     4.7412   4.9098   5.0380   5.0713   5.1266   5.2658   5.2968   5.3309
     5.4138   5.5691   5.5821   5.7342   5.7548   5.7651   5.7796   5.7992
     5.9351   6.1092   6.1635   6.2378   6.2778   6.3330   6.3753   6.3801
     6.4667   6.6619   6.6805   6.6899   6.8591   6.9630   7.0205   7.0537
     7.1060   7.1535   7.2744   7.3258   7.3364   7.4253   7.5440   7.5732
     7.6305   7.6715   7.9018   7.9643   8.0928   8.0961   8.1308   8.1949
     8.2576   8.3569   8.3597   8.3747   8.5179   8.5236   8.6347   8.7629
     8.7843   8.9065   8.9586   9.0687   9.2076   9.2491   9.2981

     the Fermi energy is     7.2463 ev

!    total energy              =   -2943.05910413 Ry
     estimated scf accuracy    <       0.00055903 Ry
     smearing contrib. (-TS)   =      -0.10136355 Ry
     internal energy E=F+TS    =   -2942.95774058 Ry

     total magnetization       =     0.02 Bohr mag/cell
     absolute magnetization    =     0.03 Bohr mag/cell

     convergence has been achieved in   4 iterations

     negative rho (up, down):  9.088E-01 9.088E-01

     Forces acting on atoms (cartesian axes, Ry/au):

     atom    1 type  1   force =    -0.01194164   -0.02201433    0.00550871
     atom    2 type  1   force =    -0.11869735   -0.01482694   -0.00517683
     atom    3 type  1   force =    -0.11732823    0.01294150   -0.00072565
     atom    4 type  1   force =     0.11655678   -0.02026463   -0.00908256
     atom    5 type  1   force =     0.11718754    0.01677154   -0.00300877
     atom    6 type  2   force =    -0.00825656   -0.02137385    0.00554783
     atom    7 type  2   force =    -0.01230987    0.01187489   -0.00638950
     atom    8 type  3   force =    -0.12282661    0.00274060    0.00056619
     atom    9 type  3   force =     0.08713091    0.00574133   -0.03974826
     atom   10 type  3   force =    -0.02197175   -0.03181103   -0.05821690
     atom   11 type  3   force =    -0.02216419   -0.03558569    0.05950892
     atom   12 type  3   force =    -0.01738514    0.03624233   -0.05248516
     atom   13 type  3   force =    -0.02244208    0.02823137    0.06267027
     atom   14 type  3   force =     0.02518695   -0.02904847   -0.05426226
     atom   15 type  3   force =     0.01933490   -0.03982118    0.05467857
     atom   16 type  3   force =     0.02107557    0.03241586   -0.04932132
     atom   17 type  3   force =     0.01897118    0.03433246    0.05969925
     atom   18 type  4   force =    -0.00966149    0.03046923   -0.01411324
     atom   19 type  4   force =    -0.12828547   -0.00445763   -0.11441544
     atom   20 type  4   force =    -0.13391539    0.00557116    0.11243481
     atom   21 type  4   force =     0.12674345   -0.00483843   -0.11722416
     atom   22 type  4   force =     0.15310848    0.00771370    0.10406902
     atom   23 type  5   force =     0.06189000   -0.00100379    0.05948650
     The non-local contrib.  to forces
     atom    1 type  1   force =    -0.00927409   -0.01310667    0.03423400
     atom    2 type  1   force =    -0.24651694   -0.16213591    0.01474337
     atom    3 type  1   force =    -0.24075531    0.15898635   -0.02906964
     atom    4 type  1   force =     0.26132524   -0.15971739    0.02721550
     atom    5 type  1   force =     0.25078651    0.15483130   -0.01851010
     atom    6 type  2   force =     0.00398412   -0.05494108   -0.06527272
     atom    7 type  2   force =    -0.01834588    0.05411517    0.05638227
     atom    8 type  3   force =    -0.26309788    0.00143145   -0.00257896
     atom    9 type  3   force =     0.04868436    0.00119788   -0.10127700
     atom   10 type  3   force =    -0.21282214    0.00534951   -0.20611154
     atom   11 type  3   force =    -0.21626451    0.01040415    0.19482902
     atom   12 type  3   force =    -0.20235375   -0.01970524   -0.17891637
     atom   13 type  3   force =    -0.20624827   -0.00862422    0.20781538
     atom   14 type  3   force =     0.20431984    0.00406931   -0.21836924
     atom   15 type  3   force =     0.22873677    0.00591474    0.18206980
     atom   16 type  3   force =     0.19373081   -0.02019245   -0.18935329
     atom   17 type  3   force =     0.21912928   -0.00328411    0.19490190
     atom   18 type  4   force =     0.00294346    0.06062637   -0.06487950
     atom   19 type  4   force =     0.06177572    0.00947539    0.07454252
     atom   20 type  4   force =     0.05075763   -0.01341866   -0.05947381
     atom   21 type  4   force =    -0.05493933    0.01035888    0.07747545
     atom   22 type  4   force =    -0.06060461   -0.01028252   -0.08493780
     atom   23 type  5   force =    -0.06193965   -0.00011956   -0.02888231
     The ionic contribution  to forces
     atom    1 type  1   force =    -0.40018284   -4.78407975   14.06512697
     atom    2 type  1   force =   -39.69041976   -6.18762858    0.73102593
     atom    3 type  1   force =   -39.66330203    6.17469695   -0.76251121
     atom    4 type  1   force =    39.44272138   -6.42488483    0.64725782
     atom    5 type  1   force =    39.41300123    6.41462957   -0.84424947
     atom    6 type  2   force =    -0.21242398   -3.64157055  -14.06203912
     atom    7 type  2   force =    -0.42593456    3.79366315   14.00250498
     atom    8 type  3   force =   -52.15010811    0.07188888   -0.15244887
     atom    9 type  3   force =    49.96263970    0.07313641   -1.30009629
     atom   10 type  3   force =   -36.05602295   -2.11565158  -23.08004540
     atom   11 type  3   force =   -35.14413728   -0.89459660   22.11891499
     atom   12 type  3   force =   -35.24001082    0.81795123  -22.13310966
     atom   13 type  3   force =   -36.04438103    2.22848422   23.09737745
     atom   14 type  3   force =    35.96708929   -2.15437966  -23.13534421
     atom   15 type  3   force =    34.96271583   -1.02655337   22.24158467
     atom   16 type  3   force =    35.15191642    0.85617605  -22.18765832
     atom   17 type  3   force =    35.86113569    2.36143796   23.22038817
     atom   18 type  4   force =    -0.19840833    4.44411801  -14.01260377
     atom   19 type  4   force =   -35.89888855    0.95665745  -25.55197374
     atom   20 type  4   force =   -35.90916732   -0.95271068   25.58999649
     atom   21 type  4   force =    35.76171989    0.95589104  -25.68925050
     atom   22 type  4   force =    35.38335112   -0.94907507   26.16566952
     atom   23 type  5   force =     5.12709702   -0.01760026    1.03148354
     The local contribution  to forces
     atom    1 type  1   force =     0.39079192    4.77881697  -14.10881222
     atom    2 type  1   force =    39.82458578    6.33664936   -0.76485669
     atom    3 type  1   force =    39.79252220   -6.32334715    0.77791671
     atom    4 type  1   force =   -39.60193171    6.56775814   -0.70189493
     atom    5 type  1   force =   -39.56103385   -6.55569504    0.84188053
     atom    6 type  2   force =     0.19702315    3.67011333   14.12016679
     atom    7 type  2   force =     0.42502421   -3.83785385  -14.08009078
     atom    8 type  3   force =    52.32017585   -0.07074393    0.14081405
     atom    9 type  3   force =   -49.93002508   -0.06978663    1.36413485
     atom   10 type  3   force =    36.26376381    2.06372801   23.24571695
     atom   11 type  3   force =    35.34936226    0.84229115  -22.26868127
     atom   12 type  3   force =    35.44333757   -0.74939016   22.27720787
     atom   13 type  3   force =    36.23740960   -2.18710347  -23.25553927
     atom   14 type  3   force =   -36.17143232    2.10451616   23.31875386
     atom   15 type  3   force =   -35.19386892    0.97210864  -22.37961854
     atom   16 type  3   force =   -35.35019135   -0.78881043   22.34695610
     atom   17 type  3   force =   -36.08127118   -2.31657508  -23.36528956
     atom   18 type  4   force =     0.18277708   -4.46687927   14.04871566
     atom   19 type  4   force =    35.71508202   -0.96896040   25.37551216
     atom   20 type  4   force =    35.72689218    0.97232911  -25.42335785
     atom   21 type  4   force =   -35.59330867   -0.96917268   25.50917288
     atom   22 type  4   force =   -35.19277550    0.96700002  -25.97946616
     atom   23 type  5   force =    -5.00758336    0.01672151   -0.94796927
     The core correction contribution to forces
     atom    1 type  1   force =     0.00242373    0.00041832    0.00013027
     atom    2 type  1   force =    -0.01258801   -0.00188960   -0.00005922
     atom    3 type  1   force =    -0.01242335    0.00285791   -0.00200678
     atom    4 type  1   force =     0.01361992   -0.00305860    0.00301202
     atom    5 type  1   force =     0.01377223    0.00303521    0.00093751
     atom    6 type  2   force =    -0.00025207    0.00239732    0.00266277
     atom    7 type  2   force =     0.00064006   -0.00262500   -0.00200185
     atom    8 type  3   force =    -0.03201382    0.00022642    0.00030990
     atom    9 type  3   force =     0.00913421    0.00080745   -0.01276991
     atom   10 type  3   force =    -0.02139848    0.01002053   -0.01580161
     atom   11 type  3   force =    -0.02436564    0.00940694    0.01751700
     atom   12 type  3   force =    -0.02153966   -0.01007581   -0.01520870
     atom   13 type  3   force =    -0.02301236   -0.00885093    0.01739421
     atom   14 type  3   force =     0.02252964    0.01010436   -0.01645214
     atom   15 type  3   force =     0.02500498    0.01052048    0.01376047
     atom   16 type  3   force =     0.02222679   -0.01065353   -0.01600281
     atom   17 type  3   force =     0.02295883   -0.00909261    0.01443927
     atom   18 type  4   force =    -0.00018125   -0.00316752    0.00315691
     atom   19 type  4   force =    -0.00979446    0.00004168   -0.00968626
     atom   20 type  4   force =    -0.00934092    0.00035444    0.00885058
     atom   21 type  4   force =     0.00940182   -0.00001029   -0.01003058
     atom   22 type  4   force =     0.01019629    0.00018040    0.00997555
     atom   23 type  5   force =     0.00000000    0.00000000    0.00000000
     The Hubbard contrib.    to forces
     atom    1 type  1   force =     0.00000000    0.00000000    0.00000000
     atom    2 type  1   force =     0.00000000    0.00000000    0.00000000
     atom    3 type  1   force =     0.00000000    0.00000000    0.00000000
     atom    4 type  1   force =     0.00000000    0.00000000    0.00000000
     atom    5 type  1   force =     0.00000000    0.00000000    0.00000000
     atom    6 type  2   force =     0.00000000    0.00000000    0.00000000
     atom    7 type  2   force =     0.00000000    0.00000000    0.00000000
     atom    8 type  3   force =     0.00000000    0.00000000    0.00000000
     atom    9 type  3   force =     0.00000000    0.00000000    0.00000000
     atom   10 type  3   force =     0.00000000    0.00000000    0.00000000
     atom   11 type  3   force =     0.00000000    0.00000000    0.00000000
     atom   12 type  3   force =     0.00000000    0.00000000    0.00000000
     atom   13 type  3   force =     0.00000000    0.00000000    0.00000000
     atom   14 type  3   force =     0.00000000    0.00000000    0.00000000
     atom   15 type  3   force =     0.00000000    0.00000000    0.00000000
     atom   16 type  3   force =     0.00000000    0.00000000    0.00000000
     atom   17 type  3   force =     0.00000000    0.00000000    0.00000000
     atom   18 type  4   force =     0.00000000    0.00000000    0.00000000
     atom   19 type  4   force =     0.00000000    0.00000000    0.00000000
     atom   20 type  4   force =     0.00000000    0.00000000    0.00000000
     atom   21 type  4   force =     0.00000000    0.00000000    0.00000000
     atom   22 type  4   force =     0.00000000    0.00000000    0.00000000
     atom   23 type  5   force =     0.00000000    0.00000000    0.00000000
     The SCF correction term to forces
     atom    1 type  1   force =     0.00367472   -0.00400458    0.01379529
     atom    2 type  1   force =     0.00561666    0.00023641    0.01293537
     atom    3 type  1   force =     0.00600535   -0.00019395    0.01391086
     atom    4 type  1   force =     0.00019703   -0.00030333    0.01429262
     atom    5 type  1   force =     0.00003650    0.00002911    0.01589835
     atom    6 type  2   force =     0.00278731    0.00268574    0.00899568
     atom    7 type  2   force =     0.00568137    0.00463404    0.01578146
     atom    8 type  3   force =     0.00159243   -0.00000360    0.01343567
     atom    9 type  3   force =    -0.00392719    0.00044483    0.00922567
     atom   10 type  3   force =     0.00388309    0.00480111   -0.00300972
     atom   11 type  3   force =     0.01261605   -0.00303272   -0.00410523
     atom   12 type  3   force =     0.00255661   -0.00247908   -0.00349271
     atom   13 type  3   force =     0.01316506    0.00438439   -0.00541191
     atom   14 type  3   force =     0.00205559    0.00669998   -0.00388494
     atom   15 type  3   force =    -0.00387869   -0.00175305   -0.00415224
     atom   16 type  3   force =     0.00276798   -0.00404517   -0.00429741
     atom   17 type  3   force =    -0.00360637    0.00190491   -0.00577495
     atom   18 type  4   force =     0.00258263   -0.00416975    0.01046306
     atom   19 type  4   force =     0.00291488   -0.00161315   -0.00384454
     atom   20 type  4   force =     0.00631813   -0.00092444   -0.00461501
     atom   21 type  4   force =     0.00324482   -0.00184676   -0.00562583
     atom   22 type  4   force =     0.01231627   -0.00005051   -0.00820651
     atom   23 type  5   force =     0.00369106    0.00005313    0.00382012

     Total force =     0.503315     Total SCF correction =     0.054530
     SCF correction compared to forces is large: reduce conv_thr to get better values


     Computing stress (Cartesian axis) and pressure


     negative rho (up, down):  9.088E-01 9.088E-01
          total   stress  (Ry/bohr**3)                   (kbar)     P=       86.21
   0.00071708   0.00000089   0.00002905          105.49        0.13        4.27
   0.00000089   0.00066652  -0.00001212            0.13       98.05       -1.78
   0.00002905  -0.00001212   0.00037450            4.27       -1.78       55.09


     Entering Dynamics:    iteration =     2
                           time      =   0.0004 pico-seconds


ATOMIC_POSITIONS (angstrom)
Hf            2.6703065909        2.8271203490        6.6041427473
Hf            1.2532852347        1.2862823804        5.0586435940
Hf            1.2557816075        7.3898058874        5.0882456434
Hf            4.0873303138        1.2862817522        5.0586431772
Hf            4.0848341942        7.3898063429        5.0882454238
Nb            2.6703061508        2.7969261376        3.5157623675
Nb            2.6703050597        5.8763813470        6.6351741510
Ta            1.2096673523        4.3409281887        5.0713035494
Ta            4.1309489193        4.3409284064        5.0713021740
Ta            1.3075580397        1.3141189638        2.0589501724
Ta            1.3030938711        1.3083870649        8.0947636152
Ta            1.3043155288        7.3758302801        2.0464089002
Ta            1.3080163082        7.3650862572        8.0861870240
Ta            4.0330580115        1.3141193114        2.0589506110
Ta            4.0375215303        1.3083866031        8.0947631103
Ta            4.0363005733        7.3758298415        2.0464092615
Ta            4.0325990247        7.3650868745        8.0861866607
Zr            2.6703057802        5.8662924809        3.5275585362
Zr            1.2441136197        4.3220769057        2.0001517919
Zr            1.2406631080        4.3541244983        8.1499585545
Zr            4.0965016959        4.3220768369        2.0001514343
Zr            4.0999580137        4.3541250079        8.1499562411
H             5.3516097327        4.3399937257        5.7773824921


     kinetic energy (Ekin) =          16.17929761 Ry
     temperature           =       77409.36523670 K 
     Ekin + Etot (const)   =       -2926.87980652 Ry
     Ions kinetic stress =          285.74 (kbar)
                                    643.22           0.01         371.02
                                      0.01           0.00           0.00
                                    371.02           0.00         214.02



     Linear momentum :   -0.0000000000    0.0000000000   -0.0000000000

     Writing config-only to output data dir outdir/pwscf.save/
     NEW-OLD atomic charge density approx. for the potential

     Check: negative core charge=   -0.000002

     negative rho (up, down):  9.086E-01 9.086E-01
     Generating pointlists ...
     new r_m :   0.0623 (alat units)  1.0992 (a.u.) for type    3
     new r_m :   0.0623 (alat units)  1.0992 (a.u.) for type    5

     total cpu time spent up to now is      508.7 secs

     Self-consistent Calculation

     iteration #  1     ecut=   120.00 Ry     beta= 0.70
     Davidson diagonalization with overlap
     ethr =  1.00E-06,  avg # of iterations = 18.0

     negative rho (up, down):  9.089E-01 9.089E-01

     total cpu time spent up to now is      563.9 secs

     total energy              =   -2942.92059678 Ry
     estimated scf accuracy    <       0.19306574 Ry

     total magnetization       =     0.02 Bohr mag/cell
     absolute magnetization    =     0.03 Bohr mag/cell

     iteration #  2     ecut=   120.00 Ry     beta= 0.70
     Davidson diagonalization with overlap
     ethr =  6.97E-05,  avg # of iterations =  2.0

     negative rho (up, down):  9.088E-01 9.088E-01

     total cpu time spent up to now is      599.8 secs

     total energy              =   -2942.93567383 Ry
     estimated scf accuracy    <       0.10234109 Ry

     total magnetization       =     0.02 Bohr mag/cell
     absolute magnetization    =     0.03 Bohr mag/cell

     iteration #  3     ecut=   120.00 Ry     beta= 0.70
     Davidson diagonalization with overlap
     ethr =  3.69E-05,  avg # of iterations =  1.0

     negative rho (up, down):  9.086E-01 9.086E-01

     total cpu time spent up to now is      618.8 secs

     total energy              =   -2942.94095251 Ry
     estimated scf accuracy    <       0.00497990 Ry

     total magnetization       =     0.02 Bohr mag/cell
     absolute magnetization    =     0.03 Bohr mag/cell

     iteration #  4     ecut=   120.00 Ry     beta= 0.70
     Davidson diagonalization with overlap
     ethr =  1.80E-06,  avg # of iterations =  6.0

     negative rho (up, down):  9.085E-01 9.085E-01

     Magnetic moment per site  (integrated on atomic sphere of radius R)
     atom   1 (R=0.112)  charge=  9.4656   -0.0000
     atom   2 (R=0.112)  charge=  9.0588   -0.0000
     atom   3 (R=0.112)  charge=  9.0590    0.0000
     atom   4 (R=0.112)  charge=  9.0597    0.0001
     atom   5 (R=0.112)  charge=  9.0593    0.0001
     atom   6 (R=0.110)  charge= 10.3520    0.0000
     atom   7 (R=0.110)  charge= 10.3484    0.0001
     atom   8 (R=0.062)  charge=  4.5410    0.0000
     atom   9 (R=0.062)  charge=  4.5650    0.0000
     atom  10 (R=0.062)  charge=  4.5275   -0.0000
     atom  11 (R=0.062)  charge=  4.5278   -0.0000
     atom  12 (R=0.062)  charge=  4.5267    0.0000
     atom  13 (R=0.062)  charge=  4.5277    0.0000
     atom  14 (R=0.062)  charge=  4.5273    0.0001
     atom  15 (R=0.062)  charge=  4.5263    0.0002
     atom  16 (R=0.062)  charge=  4.5237    0.0003
     atom  17 (R=0.062)  charge=  4.5278    0.0002
     atom  18 (R=0.111)  charge=  9.4564    0.0000
     atom  19 (R=0.111)  charge=  8.9973    0.0004
     atom  20 (R=0.111)  charge=  9.0008   -0.0007
     atom  21 (R=0.111)  charge=  8.9977    0.0012
     atom  22 (R=0.111)  charge=  8.9928    0.0002
     atom  23 (R=0.062)  charge=  0.8632    0.0000

     total cpu time spent up to now is      635.3 secs

     End of self-consistent calculation

 ------ SPIN UP ------------


          k = 0.0000 0.0000 0.0000 ( 61588 PWs)   bands (ev):

   -60.7774 -60.7710 -60.7297 -60.7256 -60.6968 -60.6909 -60.6497 -60.6467
   -60.4528 -60.0442 -54.3880 -54.3422 -54.2634 -54.2181 -52.6825 -46.2599
   -46.2378 -41.6565 -41.6178 -41.5391 -41.5138 -39.8216 -27.7763 -27.7713
   -27.6895 -27.6838 -27.5903 -27.5847 -27.4616 -27.4534 -27.3443 -27.3288
   -27.2684 -27.2600 -27.2544 -27.2272 -27.2195 -27.1592 -27.1569 -27.0972
   -27.0299 -26.9563 -26.9521 -26.9457 -26.9351 -26.8973 -26.8856 -26.8759
   -26.8534 -26.8506 -26.7705 -26.7094 -24.1715 -23.9608 -23.6600 -23.5773
   -23.3171 -23.1813 -23.1591 -23.0572 -22.9311 -22.8657 -22.8453 -22.6300
   -22.5001 -22.4459 -22.3889 -22.3401 -22.2778 -22.2239 -21.7463 -21.6826
   -21.6134 -20.1878 -19.9525 -19.8263 -19.8082 -19.6329 -19.6041 -19.5901
   -19.5687 -19.5557 -19.5267 -19.3735 -19.3581 -18.1754 -17.9513 -17.8297
     1.3552   2.3420   2.9350   3.1459   3.2923   3.4606   3.4862   3.6756
     3.7378   3.8763   3.9259   4.0408   4.2965   4.4923   4.5323   4.6902
     4.7337   4.8998   5.0371   5.0692   5.1337   5.2623   5.2912   5.3357
     5.4204   5.5642   5.5807   5.7356   5.7557   5.7645   5.7792   5.8008
     5.9286   6.1090   6.1631   6.2374   6.2722   6.3375   6.3705   6.3719
     6.4635   6.6578   6.6824   6.7033   6.8689   6.9662   7.0160   7.0526
     7.1056   7.1528   7.2653   7.3016   7.3290   7.4196   7.5377   7.5616
     7.6224   7.6687   7.8995   7.9698   8.0863   8.0903   8.1285   8.1877
     8.2534   8.3509   8.3557   8.3752   8.5180   8.5302   8.6368   8.7682
     8.7830   8.9035   8.9697   9.0655   9.1760   9.2576   9.3015

 ------ SPIN DOWN ----------


          k = 0.0000 0.0000 0.0000 ( 61588 PWs)   bands (ev):

   -60.7771 -60.7707 -60.7295 -60.7253 -60.6963 -60.6907 -60.6495 -60.6464
   -60.4527 -60.0442 -54.3879 -54.3422 -54.2633 -54.2180 -52.6825 -46.2599
   -46.2377 -41.6564 -41.6171 -41.5396 -41.5130 -39.8216 -27.7758 -27.7708
   -27.6892 -27.6835 -27.5900 -27.5843 -27.4612 -27.4528 -27.3440 -27.3284
   -27.2682 -27.2599 -27.2540 -27.2269 -27.2190 -27.1589 -27.1565 -27.0971
   -27.0298 -26.9559 -26.9517 -26.9453 -26.9345 -26.8973 -26.8851 -26.8755
   -26.8530 -26.8502 -26.7706 -26.7093 -24.1714 -23.9608 -23.6600 -23.5773
   -23.3171 -23.1812 -23.1590 -23.0571 -22.9311 -22.8656 -22.8452 -22.6300
   -22.5001 -22.4459 -22.3889 -22.3401 -22.2777 -22.2238 -21.7463 -21.6826
   -21.6134 -20.1871 -19.9530 -19.8257 -19.8073 -19.6327 -19.6039 -19.5897
   -19.5692 -19.5546 -19.5272 -19.3740 -19.3570 -18.1754 -17.9512 -17.8296
     1.3555   2.3422   2.9356   3.1461   3.2924   3.4612   3.4866   3.6758
     3.7380   3.8766   3.9264   4.0413   4.2968   4.4926   4.5325   4.6904
     4.7341   4.9003   5.0373   5.0699   5.1341   5.2626   5.2914   5.3360
     5.4211   5.5645   5.5809   5.7360   5.7559   5.7649   5.7796   5.8009
     5.9288   6.1097   6.1635   6.2377   6.2724   6.3379   6.3708   6.3722
     6.4640   6.6582   6.6828   6.7036   6.8695   6.9668   7.0173   7.0529
     7.1074   7.1538   7.2666   7.3029   7.3295   7.4214   7.5389   7.5619
     7.6232   7.6693   7.8999   7.9704   8.0871   8.0912   8.1290   8.1887
     8.2546   8.3512   8.3566   8.3758   8.5185   8.5310   8.6372   8.7686
     8.7835   8.9049   8.9703   9.0660   9.1764   9.2578   9.3018

     the Fermi energy is     7.2412 ev

!    total energy              =   -2942.94077055 Ry
     estimated scf accuracy    <       0.00089317 Ry
     smearing contrib. (-TS)   =      -0.10317594 Ry
     internal energy E=F+TS    =   -2942.83759461 Ry

     total magnetization       =     0.02 Bohr mag/cell
     absolute magnetization    =     0.03 Bohr mag/cell

     convergence has been achieved in   4 iterations

     negative rho (up, down):  9.085E-01 9.085E-01

     Forces acting on atoms (cartesian axes, Ry/au):

     atom    1 type  1   force =    -0.00909980   -0.02546147    0.01550908
     atom    2 type  1   force =    -0.11471426   -0.01593261    0.00579273
     atom    3 type  1   force =    -0.11373591    0.01466640    0.01015823
     atom    4 type  1   force =     0.11298213   -0.02145020    0.00294714
     atom    5 type  1   force =     0.11359894    0.01845761    0.00884268
     atom    6 type  2   force =    -0.00901443   -0.02242323    0.00125086
     atom    7 type  2   force =    -0.01112843    0.01159490   -0.00780531
     atom    8 type  3   force =    -0.13080992    0.00278606    0.00737341
     atom    9 type  3   force =    -0.17378409    0.00977051   -0.20483219
     atom   10 type  3   force =    -0.02051799   -0.02913606   -0.06084913
     atom   11 type  3   force =    -0.01935253   -0.03605212    0.05425477
     atom   12 type  3   force =    -0.01685103    0.03456903   -0.05552614
     atom   13 type  3   force =    -0.01963289    0.02955947    0.05698374
     atom   14 type  3   force =     0.02420723   -0.02600564   -0.05865928
     atom   15 type  3   force =     0.01745063   -0.03983696    0.04928703
     atom   16 type  3   force =     0.02065565    0.03014063   -0.05383204
     atom   17 type  3   force =     0.01754332    0.03588220    0.05473957
     atom   18 type  4   force =    -0.00848874    0.02963358   -0.01303732
     atom   19 type  4   force =    -0.12720797   -0.00470811   -0.11714770
     atom   20 type  4   force =    -0.13180964    0.00497107    0.10818923
     atom   21 type  4   force =     0.12634651   -0.00542085   -0.12398351
     atom   22 type  4   force =     0.14338986    0.00686024    0.10713716
     atom   23 type  5   force =     0.32997337   -0.00246445    0.21320699
     The non-local contrib.  to forces
     atom    1 type  1   force =    -0.00872811   -0.01479796    0.04125356
     atom    2 type  1   force =    -0.24336770   -0.16329785    0.02161186
     atom    3 type  1   force =    -0.23781763    0.16029060   -0.02196912
     atom    4 type  1   force =     0.25715182   -0.16180120    0.03160765
     atom    5 type  1   force =     0.24636136    0.15626662   -0.01480172
     atom    6 type  2   force =     0.00481024   -0.05747437   -0.06646219
     atom    7 type  2   force =    -0.01697131    0.05358670    0.05836273
     atom    8 type  3   force =    -0.25005417    0.00136437   -0.00149223
     atom    9 type  3   force =     0.09878551    0.00475771   -0.08655595
     atom   10 type  3   force =    -0.21275945    0.00788753   -0.20955238
     atom   11 type  3   force =    -0.21149862    0.01285146    0.19166614
     atom   12 type  3   force =    -0.20300287   -0.02215294   -0.18261111
     atom   13 type  3   force =    -0.20172765   -0.01060079    0.20439824
     atom   14 type  3   force =     0.20574912    0.00510273   -0.22037362
     atom   15 type  3   force =     0.22286898    0.00232705    0.18326912
     atom   16 type  3   force =     0.19577888   -0.02084778   -0.19128866
     atom   17 type  3   force =     0.21394015    0.00089649    0.19684905
     atom   18 type  4   force =     0.00402421    0.06099344   -0.06461188
     atom   19 type  4   force =     0.06433058    0.00950310    0.07356184
     atom   20 type  4   force =     0.05338373   -0.01372462   -0.06263212
     atom   21 type  4   force =    -0.05687510    0.01018817    0.07673188
     atom   22 type  4   force =    -0.06181503   -0.01109696   -0.07695239
     atom   23 type  5   force =    -0.10270009   -0.00035222   -0.05569538
     The ionic contribution  to forces
     atom    1 type  1   force =    -0.45748844   -4.82818652   14.11454160
     atom    2 type  1   force =   -39.71898959   -6.19372558    0.73709547
     atom    3 type  1   force =   -39.69200308    6.18083561   -0.75629346
     atom    4 type  1   force =    39.45197548   -6.47613481    0.65560656
     atom    5 type  1   force =    39.42237131    6.46617473   -0.83516380
     atom    6 type  2   force =    -0.25872149   -3.67268183  -14.09946171
     atom    7 type  2   force =    -0.48545535    3.84037809   14.05557384
     atom    8 type  3   force =   -52.22825747    0.07189051   -0.14440046
     atom    9 type  3   force =    48.95027545    0.07420008   -1.88258074
     atom   10 type  3   force =   -36.06911481   -2.11840989  -23.08809931
     atom   11 type  3   force =   -35.16296238   -0.89491972   22.12300457
     atom   12 type  3   force =   -35.25304869    0.82068204  -22.14117135
     atom   13 type  3   force =   -36.06325892    2.22886581   23.10156749
     atom   14 type  3   force =    35.97022614   -2.16511851  -23.15553815
     atom   15 type  3   force =    34.98391940   -1.02809293   22.25469939
     atom   16 type  3   force =    35.15514261    0.86674718  -22.20774533
     atom   17 type  3   force =    35.88235371    2.36311440   23.23372580
     atom   18 type  4   force =    -0.24186325    4.47298187  -14.04746939
     atom   19 type  4   force =   -35.91862603    0.95658666  -25.56401722
     atom   20 type  4   force =   -35.94386511   -0.95269857   25.59706831
     atom   21 type  4   force =    35.76162818    0.95562040  -25.74145498
     atom   22 type  4   force =    35.45916570   -0.94903305   26.21295462
     atom   23 type  5   force =     6.45659664   -0.01907599    1.57755824
     The local contribution  to forces
     atom    1 type  1   force =     0.45775808    4.80886798  -14.11948326
     atom    2 type  1   force =    39.86928033    6.33875391   -0.72739306
     atom    3 type  1   force =    39.83729429   -6.32452309    0.81419983
     atom    4 type  1   force =   -39.61661694    6.61630573   -0.65897595
     atom    5 type  1   force =   -39.57571093   -6.60262166    0.88399538
     atom    6 type  2   force =     0.24694066    3.69983854   14.17451643
     atom    7 type  2   force =     0.49317934   -3.87264901  -14.09729178
     atom    8 type  3   force =    52.37974361   -0.07130921    0.18071797
     atom    9 type  3   force =   -49.23214660   -0.07198804    1.81454195
     atom   10 type  3   force =    36.29194922    2.08142800   23.25001082
     atom   11 type  3   force =    35.39327861    0.83671729  -22.28623225
     atom   12 type  3   force =    35.46981707   -0.76163106   22.28304204
     atom   13 type  3   force =    36.27956243   -2.17614029  -23.27418929
     atom   14 type  3   force =   -36.17604737    2.13010762   23.32527394
     atom   15 type  3   force =   -35.21723920    0.97188952  -22.40807404
     atom   16 type  3   force =   -35.35335544   -0.80987755   22.35508319
     atom   17 type  3   force =   -36.10313710   -2.31046348  -23.39544612
     atom   18 type  4   force =     0.23157432   -4.49742406   14.10656967
     atom   19 type  4   force =    35.74478362   -0.97223418   25.37704030
     atom   20 type  4   force =    35.77593663    0.96815761  -25.43680508
     atom   21 type  4   force =   -35.59192990   -0.97213121   25.54160848
     atom   22 type  4   force =   -35.27772172    0.96312553  -26.03227438
     atom   23 type  5   force =    -6.02877223    0.01674086   -1.30713497
     The core correction contribution to forces
     atom    1 type  1   force =     0.00212654    0.00023178    0.00015773
     atom    2 type  1   force =    -0.01235532   -0.00199751    0.00013565
     atom    3 type  1   force =    -0.01222011    0.00294982   -0.00176827
     atom    4 type  1   force =     0.01325650   -0.00309397    0.00229545
     atom    5 type  1   force =     0.01337710    0.00297894    0.00031702
     atom    6 type  2   force =    -0.00020804    0.00269670    0.00284366
     atom    7 type  2   force =     0.00060650   -0.00262322   -0.00207267
     atom    8 type  3   force =    -0.03063783    0.00033560    0.00025551
     atom    9 type  3   force =     0.00972964    0.00158877   -0.01574698
     atom   10 type  3   force =    -0.02136405    0.01007033   -0.01585944
     atom   11 type  3   force =    -0.02435697    0.00957069    0.01747350
     atom   12 type  3   force =    -0.02152478   -0.01006551   -0.01533921
     atom   13 type  3   force =    -0.02296548   -0.00900632    0.01733803
     atom   14 type  3   force =     0.02265150    0.00980626   -0.01656406
     atom   15 type  3   force =     0.02429941    0.01021036    0.01421627
     atom   16 type  3   force =     0.02242201   -0.01044602   -0.01616937
     atom   17 type  3   force =     0.02240696   -0.00880830    0.01499337
     atom   18 type  4   force =    -0.00012841   -0.00336220    0.00340222
     atom   19 type  4   force =    -0.00984934    0.00002718   -0.00971467
     atom   20 type  4   force =    -0.00941423    0.00034971    0.00898228
     atom   21 type  4   force =     0.00948176   -0.00001610   -0.01011013
     atom   22 type  4   force =     0.01032670    0.00020102    0.00950079
     atom   23 type  5   force =     0.00000000    0.00000000    0.00000000
     The Hubbard contrib.    to forces
     atom    1 type  1   force =     0.00000000    0.00000000    0.00000000
     atom    2 type  1   force =     0.00000000    0.00000000    0.00000000
     atom    3 type  1   force =     0.00000000    0.00000000    0.00000000
     atom    4 type  1   force =     0.00000000    0.00000000    0.00000000
     atom    5 type  1   force =     0.00000000    0.00000000    0.00000000
     atom    6 type  2   force =     0.00000000    0.00000000    0.00000000
     atom    7 type  2   force =     0.00000000    0.00000000    0.00000000
     atom    8 type  3   force =     0.00000000    0.00000000    0.00000000
     atom    9 type  3   force =     0.00000000    0.00000000    0.00000000
     atom   10 type  3   force =     0.00000000    0.00000000    0.00000000
     atom   11 type  3   force =     0.00000000    0.00000000    0.00000000
     atom   12 type  3   force =     0.00000000    0.00000000    0.00000000
     atom   13 type  3   force =     0.00000000    0.00000000    0.00000000
     atom   14 type  3   force =     0.00000000    0.00000000    0.00000000
     atom   15 type  3   force =     0.00000000    0.00000000    0.00000000
     atom   16 type  3   force =     0.00000000    0.00000000    0.00000000
     atom   17 type  3   force =     0.00000000    0.00000000    0.00000000
     atom   18 type  4   force =     0.00000000    0.00000000    0.00000000
     atom   19 type  4   force =     0.00000000    0.00000000    0.00000000
     atom   20 type  4   force =     0.00000000    0.00000000    0.00000000
     atom   21 type  4   force =     0.00000000    0.00000000    0.00000000
     atom   22 type  4   force =     0.00000000    0.00000000    0.00000000
     atom   23 type  5   force =     0.00000000    0.00000000    0.00000000
     The SCF correction term to forces
     atom    1 type  1   force =    -0.00257531    0.00838160   -0.01940812
     atom    2 type  1   force =    -0.00908941    0.00429277   -0.02410478
     atom    3 type  1   force =    -0.00879682   -0.00492819   -0.02245834
     atom    4 type  1   force =     0.00740783    0.00323240   -0.02603416
     atom    5 type  1   force =     0.00739267   -0.00438268   -0.02395179
     atom    6 type  2   force =    -0.00164323    0.00515608   -0.00863292
     atom    7 type  2   force =    -0.00229503   -0.00713931   -0.02082502
     atom    8 type  3   force =    -0.00141149    0.00046314   -0.02615496
     atom    9 type  3   force =    -0.00023553    0.00117033   -0.03293805
     atom   10 type  3   force =    -0.00903633   -0.01015369    0.00420359
     atom   11 type  3   force =    -0.01362060   -0.00031349    0.00989523
     atom   12 type  3   force =    -0.00889919    0.00769485    0.00210591
     atom   13 type  3   force =    -0.01105070   -0.00360059    0.00942168
     atom   14 type  3   force =     0.00182041   -0.00594540    0.01009503
     atom   15 type  3   force =     0.00379461    0.00378738    0.00672870
     atom   16 type  3   force =     0.00086017    0.00452313    0.00784054
     atom   17 type  3   force =     0.00217216   -0.00889857    0.00616989
     atom   18 type  4   force =    -0.00190303   -0.00359712   -0.00937553
     atom   19 type  4   force =    -0.00765423    0.00136748    0.00753446
     atom   20 type  4   force =    -0.00765810    0.00284529    0.00312826
     atom   21 type  4   force =     0.00423414    0.00087623    0.01079365
     atom   22 type  4   force =     0.01362678    0.00362204   -0.00453907
     atom   23 type  5   force =     0.00504162    0.00018125    0.00003153

     Total force =     0.677507     Total SCF correction =     0.086307
     SCF correction compared to forces is large: reduce conv_thr to get better values


     Computing stress (Cartesian axis) and pressure


     negative rho (up, down):  9.085E-01 9.085E-01
          total   stress  (Ry/bohr**3)                   (kbar)     P=       93.73
   0.00083748   0.00000135   0.00008154          123.20        0.20       12.00
   0.00000135   0.00066117  -0.00001159            0.20       97.26       -1.70
   0.00008154  -0.00001159   0.00041288           12.00       -1.70       60.74


     Entering Dynamics:    iteration =     3
                           time      =   0.0006 pico-seconds


ATOMIC_POSITIONS (angstrom)
Hf            2.6704590431        2.8271169163        6.6042330596
Hf            1.2534225243        1.2862801403        5.0587324618
[...]
     3.6948   3.8710   3.8803   4.0853   4.2633   4.4559   4.6230   4.6395
     4.7243   4.9672   4.9994   5.0694   5.2002   5.2409   5.2708   5.3105
     5.5004   5.5529   5.5584   5.6525   5.6639   5.7073   5.7308   5.8717
     5.9231   6.0450   6.0888   6.1948   6.2350   6.2732   6.3247   6.3840
     6.4284   6.5660   6.6301   6.6467   6.7273   6.8744   6.9712   7.0117
     7.0618   7.0955   7.2262   7.2383   7.2823   7.3972   7.4750   7.5622
     7.6033   7.7904   7.8803   7.9637   8.0438   8.0548   8.1097   8.2162
     8.2234   8.2557   8.2979   8.3270   8.3460   8.4940   8.5300   8.6131
     8.7291   8.8084   8.8842   9.0279   9.0352   9.1458   9.2163

     the Fermi energy is     7.1934 ev

!    total energy              =   -2942.95622847 Ry
     estimated scf accuracy    <       0.00019457 Ry
     smearing contrib. (-TS)   =      -0.09682989 Ry
     internal energy E=F+TS    =   -2942.85939858 Ry

     total magnetization       =     0.00 Bohr mag/cell
     absolute magnetization    =     0.00 Bohr mag/cell

     convergence has been achieved in   5 iterations

     negative rho (up, down):  9.088E-01 9.088E-01

     Forces acting on atoms (cartesian axes, Ry/au):

     atom    1 type  1   force =    -0.00321785   -0.02393961    0.00862830
     atom    2 type  1   force =    -0.11500916   -0.01827203   -0.00317302
     atom    3 type  1   force =    -0.11336119    0.01577091    0.00169599
     atom    4 type  1   force =     0.11616495   -0.01671710   -0.00379821
     atom    5 type  1   force =     0.11410013    0.01518271    0.00180394
     atom    6 type  2   force =    -0.01299338   -0.02156598    0.00088568
     atom    7 type  2   force =    -0.00269889    0.01331639   -0.00660661
     atom    8 type  3   force =    -0.12372227    0.00229157    0.00052337
     atom    9 type  3   force =     0.14580950    0.00183878    0.02079472
     atom   10 type  3   force =    -0.02180232   -0.03076309   -0.05756470
     atom   11 type  3   force =    -0.01929655   -0.03476180    0.05500944
     atom   12 type  3   force =    -0.01772485    0.03595352   -0.05265597
     atom   13 type  3   force =    -0.01639800    0.02866982    0.05802537
     atom   14 type  3   force =     0.02447915   -0.03389125   -0.05891797
     atom   15 type  3   force =     0.01906934   -0.03559521    0.05554483
     atom   16 type  3   force =     0.01870606    0.03816859   -0.05352862
     atom   17 type  3   force =     0.01766323    0.03033893    0.05893425
     atom   18 type  4   force =    -0.01232525    0.03134499   -0.02155876
     atom   19 type  4   force =    -0.12410243   -0.00459435   -0.11700849
     atom   20 type  4   force =    -0.16358437    0.00569282    0.11558514
     atom   21 type  4   force =     0.12499817   -0.00512738   -0.12190522
     atom   22 type  4   force =     0.16190058    0.00643088    0.11261830
     atom   23 type  5   force =     0.00334539    0.00022789    0.00666823
     The non-local contrib.  to forces
     atom    1 type  1   force =     0.00088528   -0.01048869    0.01666025
     atom    2 type  1   force =    -0.24846652   -0.16540029    0.01635053
     atom    3 type  1   force =    -0.23997450    0.16184938   -0.02654759
     atom    4 type  1   force =     0.25176781   -0.16664408    0.01616056
     atom    5 type  1   force =     0.24386659    0.16360143   -0.02722674
     atom    6 type  2   force =     0.00499980   -0.04359317   -0.04990224
     atom    7 type  2   force =     0.00414599    0.05739450    0.05203374
     atom    8 type  3   force =    -0.29613424   -0.00177238    0.01330203
     atom    9 type  3   force =     0.25337780    0.00371652    0.00357669
     atom   10 type  3   force =    -0.20768862    0.00429259   -0.21116508
     atom   11 type  3   force =    -0.23510321    0.01054364    0.19400170
     atom   12 type  3   force =    -0.19900126   -0.01893982   -0.18324661
     atom   13 type  3   force =    -0.22436133   -0.00771445    0.20708265
     atom   14 type  3   force =     0.20572852    0.00364337   -0.21067873
     atom   15 type  3   force =     0.23258112    0.00881764    0.19480915
     atom   16 type  3   force =     0.19437848   -0.02004679   -0.18150149
     atom   17 type  3   force =     0.22288760   -0.00463318    0.20890644
     atom   18 type  4   force =     0.00259515    0.05147363   -0.04684903
     atom   19 type  4   force =     0.05802446    0.01157594    0.06906493
     atom   20 type  4   force =     0.05534582   -0.01460592   -0.08613677
     atom   21 type  4   force =    -0.06217211    0.01098676    0.07656456
     atom   22 type  4   force =    -0.06277843   -0.01427358   -0.08541836
     atom   23 type  5   force =     0.00059218    0.00013502    0.00211867
     The ionic contribution  to forces
     atom    1 type  1   force =     0.21212563   -4.72235442   14.21836558
     atom    2 type  1   force =   -39.59325840   -6.26671437    0.72061961
     atom    3 type  1   force =   -39.56832042    6.25343701   -0.76995508
     atom    4 type  1   force =    39.72627311   -6.17269087    0.79890076
     atom    5 type  1   force =    39.70208933    6.16072160   -0.69213192
     atom    6 type  2   force =    -0.21055462   -4.10381157  -14.31477885
     atom    7 type  2   force =     0.22329973    3.72218151   14.15491093
     atom    8 type  3   force =   -52.34020130    0.07299680   -0.14916825
     atom    9 type  3   force =    51.64607141    0.11243212    0.23367724
     atom   10 type  3   force =   -36.01025187   -2.13929734  -23.04097553
     atom   11 type  3   force =   -34.93460166   -0.94127885   22.08066218
     atom   12 type  3   force =   -35.19825976    0.84224249  -22.09602799
     atom   13 type  3   force =   -35.83645785    2.27105132   23.05737508
     atom   14 type  3   force =    36.03867011   -2.15191009  -23.03561018
     atom   15 type  3   force =    35.00918391   -0.87843162   22.01682356
     atom   16 type  3   force =    35.22612848    0.85493834  -22.09117472
     atom   17 type  3   force =    35.91116639    2.20806520   22.99353063
     atom   18 type  4   force =    -0.20769850    4.87898595  -14.25662012
     atom   19 type  4   force =   -35.88461884    0.95378190  -25.53774727
     atom   20 type  4   force =   -35.40587144   -0.94546791   25.58605228
     atom   21 type  4   force =    35.94710460    0.95205373  -25.67008585
     atom   22 type  4   force =    35.59252389   -0.94779607   25.25622241
     atom   23 type  5   force =    -0.04454193   -0.01313485    0.53713550
     The local contribution  to forces
     atom    1 type  1   force =    -0.22496447    4.70875342  -14.22812721
     atom    2 type  1   force =    39.73556725    6.41750514   -0.74261617
     atom    3 type  1   force =    39.70402537   -6.40356490    0.79847604
     atom    4 type  1   force =   -39.87900353    6.32401204   -0.82182484
     atom    5 type  1   force =   -39.84919833   -6.31088399    0.72001346
     atom    6 type  2   force =     0.18098460    4.12277646   14.35512798
     atom    7 type  2   force =    -0.24161078   -3.76606864  -14.21622676
     atom    8 type  3   force =    52.54162637   -0.06935648    0.13601856
     atom    9 type  3   force =   -51.79625209   -0.11509630   -0.21952293
     atom   10 type  3   force =    36.21105727    2.09216283   23.20682865
     atom   11 type  3   force =    35.16871001    0.89034858  -22.23618669
     atom   12 type  3   force =    35.39407564   -0.77340325   22.23843391
     atom   13 type  3   force =    36.05943612   -2.22843527  -23.22313565
     atom   14 type  3   force =   -36.24946271    2.10233063   23.20132111
     atom   15 type  3   force =   -35.25455964    0.82927566  -22.17237344
     atom   16 type  3   force =   -35.43028444   -0.78370391   22.23293226
     atom   17 type  3   force =   -36.14571615   -2.16655372  -23.15985842
     atom   18 type  4   force =     0.18262586   -4.89603988   14.27283026
     atom   19 type  4   force =    35.70509567   -0.97126605   25.35814696
     atom   20 type  4   force =    35.18649499    0.96423138  -25.39671441
     atom   21 type  4   force =   -35.77494741   -0.96872861   25.47761019
     atom   22 type  4   force =   -35.38694375    0.96631534  -25.06534698
     atom   23 type  5   force =     0.04849710    0.01318346   -0.53192178
     The core correction contribution to forces
     atom    1 type  1   force =     0.00002204    0.00128404   -0.00081437
     atom    2 type  1   force =    -0.01246489   -0.00231382    0.00120806
     atom    3 type  1   force =    -0.01271173    0.00323428   -0.00117049
     atom    4 type  1   force =     0.01341407   -0.00266721    0.00100388
     atom    5 type  1   force =     0.01361867    0.00381021   -0.00141826
     atom    6 type  2   force =    -0.00035934    0.00188071    0.00185322
     atom    7 type  2   force =    -0.00020162   -0.00280260   -0.00215287
     atom    8 type  3   force =    -0.03460009   -0.00025291    0.00125555
     atom    9 type  3   force =     0.03196316   -0.00011339    0.00136931
     atom   10 type  3   force =    -0.02257515    0.00970853   -0.01726655
     atom   11 type  3   force =    -0.02467780    0.00960824    0.01593785
     atom   12 type  3   force =    -0.02268865   -0.00966563   -0.01674094
     atom   13 type  3   force =    -0.02263391   -0.00886509    0.01596919
     atom   14 type  3   force =     0.02224251    0.00985775   -0.01669344
     atom   15 type  3   force =     0.02426592    0.00979774    0.01597204
     atom   16 type  3   force =     0.02230582   -0.01007016   -0.01617674
     atom   17 type  3   force =     0.02239855   -0.00905550    0.01606062
     atom   18 type  4   force =    -0.00023680   -0.00261384    0.00199691
     atom   19 type  4   force =    -0.00970646   -0.00009693   -0.00940070
     atom   20 type  4   force =    -0.00977801    0.00040869    0.01050206
     atom   21 type  4   force =     0.00992866   -0.00006828   -0.00995251
     atom   22 type  4   force =     0.01017403    0.00037973    0.01036875
     atom   23 type  5   force =     0.00000000    0.00000000    0.00000000
     The Hubbard contrib.    to forces
     atom    1 type  1   force =     0.00000000    0.00000000    0.00000000
     atom    2 type  1   force =     0.00000000    0.00000000    0.00000000
     atom    3 type  1   force =     0.00000000    0.00000000    0.00000000
     atom    4 type  1   force =     0.00000000    0.00000000    0.00000000
     atom    5 type  1   force =     0.00000000    0.00000000    0.00000000
     atom    6 type  2   force =     0.00000000    0.00000000    0.00000000
     atom    7 type  2   force =     0.00000000    0.00000000    0.00000000
     atom    8 type  3   force =     0.00000000    0.00000000    0.00000000
     atom    9 type  3   force =     0.00000000    0.00000000    0.00000000
     atom   10 type  3   force =     0.00000000    0.00000000    0.00000000
     atom   11 type  3   force =     0.00000000    0.00000000    0.00000000
     atom   12 type  3   force =     0.00000000    0.00000000    0.00000000
     atom   13 type  3   force =     0.00000000    0.00000000    0.00000000
     atom   14 type  3   force =     0.00000000    0.00000000    0.00000000
     atom   15 type  3   force =     0.00000000    0.00000000    0.00000000
     atom   16 type  3   force =     0.00000000    0.00000000    0.00000000
     atom   17 type  3   force =     0.00000000    0.00000000    0.00000000
     atom   18 type  4   force =     0.00000000    0.00000000    0.00000000
     atom   19 type  4   force =     0.00000000    0.00000000    0.00000000
     atom   20 type  4   force =     0.00000000    0.00000000    0.00000000
     atom   21 type  4   force =     0.00000000    0.00000000    0.00000000
     atom   22 type  4   force =     0.00000000    0.00000000    0.00000000
     atom   23 type  5   force =     0.00000000    0.00000000    0.00000000
     The SCF correction term to forces
     atom    1 type  1   force =     0.00763136   -0.00111190    0.00209336
     atom    2 type  1   force =     0.00253107   -0.00132662    0.00081426
     atom    3 type  1   force =     0.00253776    0.00083720    0.00044242
     atom    4 type  1   force =     0.00263117    0.00129508    0.00151074
     atom    5 type  1   force =     0.00264155   -0.00204447    0.00211672
     atom    6 type  2   force =     0.01085385    0.00120366    0.00813488
     atom    7 type  2   force =     0.01058547    0.00263368    0.00437768
     atom    8 type  3   force =     0.00450466    0.00069861   -0.00133521
     atom    9 type  3   force =     0.00956690    0.00092189    0.00124373
     atom   10 type  3   force =     0.00657371    0.00239237    0.00456312
     atom   11 type  3   force =     0.00529378   -0.00396134    0.00014372
     atom   12 type  3   force =     0.00706686   -0.00425820    0.00447498
     atom   13 type  3   force =     0.00653665    0.00265538    0.00028342
     atom   14 type  3   force =     0.00621840    0.00220917    0.00229259
     atom   15 type  3   force =     0.00651570   -0.00503256   -0.00013716
     atom   16 type  3   force =     0.00509539   -0.00292682    0.00194138
     atom   17 type  3   force =     0.00584451    0.00253820   -0.00015570
     atom   18 type  4   force =     0.00930671   -0.00043880    0.00663253
     atom   19 type  4   force =     0.00602042    0.00143286    0.00247690
     atom   20 type  4   force =     0.00914195    0.00114865    0.00143129
     atom   21 type  4   force =     0.00400210    0.00065109    0.00350770
     atom   22 type  4   force =     0.00784251    0.00182753   -0.00365821
     atom   23 type  5   force =    -0.00228429    0.00006633   -0.00111484

     Total force =     0.519716     Total SCF correction =     0.037003


     Computing stress (Cartesian axis) and pressure


     negative rho (up, down):  9.088E-01 9.088E-01
          total   stress  (Ry/bohr**3)                   (kbar)     P=       82.01
   0.00060924   0.00000018   0.00000613           89.62        0.03        0.90
   0.00000018   0.00066005  -0.00001300            0.03       97.10       -1.91
   0.00000613  -0.00001300   0.00040311            0.90       -1.91       59.30


     Entering Dynamics:    iteration =    20
                           time      =   0.0041 pico-seconds


ATOMIC_POSITIONS (angstrom)
Hf            2.6730717146        2.8269168465        6.6058102912
Hf            1.2547132999        1.2861146158        5.0602210163
Hf            1.2572218495        7.3899518240        5.0898898614
Hf            4.0914261199        1.2861101388        5.0601975903
Hf            4.0889313475        7.3899394915        5.0898683786
Nb            2.6730737039        2.7965755781        3.5175171910
Nb            2.6730406787        5.8765537066        6.6365597685
Ta            1.2110762380        4.3409622032        5.0729553119
Ta            4.0588750762        4.3413879708        5.0271934683
Ta            1.3100722003        1.3137479997        2.0599056840
Ta            1.3056265309        1.3079687470        8.0970035367
Ta            1.3068714190        7.3762495150        2.0474127159
Ta            1.3105577681        7.3654273906        8.0884543661
Ta            4.0360864974        1.3138170737        2.0599210760
Ta            4.0405019915        1.3079707280        8.0969653766
Ta            4.0392949360        7.3761842351        2.0474258118
Ta            4.0355664895        7.3654424146        8.0884381544
Zr            2.6730614182        5.8667991842        3.5289732352
Zr            1.2440324033        4.3219711704        1.9991772159
Zr            1.2404480863        4.3542463190        8.1540628850
Zr            4.1021282634        4.3219606756        1.9991035332
Zr            4.1059885965        4.3542811016        8.1539630592
H             7.5949570231        4.3050914717        7.2326356924


     kinetic energy (Ekin) =          15.97790632 Ry
     temperature           =       76445.81462228 K 
     Ekin + Etot (const)   =       -2926.97832215 Ry
     Ions kinetic stress =          282.19 (kbar)
                                    606.56          -6.46         381.30
                                     -6.46           0.08          -4.06
                                    381.30          -4.06         239.92



     Linear momentum :    0.0000000000    0.0000000000   -0.0000000000

     The maximum number of steps has been reached.

     End of molecular dynamics calculation

     diffusion coefficients :
     atom     1   D =       0.00000005 cm^2/s
     atom     2   D =       0.00000002 cm^2/s
     atom     3   D =       0.00000003 cm^2/s
     atom     4   D =       0.00000009 cm^2/s
     atom     5   D =       0.00000009 cm^2/s
     atom     6   D =       0.00000005 cm^2/s
     atom     7   D =       0.00000005 cm^2/s
     atom     8   D =       0.00000003 cm^2/s
     atom     9   D =       0.00002903 cm^2/s
     atom    10   D =       0.00000004 cm^2/s
     atom    11   D =       0.00000006 cm^2/s
     atom    12   D =       0.00000004 cm^2/s
     atom    13   D =       0.00000006 cm^2/s
     atom    14   D =       0.00000005 cm^2/s
     atom    15   D =       0.00000007 cm^2/s
     atom    16   D =       0.00000005 cm^2/s
     atom    17   D =       0.00000007 cm^2/s
     atom    18   D =       0.00000005 cm^2/s
     atom    19   D =       0.00000000 cm^2/s
     atom    20   D =       0.00000008 cm^2/s
     atom    21   D =       0.00000015 cm^2/s
     atom    22   D =       0.00000024 cm^2/s
     atom    23   D =       0.01783531 cm^2/s

     < D > =       0.00077677 cm^2/s

     Writing all to output data dir outdir/pwscf.save/

     init_run     :      9.45s CPU     11.34s WALL (       1 calls)
     electrons    :   2344.37s CPU   2764.94s WALL (      20 calls)
     update_pot   :     19.18s CPU     20.50s WALL (      19 calls)
     forces       :    273.79s CPU    303.50s WALL (      20 calls)
     stress       :    363.07s CPU    388.73s WALL (      20 calls)

     Called by init_run:
     wfcinit      :      6.86s CPU      8.37s WALL (       1 calls)
     potinit      :      0.45s CPU      0.51s WALL (       1 calls)
     hinit0       :      0.94s CPU      1.03s WALL (       1 calls)

     Called by electrons:
     c_bands      :   1857.11s CPU   2210.86s WALL (     103 calls)
     sum_band     :    318.62s CPU    365.39s WALL (     103 calls)
     v_of_rho     :     11.07s CPU     12.53s WALL (     123 calls)
     newd         :    181.90s CPU    203.83s WALL (     123 calls)
     mix_rho      :      1.04s CPU      1.27s WALL (     103 calls)

     Called by c_bands:
     init_us_2    :      4.05s CPU      4.15s WALL (     494 calls)
     init_us_2:cp :      4.04s CPU      4.14s WALL (     494 calls)
     regterg      :   1843.09s CPU   2194.25s WALL (     206 calls)

     Called by *egterg:
     rdiaghg      :     59.94s CPU     75.71s WALL (    1605 calls)
     h_psi        :    956.48s CPU   1056.55s WALL (    1645 calls)
     s_psi        :    310.87s CPU    311.64s WALL (    1645 calls)
     g_psi        :      0.71s CPU      0.75s WALL (    1437 calls)

     Called by h_psi:
     h_psi:calbec :    461.06s CPU    526.89s WALL (    1645 calls)
     vloc_psi     :     98.39s CPU    131.32s WALL (    1645 calls)
     add_vuspsi   :    395.64s CPU    396.88s WALL (    1645 calls)

     General routines
     calbec       :    844.42s CPU    968.88s WALL (    2051 calls)
     fft          :      8.26s CPU     20.03s WALL (    2544 calls)
     ffts         :      0.22s CPU      0.26s WALL (     103 calls)
     fftw         :    106.14s CPU    142.31s WALL (  109196 calls)

     Parallel routines

     PWSCF        :  50m35.39s CPU  58m39.33s WALL


   This run was terminated on:   1:10:37  15Jun2023            

=------------------------------------------------------------------------------=
   JOB DONE.
=------------------------------------------------------------------------------=
