
     Program PWSCF v.7.2 starts on 16Jun2023 at 13:41:17 

     This program is part of the open-source Quantum ESPRESSO suite
     for quantum simulation of materials; please cite
         "P. Giannozzi et al., J. Phys.:Condens. Matter 21 395502 (2009);
         "P. Giannozzi et al., J. Phys.:Condens. Matter 29 465901 (2017);
         "P. Giannozzi et al., J. Chem. Phys. 152 154105 (2020);
          URL http://www.quantum-espresso.org", 
     in publications or presentations arising from this work. More details at
     http://www.quantum-espresso.org/quote

     Parallel version (MPI), running on    42 processors

     MPI processes distributed on     1 nodes
     172713 MiB available memory on the printing compute node when the environment starts

     Reading input from md_data/md_Hf5Nb2Ta10Zr5H_20steps_50eV_incident30_polar0.in
Warning: card &CELL ignored
Warning: card / ignored

     Current dimensions of program PWSCF are:
     Max number of different atomic species (ntypx) = 10
     Max number of k-points (npk) =  40000
     Max angular momentum in pseudopotentials (lmaxx) =  4

     File outdir/pwscf.md deleted, as requested

     gamma-point specific algorithms are used

     R & G space division:  proc/nbgrp/npool/nimage =      42
     Subspace diagonalization in iterative solution of the eigenvalue problem:
     one sub-group per band group will be used
     custom distributed-memory algorithm (size of sub-group:  2*  2 procs)


     Parallelization info
     --------------------
     sticks:   dense  smooth     PW     G-vecs:    dense   smooth      PW
     Min         262     262     63                23470    23470    2920
     Max         265     265     66                23484    23484    2942
     Sum       11057   11057   2753               986005   986005  123175

     Using Slab Decomposition



     bravais-lattice index     =            0
     lattice parameter (alat)  =      17.6500  a.u.
     unit-cell volume          =    5552.8853 (a.u.)^3
     number of atoms/cell      =           23
     number of atomic types    =            5
     number of electrons       =       277.00
     number of Kohn-Sham states=          167
     kinetic-energy cutoff     =     120.0000  Ry
     charge density cutoff     =     480.0000  Ry
     scf convergence threshold =      1.0E-03
     mixing beta               =       0.7000
     number of iterations used =            8  TF        mixing
     energy convergence thresh.=      0.0E+00
     force convergence thresh. =      0.0E+00
     Exchange-correlation=  SLA  PW   PBX  PBC
                           (   1   4   3   4   0   0   0)
     nstep                     =           20


     celldm(1)=  17.650041  celldm(2)=   0.000000  celldm(3)=   0.000000
     celldm(4)=   0.000000  celldm(5)=   0.000000  celldm(6)=   0.000000

     crystal axes: (cart. coord. in units of alat)
               a(1) = (   1.000000   0.000000   0.000000 )  
               a(2) = (   0.000000   0.929336   0.000000 )  
               a(3) = (   0.000000   0.000000   1.086698 )  

     reciprocal axes: (cart. coord. in units 2 pi/alat)
               b(1) = (  1.000000  0.000000  0.000000 )  
               b(2) = (  0.000000  1.076037  0.000000 )  
               b(3) = (  0.000000  0.000000  0.920219 )  


     PseudoPot. # 1 for Hf read from file:
     q-e/pseudo/hf_pbe_v1.uspp.F.UPF
     MD5 check sum: 8ee9378dfe14276e333edf04c5e4aa26
     Pseudo is Ultrasoft + core correction, Zval = 12.0
     Generated by new atomic code, or converted to UPF format
     Using radial grid of  921 points,  8 beta functions with: 
                l(1) =   0
                l(2) =   0
                l(3) =   0
                l(4) =   1
                l(5) =   1
                l(6) =   2
                l(7) =   2
                l(8) =   3
     Q(r) pseudized with  6 coefficients,  rinner =    1.200   1.200   1.200
                                                       1.200   1.200   1.200
                                                       1.200

     PseudoPot. # 2 for Nb read from file:
     q-e/pseudo/nb_pbe_v1.uspp.F.UPF
     MD5 check sum: 573aab8a2fa660278ed4a62cd769473f
     Pseudo is Ultrasoft + core correction, Zval = 13.0
     Generated by new atomic code, or converted to UPF format
     Using radial grid of  887 points,  6 beta functions with: 
                l(1) =   0
                l(2) =   0
                l(3) =   1
                l(4) =   1
                l(5) =   2
                l(6) =   2
     Q(r) pseudized with  6 coefficients,  rinner =    1.000   1.000   1.000
                                                       1.000   1.000

     PseudoPot. # 3 for Ta read from file:
     q-e/pseudo/ta_pbe_v1.uspp.F.UPF
     MD5 check sum: f8bbe9446314a3b8ea5d9f3e3836c939
     Pseudo is Ultrasoft + core correction, Zval = 13.0
     Generated by new atomic code, or converted to UPF format
     Using radial grid of  921 points,  7 beta functions with: 
                l(1) =   0
                l(2) =   0
                l(3) =   1
                l(4) =   1
                l(5) =   2
                l(6) =   2
                l(7) =   3
     Q(r) pseudized with  6 coefficients,  rinner =    1.300   1.300   1.300
                                                       1.300   1.300   1.300
                                                       1.300

     PseudoPot. # 4 for Zr read from file:
     q-e/pseudo/zr_pbe_v1.uspp.F.UPF
     MD5 check sum: 5db81b1e868ab7776c4564c113de050b
     Pseudo is Ultrasoft + core correction, Zval = 12.0
     Generated by new atomic code, or converted to UPF format
     Using radial grid of  887 points,  6 beta functions with: 
                l(1) =   0
                l(2) =   0
                l(3) =   1
                l(4) =   1
                l(5) =   2
                l(6) =   2
     Q(r) pseudized with  6 coefficients,  rinner =    1.200   1.200   1.200
                                                       1.200   1.200

     PseudoPot. # 5 for H  read from file:
     q-e/pseudo/h_pbe_v1.4.uspp.F.UPF
     MD5 check sum: 761ae9a214b05c3daf00ab9f6b793d6f
     Pseudo is Ultrasoft, Zval =  1.0
     Generated by new atomic code, or converted to UPF format
     Using radial grid of  615 points,  2 beta functions with: 
                l(1) =   0
                l(2) =   0
     Q(r) pseudized with  8 coefficients,  rinner =    0.700

     atomic species   valence    mass     pseudopotential
        Hf            12.00   178.49000     Hf( 1.00)
        Nb            13.00    92.90637     Nb( 1.00)
        Ta            13.00   180.94788     Ta( 1.00)
        Zr            12.00    91.22400     Zr( 1.00)
        H              1.00     2.01400     H ( 1.00)

     Starting magnetic structure 
     atomic species   magnetization
        Hf           0.000
        Nb           0.000
        Ta           0.000
        Zr           0.000
        H            0.000

     No symmetry found



   Cartesian axes

     site n.     atom                  positions (alat units)
         1           Hf  tau(   1) = (   0.2858672   0.3026898   0.7070626  )
         2           Hf  tau(   2) = (   0.1341532   0.1377178   0.5415917  )
         3           Hf  tau(   3) = (   0.1344204   0.7911996   0.5447610  )
         4           Hf  tau(   4) = (   0.4375813   0.1377178   0.5415917  )
         5           Hf  tau(   5) = (   0.4373140   0.7911996   0.5447610  )
         6           Nb  tau(   6) = (   0.2858672   0.2994572   0.3764008  )
         7           Nb  tau(   7) = (   0.2858672   0.6291626   0.7103852  )
         8           Ta  tau(   8) = (   0.1294832   0.4647675   0.5429471  )
         9           Ta  tau(   9) = (   0.4422513   0.4647675   0.5429471  )
        10           Ta  tau(  10) = (   0.1399628   0.1406984   0.2204260  )
        11           Ta  tau(  11) = (   0.1394848   0.1400847   0.8666573  )
        12           Ta  tau(  12) = (   0.1396156   0.7897030   0.2190832  )
        13           Ta  tau(  13) = (   0.1400119   0.7885528   0.8657390  )
        14           Ta  tau(  14) = (   0.4317717   0.1406984   0.2204260  )
        15           Ta  tau(  15) = (   0.4322496   0.1400847   0.8666573  )
        16           Ta  tau(  16) = (   0.4321189   0.7897030   0.2190832  )
        17           Ta  tau(  17) = (   0.4317226   0.7885528   0.8657390  )
        18           Zr  tau(  18) = (   0.2858672   0.6280820   0.3776642  )
        19           Zr  tau(  19) = (   0.1331729   0.4627493   0.2141328  )
        20           Zr  tau(  20) = (   0.1328036   0.4661802   0.8725649  )
        21           Zr  tau(  21) = (   0.4385616   0.4627493   0.2141328  )
        22           Zr  tau(  22) = (   0.4389309   0.4661802   0.8725649  )
        23           H   tau(  23) = (   0.6276957   0.5717345   0.5430600  )

     number of k points=     1  Gaussian smearing, width (Ry)=  0.0220
                       cart. coord. in units 2pi/alat
        k(    1) = (   0.0000000   0.0000000   0.0000000), wk =   1.0000000

     Dense  grid:   493003 G-vectors     FFT dimensions: ( 125, 120, 135)

     Estimated max dynamical RAM per process >     133.03 MB

     Estimated total dynamical RAM >       5.46 GB

     Check: negative core charge=   -0.000002
     Generating pointlists ...
     new r_m :   0.1117 (alat units)  1.9717 (a.u.) for type    1
     new r_m :   0.1098 (alat units)  1.9374 (a.u.) for type    2
     new r_m :   0.0883 (alat units)  1.5587 (a.u.) for type    3
     new r_m :   0.1112 (alat units)  1.9625 (a.u.) for type    4
     new r_m :   0.0883 (alat units)  1.5587 (a.u.) for type    5

     Initial potential from superposition of free atoms

     starting charge     266.9726, renormalised to     277.0000

     negative rho (up, down):  9.217E-01 9.217E-01
     Starting wfcs are  287 randomized atomic wfcs

     total cpu time spent up to now is       12.6 secs

     Self-consistent Calculation

     iteration #  1     ecut=   120.00 Ry     beta= 0.70
     Davidson diagonalization with overlap
     ethr =  1.00E-02,  avg # of iterations =  2.0

     negative rho (up, down):  9.951E-01 9.947E-01

     total cpu time spent up to now is       32.0 secs

     total energy              =   -2930.50861721 Ry
     estimated scf accuracy    <     277.28314626 Ry

     total magnetization       =    -0.00 Bohr mag/cell
     absolute magnetization    =     0.09 Bohr mag/cell

     iteration #  2     ecut=   120.00 Ry     beta= 0.70
     Davidson diagonalization with overlap
     ethr =  1.00E-02,  avg # of iterations =  5.0

     negative rho (up, down):  9.686E-01 9.694E-01

     total cpu time spent up to now is       53.7 secs

     total energy              =   -2942.29589071 Ry
     estimated scf accuracy    <      29.65710615 Ry

     total magnetization       =    -0.07 Bohr mag/cell
     absolute magnetization    =     0.27 Bohr mag/cell

     iteration #  3     ecut=   120.00 Ry     beta= 0.70
     Davidson diagonalization with overlap
     ethr =  1.00E-02,  avg # of iterations =  2.0

     negative rho (up, down):  1.005E+00 1.009E+00

     total cpu time spent up to now is       72.3 secs

     total energy              =   -2942.66763266 Ry
     estimated scf accuracy    <      13.01451827 Ry

     total magnetization       =    -0.03 Bohr mag/cell
     absolute magnetization    =     0.33 Bohr mag/cell

     iteration #  4     ecut=   120.00 Ry     beta= 0.70
     Davidson diagonalization with overlap
     ethr =  4.70E-03,  avg # of iterations =  3.0

     negative rho (up, down):  1.012E+00 1.018E+00

     total cpu time spent up to now is       90.5 secs

     total energy              =   -2942.93014976 Ry
     estimated scf accuracy    <       3.22406693 Ry

     total magnetization       =    -0.08 Bohr mag/cell
     absolute magnetization    =     0.37 Bohr mag/cell

     iteration #  5     ecut=   120.00 Ry     beta= 0.70
     Davidson diagonalization with overlap
     ethr =  1.16E-03,  avg # of iterations =  7.0

     negative rho (up, down):  9.857E-01 9.898E-01

     total cpu time spent up to now is      112.7 secs

     total energy              =   -2943.06247752 Ry
     estimated scf accuracy    <       1.55835535 Ry

     total magnetization       =    -0.04 Bohr mag/cell
     absolute magnetization    =     0.25 Bohr mag/cell

     iteration #  6     ecut=   120.00 Ry     beta= 0.70
     Davidson diagonalization with overlap
     ethr =  5.63E-04,  avg # of iterations =  2.0

     negative rho (up, down):  9.743E-01 9.771E-01

     total cpu time spent up to now is      130.2 secs

     total energy              =   -2943.11478666 Ry
     estimated scf accuracy    <       1.22629439 Ry

     total magnetization       =    -0.05 Bohr mag/cell
     absolute magnetization    =     0.20 Bohr mag/cell

     iteration #  7     ecut=   120.00 Ry     beta= 0.70
     Davidson diagonalization with overlap
     ethr =  4.43E-04,  avg # of iterations =  1.0

     negative rho (up, down):  9.495E-01 9.507E-01

     total cpu time spent up to now is      151.8 secs

     total energy              =   -2943.05848270 Ry
     estimated scf accuracy    <       0.45001929 Ry

     total magnetization       =    -0.05 Bohr mag/cell
     absolute magnetization    =     0.18 Bohr mag/cell

     iteration #  8     ecut=   120.00 Ry     beta= 0.70
     Davidson diagonalization with overlap
     ethr =  1.62E-04,  avg # of iterations =  4.5

     negative rho (up, down):  9.219E-01 9.219E-01

     total cpu time spent up to now is      189.4 secs

     total energy              =   -2943.06270963 Ry
     estimated scf accuracy    <       0.23185216 Ry

     total magnetization       =    -0.05 Bohr mag/cell
     absolute magnetization    =     0.16 Bohr mag/cell

     iteration #  9     ecut=   120.00 Ry     beta= 0.70
     Davidson diagonalization with overlap
     ethr =  8.37E-05,  avg # of iterations = 11.0

     negative rho (up, down):  9.086E-01 9.085E-01

     total cpu time spent up to now is      224.8 secs

     total energy              =   -2943.05846977 Ry
     estimated scf accuracy    <       0.06337703 Ry

     total magnetization       =    -0.05 Bohr mag/cell
     absolute magnetization    =     0.12 Bohr mag/cell

     iteration # 10     ecut=   120.00 Ry     beta= 0.70
     Davidson diagonalization with overlap
     ethr =  2.29E-05,  avg # of iterations = 14.5

     negative rho (up, down):  9.083E-01 9.083E-01

     total cpu time spent up to now is      248.2 secs

     total energy              =   -2943.06344273 Ry
     estimated scf accuracy    <       0.03599163 Ry

     total magnetization       =    -0.05 Bohr mag/cell
     absolute magnetization    =     0.09 Bohr mag/cell

     iteration # 11     ecut=   120.00 Ry     beta= 0.70
     Davidson diagonalization with overlap
     ethr =  1.30E-05,  avg # of iterations =  2.0

     negative rho (up, down):  9.092E-01 9.092E-01

     total cpu time spent up to now is      265.9 secs

     total energy              =   -2943.06696934 Ry
     estimated scf accuracy    <       0.01085444 Ry

     total magnetization       =    -0.05 Bohr mag/cell
     absolute magnetization    =     0.08 Bohr mag/cell

     iteration # 12     ecut=   120.00 Ry     beta= 0.70
     Davidson diagonalization with overlap
     ethr =  3.92E-06,  avg # of iterations = 14.0

     negative rho (up, down):  9.093E-01 9.093E-01

     total cpu time spent up to now is      287.0 secs

     total energy              =   -2943.06991371 Ry
     estimated scf accuracy    <       0.00174807 Ry

     total magnetization       =    -0.05 Bohr mag/cell
     absolute magnetization    =     0.07 Bohr mag/cell

     iteration # 13     ecut=   120.00 Ry     beta= 0.70
     Davidson diagonalization with overlap
     ethr =  6.31E-07,  avg # of iterations =  5.0

     negative rho (up, down):  9.090E-01 9.090E-01

     Magnetic moment per site  (integrated on atomic sphere of radius R)
     atom   1 (R=0.112)  charge=  9.4614  magn=  0.0000
     atom   2 (R=0.112)  charge=  9.0592  magn= -0.0003
     atom   3 (R=0.112)  charge=  9.0580  magn= -0.0002
     atom   4 (R=0.112)  charge=  9.0577  magn= -0.0001
     atom   5 (R=0.112)  charge=  9.0465  magn= -0.0003
     atom   6 (R=0.110)  charge= 10.3477  magn=  0.0000
     atom   7 (R=0.110)  charge= 10.3473  magn= -0.0004
     atom   8 (R=0.088)  charge=  8.1237  magn=  0.0001
     atom   9 (R=0.088)  charge=  8.1140  magn= -0.0002
     atom  10 (R=0.088)  charge=  8.1046  magn= -0.0017
     atom  11 (R=0.088)  charge=  8.1011  magn= -0.0007
     atom  12 (R=0.088)  charge=  8.1046  magn= -0.0008
     atom  13 (R=0.088)  charge=  8.1038  magn= -0.0002
     atom  14 (R=0.088)  charge=  8.1041  magn= -0.0012
     atom  15 (R=0.088)  charge=  8.0995  magn= -0.0008
     atom  16 (R=0.088)  charge=  8.1058  magn= -0.0022
     atom  17 (R=0.088)  charge=  8.1054  magn= -0.0008
     atom  18 (R=0.111)  charge=  9.4533  magn=  0.0002
     atom  19 (R=0.111)  charge=  9.0036  magn= -0.0013
     atom  20 (R=0.111)  charge=  8.9963  magn= -0.0001
     atom  21 (R=0.111)  charge=  9.0062  magn= -0.0013
     atom  22 (R=0.111)  charge=  8.9959  magn=  0.0000
     atom  23 (R=0.088)  charge=  0.9803  magn= -0.0000

     total cpu time spent up to now is      311.0 secs

     End of self-consistent calculation

 ------ SPIN UP ------------


          k = 0.0000 0.0000 0.0000 ( 61588 PWs)   bands (ev):

   -60.7978 -60.7882 -60.7529 -60.7429 -60.7169 -60.7086 -60.6731 -60.6649
   -60.5406 -60.4047 -54.3967 -54.3505 -54.2699 -54.2243 -52.7171 -46.2784
   -46.2680 -41.6748 -41.6468 -41.5721 -41.5601 -39.8135 -27.7979 -27.7884
   -27.7141 -27.6998 -27.6102 -27.6042 -27.4823 -27.4729 -27.3867 -27.3475
   -27.3156 -27.2847 -27.2710 -27.2500 -27.2368 -27.1866 -27.1755 -27.1586
   -27.1135 -27.0734 -27.0178 -26.9753 -26.9682 -26.9595 -26.9536 -26.9087
   -26.8995 -26.8956 -26.8713 -26.8669 -24.1837 -23.9700 -23.6733 -23.5789
   -23.3270 -23.1939 -23.1682 -23.0704 -22.9448 -22.8668 -22.8488 -22.6270
   -22.5191 -22.4663 -22.4111 -22.3641 -22.2921 -22.2451 -21.7741 -21.7100
   -21.6463 -20.2339 -19.9552 -19.8854 -19.8641 -19.6410 -19.6204 -19.6166
   -19.6006 -19.5913 -19.5514 -19.4146 -19.3852 -18.1589 -17.9637 -17.8331
     1.4538   2.9160   2.9867   3.1290   3.3020   3.4573   3.5255   3.6736
     3.7359   3.8684   3.9017   4.0724   4.2079   4.4944   4.6028   4.6889
     4.7577   4.8379   5.0146   5.0775   5.1471   5.2490   5.2715   5.3322
     5.3958   5.5425   5.6076   5.7111   5.7159   5.7411   5.7479   5.7967
     5.9302   6.0946   6.1863   6.2126   6.2375   6.2778   6.3485   6.3802
     6.4567   6.5868   6.6469   6.7105   6.7940   6.9409   6.9892   7.0374
     7.0894   7.1388   7.2507   7.2575   7.3083   7.4214   7.5425   7.5672
     7.6063   7.7343   7.8867   7.8885   8.0701   8.0959   8.0998   8.2018
     8.2493   8.2621   8.3416   8.3684   8.4450   8.5460   8.6351   8.6460
     8.8213   8.8897   8.9409   9.0577   9.1144   9.2178   9.2733

 ------ SPIN DOWN ----------


          k = 0.0000 0.0000 0.0000 ( 61588 PWs)   bands (ev):

   -60.7994 -60.7889 -60.7545 -60.7436 -60.7184 -60.7093 -60.6747 -60.6656
   -60.5405 -60.4049 -54.3969 -54.3506 -54.2700 -54.2244 -52.7171 -46.2786
   -46.2679 -41.6758 -41.6466 -41.5732 -41.5600 -39.8132 -27.8002 -27.7895
   -27.7166 -27.7009 -27.6121 -27.6055 -27.4835 -27.4747 -27.3872 -27.3489
   -27.3163 -27.2865 -27.2719 -27.2512 -27.2381 -27.1875 -27.1769 -27.1593
   -27.1136 -27.0737 -27.0181 -26.9774 -26.9692 -26.9611 -26.9553 -26.9097
   -26.9012 -26.8968 -26.8731 -26.8678 -24.1839 -23.9701 -23.6735 -23.5790
   -23.3272 -23.1942 -23.1686 -23.0707 -22.9449 -22.8671 -22.8489 -22.6272
   -22.5192 -22.4664 -22.4114 -22.3643 -22.2923 -22.2452 -21.7741 -21.7100
   -21.6463 -20.2349 -19.9547 -19.8862 -19.8654 -19.6424 -19.6205 -19.6170
   -19.6008 -19.5913 -19.5516 -19.4157 -19.3851 -18.1586 -17.9635 -17.8331
     1.4527   2.9137   2.9863   3.1285   3.3012   3.4548   3.5248   3.6732
     3.7350   3.8680   3.8991   4.0715   4.2069   4.4939   4.6023   4.6872
     4.7567   4.8370   5.0130   5.0761   5.1462   5.2479   5.2704   5.3303
     5.3941   5.5418   5.6069   5.7096   5.7151   5.7404   5.7475   5.7959
     5.9294   6.0924   6.1853   6.2115   6.2361   6.2766   6.3476   6.3788
     6.4549   6.5858   6.6457   6.7091   6.7927   6.9391   6.9851   7.0347
     7.0833   7.1359   7.2462   7.2537   7.3067   7.4159   7.5419   7.5641
     7.6034   7.7320   7.8852   7.8869   8.0672   8.0936   8.0980   8.1972
     8.2471   8.2610   8.3380   8.3667   8.4433   8.5442   8.6335   8.6445
     8.8198   8.8853   8.9391   9.0561   9.1123   9.2169   9.2609

     the Fermi energy is     7.2210 ev

!    total energy              =   -2943.07103026 Ry
     estimated scf accuracy    <       0.00065984 Ry
     smearing contrib. (-TS)   =      -0.09919659 Ry
     internal energy E=F+TS    =   -2942.97183367 Ry

     total magnetization       =    -0.05 Bohr mag/cell
     absolute magnetization    =     0.06 Bohr mag/cell

     convergence has been achieved in  13 iterations

     negative rho (up, down):  9.090E-01 9.090E-01

     Forces acting on atoms (cartesian axes, Ry/au):

     atom    1 type  1   force =    -0.00886037   -0.02613697    0.01258615
     atom    2 type  1   force =    -0.11457003   -0.01900351   -0.00470068
     atom    3 type  1   force =    -0.11797589    0.01431160    0.00221903
     atom    4 type  1   force =     0.11437514   -0.01168690   -0.00464088
     atom    5 type  1   force =     0.13888877   -0.01031260    0.00445548
     atom    6 type  2   force =    -0.00809608   -0.01491507    0.00747907
     atom    7 type  2   force =    -0.00993957    0.01174972   -0.01144511
     atom    8 type  3   force =    -0.11673678    0.00485343   -0.00550448
     atom    9 type  3   force =     0.16823704    0.02203904   -0.00381797
     atom   10 type  3   force =    -0.02094879   -0.02911896   -0.05954357
     atom   11 type  3   force =    -0.01980739   -0.03500182    0.05702636
     atom   12 type  3   force =    -0.01716034    0.03638847   -0.05604316
     atom   13 type  3   force =    -0.01892961    0.03019835    0.06296347
     atom   14 type  3   force =     0.02106365   -0.03093640   -0.06115786
     atom   15 type  3   force =     0.01993207   -0.03645571    0.05835836
     atom   16 type  3   force =     0.01695075    0.04035636   -0.05525611
     atom   17 type  3   force =     0.01716684    0.03409132    0.06169775
     atom   18 type  4   force =    -0.00984636    0.01994009   -0.01049601
     atom   19 type  4   force =    -0.12803586   -0.00545603   -0.11556148
     atom   20 type  4   force =    -0.13390012    0.00554762    0.11905783
     atom   21 type  4   force =     0.12591707   -0.01031550   -0.11745841
     atom   22 type  4   force =     0.13314491    0.00319581    0.11919422
     atom   23 type  5   force =    -0.03086903    0.00666766    0.00058799
     The non-local contrib.  to forces
     atom    1 type  1   force =    -0.00244030   -0.01114471    0.02883036
     atom    2 type  1   force =    -0.24767395   -0.16259429    0.01592372
     atom    3 type  1   force =    -0.24087885    0.15538445   -0.02707936
     atom    4 type  1   force =     0.24769901   -0.16358766    0.01593709
     atom    5 type  1   force =     0.24779434    0.14850633   -0.02679621
     atom    6 type  2   force =     0.00443578   -0.04973178   -0.07088939
     atom    7 type  2   force =    -0.01880447    0.06343820    0.06101484
     atom    8 type  3   force =    -0.26544084    0.00327137   -0.00503413
     atom    9 type  3   force =     0.09454166   -0.07797887   -0.01090536
     atom   10 type  3   force =    -0.21025851    0.00463663   -0.20989191
     atom   11 type  3   force =    -0.21617184    0.00399398    0.19983256
     atom   12 type  3   force =    -0.20597600   -0.02049050   -0.17763618
     atom   13 type  3   force =    -0.21475876   -0.00448885    0.20822148
     atom   14 type  3   force =     0.20389411    0.00101963   -0.21656644
     atom   15 type  3   force =     0.21294243    0.00435088    0.20310325
     atom   16 type  3   force =     0.21779256   -0.02567692   -0.17545512
     atom   17 type  3   force =     0.22380804   -0.01047868    0.20443444
     atom   18 type  4   force =    -0.01949971    0.05441685   -0.06364003
     atom   19 type  4   force =     0.06386168    0.00720528    0.06829792
     atom   20 type  4   force =     0.05815750   -0.01516084   -0.06514299
     atom   21 type  4   force =    -0.06212032    0.00783054    0.07232584
     atom   22 type  4   force =    -0.05663608   -0.01342309   -0.06429754
     atom   23 type  5   force =    -0.03966066   -0.01492611   -0.00002998
     The ionic contribution  to forces
     atom    1 type  1   force =    -0.16646047   -4.69695406   14.07194770
     atom    2 type  1   force =   -39.66138105   -6.13202349    0.77975131
     atom    3 type  1   force =   -39.63957330    6.20180427   -0.71332681
     atom    4 type  1   force =    39.50483757   -6.17771365    0.77907657
     atom    5 type  1   force =    39.08113361    6.69680066   -0.70933580
     atom    6 type  2   force =    -0.17648549   -3.66121617  -13.97358771
     atom    7 type  2   force =    -0.35693337    3.62745280   14.10595650
     atom    8 type  3   force =   -52.07815772   -0.00676192   -0.06497569
     atom    9 type  3   force =    50.56301260   -0.79347352   -0.06581235
     atom   10 type  3   force =   -36.04434346   -2.09239059  -23.09758950
     atom   11 type  3   force =   -35.11848588   -0.84520629   22.10186056
     atom   12 type  3   force =   -35.23188752    0.84034217  -22.17919969
     atom   13 type  3   force =   -36.02212545    2.22447880   23.10887084
     atom   14 type  3   force =    35.95398776   -2.10821172  -23.15284547
     atom   15 type  3   force =    35.02877991   -0.86068735   22.15701985
     atom   16 type  3   force =    35.06469211    0.93543984  -22.32631432
     atom   17 type  3   force =    35.85266709    2.32046670   23.25752012
     atom   18 type  4   force =    -0.33266460    4.39675258  -14.02135992
     atom   19 type  4   force =   -35.88240956    0.92071433  -25.58677568
     atom   20 type  4   force =   -35.86527880   -0.98899794   25.56515928
     atom   21 type  4   force =    35.68072124    0.84804915  -25.80308556
     atom   22 type  4   force =    35.66320334   -1.05993960   25.78336406
     atom   23 type  5   force =     4.18315144    0.41127501   -0.01631828
     The local contribution  to forces
     atom    1 type  1   force =     0.16214684    4.68047207  -14.09004385
     atom    2 type  1   force =    39.81336835    6.27192439   -0.80902091
     atom    3 type  1   force =    39.78322160   -6.33994541    0.73966519
     atom    4 type  1   force =   -39.65625090    6.32854854   -0.80916732
     atom    5 type  1   force =   -39.20525882   -6.85895024    0.73982695
     atom    6 type  2   force =     0.16895923    3.70115715   14.02407854
     atom    7 type  2   force =     0.36943221   -3.67458019  -14.17701385
     atom    8 type  3   force =    52.25746193    0.00729459    0.05186745
     atom    9 type  3   force =   -50.49790736    0.90304312    0.05925928
     atom   10 type  3   force =    36.25820998    2.05762058   23.25994118
     atom   11 type  3   force =    35.34042408    0.79582175  -22.25637743
     atom   12 type  3   force =    35.44362706   -0.77562170   22.30900271
     atom   13 type  3   force =    36.24418946   -2.18145527  -23.26463897
     atom   14 type  3   force =   -36.15837910    2.07629698   23.31907776
     atom   15 type  3   force =   -35.24707680    0.80630451  -22.31189836
     atom   16 type  3   force =   -35.28896841   -0.85896017   22.45252431
     atom   17 type  3   force =   -36.08354864   -2.26867462  -23.41028322
     atom   18 type  4   force =     0.34400958   -4.43985403   14.05370257
     atom   19 type  4   force =    35.70660270   -0.93776028   25.40733314
     atom   20 type  4   force =    35.67991822    1.01030041  -25.38274965
     atom   21 type  4   force =   -35.50551896   -0.87266162   25.62033300
     atom   22 type  4   force =   -35.47762107    1.07940998  -25.60337513
     atom   23 type  5   force =    -4.17466543   -0.39059566    0.01550100
     The core correction contribution to forces
     atom    1 type  1   force =    -0.00004821    0.00188906   -0.00170237
     atom    2 type  1   force =    -0.01154610   -0.00155448    0.00074897
     atom    3 type  1   force =    -0.01252835    0.00263588   -0.00134736
     atom    4 type  1   force =     0.01193197   -0.00204089    0.00075276
     atom    5 type  1   force =     0.00796714    0.00760206   -0.00180521
     atom    6 type  2   force =    -0.00026504    0.00236409    0.00286250
     atom    7 type  2   force =     0.00065386   -0.00305159   -0.00233607
     atom    8 type  3   force =    -0.03183194    0.00093803   -0.00075557
     atom    9 type  3   force =     0.01211596   -0.01086576   -0.00099906
     atom   10 type  3   force =    -0.02203055    0.00908665   -0.01716979
     atom   11 type  3   force =    -0.02403514    0.00912412    0.01778581
     atom   12 type  3   force =    -0.02270757   -0.00996845   -0.01530617
     atom   13 type  3   force =    -0.02301530   -0.00924188    0.01657547
     atom   14 type  3   force =     0.02197288    0.00975944   -0.01584642
     atom   15 type  3   force =     0.02327811    0.01042463    0.01627981
     atom   16 type  3   force =     0.02392579   -0.01162303   -0.01383236
     atom   17 type  3   force =     0.02345571   -0.01034692    0.01528388
     atom   18 type  4   force =     0.00093703   -0.00300427    0.00290422
     atom   19 type  4   force =    -0.00993626    0.00012395   -0.00932430
     atom   20 type  4   force =    -0.00980996    0.00045081    0.00929634
     atom   21 type  4   force =     0.01010072    0.00023255   -0.00938710
     atom   22 type  4   force =     0.00991620    0.00046523    0.00906596
     atom   23 type  5   force =     0.00000000    0.00000000    0.00000000
     The Hubbard contrib.    to forces
     atom    1 type  1   force =     0.00000000    0.00000000    0.00000000
     atom    2 type  1   force =     0.00000000    0.00000000    0.00000000
     atom    3 type  1   force =     0.00000000    0.00000000    0.00000000
     atom    4 type  1   force =     0.00000000    0.00000000    0.00000000
     atom    5 type  1   force =     0.00000000    0.00000000    0.00000000
     atom    6 type  2   force =     0.00000000    0.00000000    0.00000000
     atom    7 type  2   force =     0.00000000    0.00000000    0.00000000
     atom    8 type  3   force =     0.00000000    0.00000000    0.00000000
     atom    9 type  3   force =     0.00000000    0.00000000    0.00000000
     atom   10 type  3   force =     0.00000000    0.00000000    0.00000000
     atom   11 type  3   force =     0.00000000    0.00000000    0.00000000
     atom   12 type  3   force =     0.00000000    0.00000000    0.00000000
     atom   13 type  3   force =     0.00000000    0.00000000    0.00000000
     atom   14 type  3   force =     0.00000000    0.00000000    0.00000000
     atom   15 type  3   force =     0.00000000    0.00000000    0.00000000
     atom   16 type  3   force =     0.00000000    0.00000000    0.00000000
     atom   17 type  3   force =     0.00000000    0.00000000    0.00000000
     atom   18 type  4   force =     0.00000000    0.00000000    0.00000000
     atom   19 type  4   force =     0.00000000    0.00000000    0.00000000
     atom   20 type  4   force =     0.00000000    0.00000000    0.00000000
     atom   21 type  4   force =     0.00000000    0.00000000    0.00000000
     atom   22 type  4   force =     0.00000000    0.00000000    0.00000000
     atom   23 type  5   force =     0.00000000    0.00000000    0.00000000
     The SCF correction term to forces
     atom    1 type  1   force =    -0.00184584   -0.00045569    0.00287105
     atom    2 type  1   force =    -0.00712489    0.00518801    0.00721294
     atom    3 type  1   force =    -0.00800459   -0.00562395    0.00362410
     atom    4 type  1   force =     0.00636990    0.00305040    0.00807674
     atom    5 type  1   force =     0.00746490   -0.00432777    0.00188248
     atom    6 type  2   force =    -0.00452814   -0.00754472    0.02433185
     atom    7 type  2   force =    -0.00407539   -0.00156587    0.00025019
     atom    8 type  3   force =     0.00144418    0.00005500    0.01271019
     atom    9 type  3   force =    -0.00331341    0.00125771    0.01395626
     atom   10 type  3   force =    -0.00231384   -0.00812858    0.00448317
     atom   11 type  3   force =    -0.00132621    0.00120826   -0.00675840
     atom   12 type  3   force =    -0.00000389    0.00207059    0.00641289
     atom   13 type  3   force =    -0.00300715    0.00084919   -0.00674863
     atom   14 type  3   force =    -0.00019959   -0.00985710    0.00433944
     atom   15 type  3   force =     0.00222081    0.00309526   -0.00682946
     atom   16 type  3   force =    -0.00027890    0.00112029    0.00713811
     atom   17 type  3   force =     0.00099704    0.00306849   -0.00594074
     atom   18 type  4   force =    -0.00241625    0.01157260    0.01721389
     atom   19 type  4   force =    -0.00594202    0.00420433    0.00422417
     atom   20 type  4   force =     0.00332533   -0.00110118   -0.00818842
     atom   21 type  4   force =     0.00294679    0.00617752    0.00167214
     atom   22 type  4   force =    -0.00550508   -0.00337306   -0.00624641
     atom   23 type  5   force =     0.00051803    0.00085806    0.00075199

     Total force =     0.519452     Total SCF correction =     0.052321
     SCF correction compared to forces is large: reduce conv_thr to get better values


     Computing stress (Cartesian axis) and pressure


     negative rho (up, down):  9.090E-01 9.090E-01
          total   stress  (Ry/bohr**3)                   (kbar)     P=       83.80
   0.00067001   0.00000547   0.00000068           98.56        0.81        0.10
   0.00000547   0.00064405  -0.00001302            0.81       94.74       -1.92
   0.00000068  -0.00001302   0.00039485            0.10       -1.92       58.09


     Molecular Dynamics Calculation

     Starting temperature  =   300.00 K

     temperature is set once at start

     mass Hf               =   178.49
     mass Nb               =    92.91
     mass Ta               =   180.95
     mass Zr               =    91.22
     mass H                =     2.01
     Time step             =     4.20 a.u.,  0.2032 femto-seconds

     Entering Dynamics:    iteration =     1
                           time      =   0.0002 pico-seconds


ATOMIC_POSITIONS (angstrom)
Hf            2.6700766814        2.8271667220        6.6039645797
Hf            1.2530643718        1.2863280788        5.0584660912
Hf            1.2555604925        7.3898491480        5.0880678311
Hf            4.0870894938        1.2863282887        5.0584660930
Hf            4.0845939787        7.3898484416        5.0880678952
Nb            2.6700764894        2.7969742260        3.5155836289
Nb            2.6700763877        5.8764237666        6.6349973124
Ta            1.2094467309        4.3409724316        5.0711256765
Ta            4.1307085977        4.3409729179        5.0711257243
Ta            1.3073290698        1.3141662080        2.0587774250
Ta            1.3028647322        1.3084345881        8.0945808162
Ta            1.3040861151        7.3758715965        2.0462355938
Ta            1.3077872413        7.3651282456        8.0860040027
Ta            4.0328248046        1.3141661565        2.0587773793
Ta            4.0372891425        1.3084345469        8.0945808539
Ta            4.0360677502        7.3758717088        2.0462356161
Ta            4.0323665800        7.3651283558        8.0860039668
Zr            2.6700763829        5.8663314054        3.5273833412
Zr            1.2439044104        4.3221221009        1.9999935130
Zr            1.2404548749        4.3541680385        8.1497622326
Zr            4.0962493419        4.3221218281        1.9999934065
Zr            4.0996989539        4.3541679065        8.1497622402
H             5.7347909580        5.2662284249        5.0721812898


     kinetic energy (Ekin) =           4.04922334 Ry
     temperature           =       19373.38789672 K 
     Ekin + Etot (const)   =       -2939.02180692 Ry
     Ions kinetic stress =           71.51 (kbar)
                                    160.91          92.90           0.00
                                     92.90          53.63           0.00
                                      0.00           0.00           0.00



     Linear momentum :    0.0000000000   -0.0000000000    0.0000000000

     File outdir/pwscf.msd.dat deleted, as requested

     Writing config-only to output data dir outdir/pwscf.save/
     NEW-OLD atomic charge density approx. for the potential

     Check: negative core charge=   -0.000002

     negative rho (up, down):  9.089E-01 9.089E-01
     Generating pointlists ...
     new r_m :   0.0818 (alat units)  1.4435 (a.u.) for type    3
     new r_m :   0.0818 (alat units)  1.4435 (a.u.) for type    5

     total cpu time spent up to now is      373.8 secs

     Self-consistent Calculation

     iteration #  1     ecut=   120.00 Ry     beta= 0.70
     Davidson diagonalization with overlap
     ethr =  1.00E-06,  avg # of iterations =  8.0

     negative rho (up, down):  9.090E-01 9.090E-01

     total cpu time spent up to now is      412.3 secs

     total energy              =   -2943.06672305 Ry
     estimated scf accuracy    <       0.06532927 Ry

     total magnetization       =    -0.05 Bohr mag/cell
     absolute magnetization    =     0.06 Bohr mag/cell

     iteration #  2     ecut=   120.00 Ry     beta= 0.70
     Davidson diagonalization with overlap
     ethr =  2.36E-05,  avg # of iterations =  2.0

     negative rho (up, down):  9.090E-01 9.090E-01

     total cpu time spent up to now is      429.7 secs

     total energy              =   -2943.07135724 Ry
     estimated scf accuracy    <       0.03053689 Ry

     total magnetization       =    -0.05 Bohr mag/cell
     absolute magnetization    =     0.05 Bohr mag/cell

     iteration #  3     ecut=   120.00 Ry     beta= 0.70
     Davidson diagonalization with overlap
     ethr =  1.10E-05,  avg # of iterations =  1.0

     negative rho (up, down):  9.090E-01 9.090E-01

     total cpu time spent up to now is      445.9 secs

     total energy              =   -2943.07308183 Ry
     estimated scf accuracy    <       0.00159932 Ry

     total magnetization       =    -0.05 Bohr mag/cell
     absolute magnetization    =     0.05 Bohr mag/cell

     iteration #  4     ecut=   120.00 Ry     beta= 0.70
     Davidson diagonalization with overlap
     ethr =  5.77E-07,  avg # of iterations =  2.0

     negative rho (up, down):  9.090E-01 9.090E-01

     Magnetic moment per site  (integrated on atomic sphere of radius R)
     atom   1 (R=0.112)  charge=  9.4632  magn= -0.0000
     atom   2 (R=0.112)  charge=  9.0583  magn= -0.0001
     atom   3 (R=0.112)  charge=  9.0581  magn= -0.0001
     atom   4 (R=0.112)  charge=  9.0577  magn= -0.0001
     atom   5 (R=0.112)  charge=  9.0473  magn= -0.0002
     atom   6 (R=0.110)  charge= 10.3508  magn=  0.0000
     atom   7 (R=0.110)  charge= 10.3480  magn= -0.0002
     atom   8 (R=0.082)  charge=  7.4361  magn=  0.0000
     atom   9 (R=0.082)  charge=  7.4329  magn= -0.0001
     atom  10 (R=0.082)  charge=  7.4165  magn= -0.0008
     atom  11 (R=0.082)  charge=  7.4162  magn= -0.0005
     atom  12 (R=0.082)  charge=  7.4178  magn= -0.0006
     atom  13 (R=0.082)  charge=  7.4176  magn= -0.0003
     atom  14 (R=0.082)  charge=  7.4164  magn= -0.0007
     atom  15 (R=0.082)  charge=  7.4172  magn= -0.0006
     atom  16 (R=0.082)  charge=  7.4201  magn= -0.0015
     atom  17 (R=0.082)  charge=  7.4182  magn= -0.0006
     atom  18 (R=0.111)  charge=  9.4554  magn=  0.0000
     atom  19 (R=0.111)  charge=  8.9934  magn= -0.0013
     atom  20 (R=0.111)  charge=  8.9980  magn= -0.0002
     atom  21 (R=0.111)  charge=  8.9946  magn= -0.0014
     atom  22 (R=0.111)  charge=  8.9980  magn= -0.0004
     atom  23 (R=0.082)  charge=  0.9503  magn= -0.0000

     total cpu time spent up to now is      463.2 secs

     End of self-consistent calculation

 ------ SPIN UP ------------


          k = 0.0000 0.0000 0.0000 ( 61588 PWs)   bands (ev):

   -60.7751 -60.7676 -60.7302 -60.7226 -60.6955 -60.6924 -60.6517 -60.6484
   -60.5236 -60.2999 -54.3763 -54.3300 -54.2478 -54.2026 -52.7019 -46.2649
   -46.2574 -41.6379 -41.6330 -41.5462 -41.5359 -39.8127 -27.7772 -27.7702
   -27.6930 -27.6820 -27.5876 -27.5825 -27.4663 -27.4527 -27.3593 -27.3267
   -27.2913 -27.2627 -27.2519 -27.2314 -27.2186 -27.1682 -27.1574 -27.1398
   -27.0965 -26.9985 -26.9551 -26.9520 -26.9410 -26.9359 -26.9249 -26.8808
   -26.8791 -26.8533 -26.8517 -26.8297 -24.1644 -23.9493 -23.6569 -23.5611
   -23.3079 -23.1750 -23.1498 -23.0513 -22.9258 -22.8493 -22.8298 -22.6087
   -22.5056 -22.4544 -22.3950 -22.3477 -22.2771 -22.2293 -21.7586 -21.6934
   -21.6328 -20.2009 -19.9418 -19.8478 -19.8322 -19.6099 -19.6014 -19.5939
   -19.5802 -19.5746 -19.5367 -19.3760 -19.3712 -18.1570 -17.9575 -17.8262
     1.4461   2.8797   2.9348   3.1456   3.3108   3.4739   3.5406   3.6900
     3.7538   3.8808   3.9196   4.0768   4.2186   4.5141   4.5978   4.7041
     4.7778   4.8253   5.0297   5.0893   5.1554   5.2664   5.2881   5.3431
     5.4063   5.5576   5.6323   5.7314   5.7346   5.7591   5.7685   5.8128
     5.9465   6.1126   6.2007   6.2321   6.2573   6.3039   6.3657   6.3968
     6.4650   6.6037   6.6618   6.7274   6.8101   6.9584   7.0051   7.0537
     7.1001   7.1540   7.2588   7.2731   7.3238   7.4369   7.5609   7.5778
     7.6256   7.7511   7.9027   7.9049   8.0910   8.0993   8.1164   8.2191
     8.2666   8.2783   8.3587   8.3876   8.4709   8.5610   8.6485   8.6641
     8.8373   8.9000   8.9656   9.0719   9.1301   9.2406   9.2918

 ------ SPIN DOWN ----------


          k = 0.0000 0.0000 0.0000 ( 61588 PWs)   bands (ev):

   -60.7762 -60.7681 -60.7313 -60.7232 -60.6967 -60.6931 -60.6530 -60.6490
   -60.5236 -60.3001 -54.3764 -54.3300 -54.2479 -54.2027 -52.7020 -46.2649
   -46.2576 -41.6390 -41.6332 -41.5465 -41.5370 -39.8127 -27.7787 -27.7712
   -27.6947 -27.6829 -27.5889 -27.5837 -27.4673 -27.4543 -27.3597 -27.3276
   -27.2917 -27.2640 -27.2525 -27.2322 -27.2197 -27.1687 -27.1585 -27.1404
   -27.0967 -26.9988 -26.9562 -26.9532 -26.9422 -26.9368 -26.9259 -26.8819
   -26.8807 -26.8542 -26.8530 -26.8300 -24.1644 -23.9494 -23.6570 -23.5612
   -23.3080 -23.1752 -23.1500 -23.0515 -22.9259 -22.8494 -22.8298 -22.6087
   -22.5057 -22.4545 -22.3953 -22.3478 -22.2773 -22.2294 -21.7587 -21.6934
   -21.6328 -20.2022 -19.9418 -19.8490 -19.8334 -19.6109 -19.6021 -19.5944
   -19.5808 -19.5753 -19.5370 -19.3774 -19.3716 -18.1570 -17.9576 -17.8264
     1.4453   2.8791   2.9331   3.1451   3.3102   3.4719   3.5401   3.6896
     3.7530   3.8804   3.9175   4.0760   4.2177   4.5136   4.5971   4.7027
     4.7769   4.8244   5.0283   5.0881   5.1546   5.2655   5.2872   5.3417
     5.4048   5.5569   5.6317   5.7303   5.7337   5.7582   5.7681   5.8120
     5.9459   6.1108   6.1999   6.2312   6.2563   6.3028   6.3648   6.3956
     6.4635   6.6029   6.6608   6.7263   6.8090   6.9568   7.0018   7.0511
     7.0948   7.1516   7.2546   7.2699   7.3224   7.4323   7.5598   7.5750
     7.6233   7.7492   7.9015   7.9035   8.0883   8.0975   8.1150   8.2152
     8.2648   8.2773   8.3557   8.3861   8.4696   8.5593   8.6470   8.6628
     8.8362   8.8964   8.9640   9.0707   9.1287   9.2399   9.2798

     the Fermi energy is     7.2356 ev

!    total energy              =   -2943.07293193 Ry
     estimated scf accuracy    <       0.00038756 Ry
     smearing contrib. (-TS)   =      -0.09921143 Ry
     internal energy E=F+TS    =   -2942.97372050 Ry

     total magnetization       =    -0.05 Bohr mag/cell
     absolute magnetization    =     0.05 Bohr mag/cell

     convergence has been achieved in   4 iterations

     negative rho (up, down):  9.090E-01 9.090E-01

     Forces acting on atoms (cartesian axes, Ry/au):

     atom    1 type  1   force =    -0.01065667   -0.02790873    0.01630577
     atom    2 type  1   force =    -0.11913891   -0.01768278    0.00174944
     atom    3 type  1   force =    -0.12197380    0.01290711    0.00625083
     atom    4 type  1   force =     0.11930535   -0.01238998    0.00227375
     atom    5 type  1   force =     0.13951196   -0.01018760    0.00742004
     atom    6 type  2   force =    -0.00866098   -0.01688036    0.00553837
     atom    7 type  2   force =    -0.00962112    0.01162909   -0.01300308
     atom    8 type  3   force =    -0.11808076    0.00504792   -0.00207307
     atom    9 type  3   force =     0.14321945    0.00509771    0.00078500
     atom   10 type  3   force =    -0.02194365   -0.03101880   -0.06028935
     atom   11 type  3   force =    -0.02001634   -0.03456400    0.05258912
     atom   12 type  3   force =    -0.01726923    0.03686723   -0.05669790
     atom   13 type  3   force =    -0.02056698    0.03034235    0.05907797
     atom   14 type  3   force =     0.02194239   -0.03381890   -0.06226967
     atom   15 type  3   force =     0.02066899   -0.03562489    0.05381251
     atom   16 type  3   force =     0.01722398    0.04042758   -0.05550120
     atom   17 type  3   force =     0.01864935    0.03515620    0.05836330
     atom   18 type  4   force =    -0.01003482    0.02485623   -0.00838892
     atom   19 type  4   force =    -0.13064776   -0.00444104   -0.11497719
     atom   20 type  4   force =    -0.13317106    0.00468985    0.11352244
     atom   21 type  4   force =     0.12750054   -0.00843126   -0.11792714
     atom   22 type  4   force =     0.13134030    0.00189825    0.11467655
     atom   23 type  5   force =     0.00241979    0.02402881   -0.00123759
     The non-local contrib.  to forces
     atom    1 type  1   force =    -0.00276409   -0.01094638    0.02925604
     atom    2 type  1   force =    -0.24878229   -0.16110151    0.01998019
     atom    3 type  1   force =    -0.24292745    0.15392905   -0.02439633
     atom    4 type  1   force =     0.24908133   -0.16386506    0.02008550
     atom    5 type  1   force =     0.25191803    0.14521436   -0.02477642
     atom    6 type  2   force =     0.00465813   -0.05032448   -0.07085027
     atom    7 type  2   force =    -0.01830062    0.06343847    0.06161358
     atom    8 type  3   force =    -0.26166944    0.00213134   -0.00066604
     atom    9 type  3   force =     0.06340505   -0.09548800   -0.00549324
     atom   10 type  3   force =    -0.20998902    0.00285285   -0.20952666
     atom   11 type  3   force =    -0.21461184    0.00368972    0.19716570
     atom   12 type  3   force =    -0.20358532   -0.02040127   -0.17657397
     atom   13 type  3   force =    -0.21247639   -0.00405177    0.20559016
     atom   14 type  3   force =     0.20196514   -0.00091750   -0.21618953
     atom   15 type  3   force =     0.21032378    0.00449879    0.19999729
     atom   16 type  3   force =     0.21425452   -0.02532211   -0.17483828
     atom   17 type  3   force =     0.22047531   -0.00886501    0.20296798
     atom   18 type  4   force =    -0.01936412    0.05704200   -0.05956727
     atom   19 type  4   force =     0.06305777    0.00850944    0.07097849
     atom   20 type  4   force =     0.05877009   -0.01554973   -0.06857275
     atom   21 type  4   force =    -0.06170316    0.00975850    0.07337716
     atom   22 type  4   force =    -0.05718823   -0.01405799   -0.06581046
     atom   23 type  5   force =    -0.04957409   -0.02111604   -0.00010936
     The ionic contribution  to forces
     atom    1 type  1   force =    -0.18558968   -4.71036796   14.08252907
     atom    2 type  1   force =   -39.67274866   -6.13701936    0.77974885
     atom    3 type  1   force =   -39.66116135    6.20268615   -0.71333396
     atom    4 type  1   force =    39.50600324   -6.19931936    0.77900852
     atom    5 type  1   force =    39.10316602    6.73464644   -0.70918484
     atom    6 type  2   force =    -0.19661785   -3.67554891  -13.98487472
     atom    7 type  2   force =    -0.38905759    3.64444646   14.12537539
     atom    8 type  3   force =   -52.11345817   -0.00279410   -0.06497516
     atom    9 type  3   force =    50.29583135   -0.94697714   -0.06606248
     atom   10 type  3   force =   -36.05124669   -2.09533257  -23.09820455
     atom   11 type  3   force =   -35.12536900   -0.84813600   22.10245567
     atom   12 type  3   force =   -35.24231093    0.84087721  -22.17841979
     atom   13 type  3   force =   -36.03261398    2.22504836   23.10810094
     atom   14 type  3   force =    35.95550456   -2.11616954  -23.15779559
     atom   15 type  3   force =    35.03033561   -0.86859710   22.16192523
     atom   16 type  3   force =    35.07165330    0.94198749  -22.33040233
     atom   17 type  3   force =    35.85963218    2.32716857   23.26171375
     atom   18 type  4   force =    -0.36281235    4.41251719  -14.03937041
     atom   19 type  4   force =   -35.89487752    0.92263081  -25.58818053
     atom   20 type  4   force =   -35.87776518   -0.98701417   25.56651163
     atom   21 type  4   force =    35.67950870    0.84777185  -25.82821772
     atom   22 type  4   force =    35.66212092   -1.05985496   25.80849177
     atom   23 type  5   force =     4.64187306    0.54735064   -0.01683876
     The local contribution  to forces
     atom    1 type  1   force =     0.17494685    4.68832774  -14.08056878
     atom    2 type  1   force =    39.80481526    6.28216759   -0.78329932
     atom    3 type  1   force =    39.78641471   -6.34510133    0.75788441
     atom    4 type  1   force =   -39.64160100    6.35104780   -0.78104292
     atom    5 type  1   force =   -39.22336823   -6.89289150    0.75355561
     atom    6 type  2   force =     0.17815647    3.69758205   14.07810439
     atom    7 type  2   force =     0.39200045   -3.69481353  -14.18703423
     atom    8 type  3   force =    52.28206391    0.00428834    0.08679694
     atom    9 type  3   force =   -50.21151642    1.06801722    0.09582561
     atom   10 type  3   force =    36.25282924    2.04292562   23.26743034
     atom   11 type  3   force =    35.33730388    0.80009543  -22.27401285
     atom   12 type  3   force =    35.44521815   -0.76808549   22.31522429
     atom   13 type  3   force =    36.23732423   -2.17773040  -23.27844968
     atom   14 type  3   force =   -36.15153731    2.06126501   23.32891225
     atom   15 type  3   force =   -35.23685923    0.81893205  -22.33287349
     atom   16 type  3   force =   -35.28766594   -0.85877988   22.46530724
     atom   17 type  3   force =   -36.07908620   -2.26630730  -23.42695086
     atom   18 type  4   force =     0.36837244   -4.43064870   14.10121635
     atom   19 type  4   force =    35.70083569   -0.93285266   25.41501349
     atom   20 type  4   force =    35.69101863    1.00509676  -25.40490626
     atom   21 type  4   force =   -35.49366996   -0.86181378   25.64711624
     atom   22 type  4   force =   -35.48205457    1.07090942  -25.64562915
     atom   23 type  5   force =    -4.59167382   -0.50333290    0.01810466
     The core correction contribution to forces
     atom    1 type  1   force =    -0.00002258    0.00192335   -0.00215103
     atom    2 type  1   force =    -0.01145898   -0.00151251    0.00078000
     atom    3 type  1   force =    -0.01253817    0.00276895   -0.00135829
     atom    4 type  1   force =     0.01190837   -0.00218851    0.00079090
     atom    5 type  1   force =     0.00861342    0.00702129   -0.00184597
     atom    6 type  2   force =    -0.00026915    0.00237764    0.00291713
     atom    7 type  2   force =     0.00065202   -0.00301858   -0.00237411
     atom    8 type  3   force =    -0.03138656    0.00084538   -0.00075641
     atom    9 type  3   force =     0.00932981   -0.01244689   -0.00083908
     atom   10 type  3   force =    -0.02196163    0.00914782   -0.01722646
     atom   11 type  3   force =    -0.02383822    0.00912782    0.01767843
     atom   12 type  3   force =    -0.02257109   -0.01000884   -0.01528341
     atom   13 type  3   force =    -0.02281609   -0.00926977    0.01651975
     atom   14 type  3   force =     0.02193108    0.00981836   -0.01602556
     atom   15 type  3   force =     0.02307781    0.01034293    0.01625326
     atom   16 type  3   force =     0.02355081   -0.01157240   -0.01391903
     atom   17 type  3   force =     0.02316633   -0.01028215    0.01531072
     atom   18 type  4   force =     0.00090006   -0.00294947    0.00288996
     atom   19 type  4   force =    -0.00993445    0.00011040   -0.00940178
     atom   20 type  4   force =    -0.00982909    0.00046101    0.00935244
     atom   21 type  4   force =     0.01005984    0.00019202   -0.00941010
     atom   22 type  4   force =     0.00988717    0.00045612    0.00905007
     atom   23 type  5   force =     0.00000000    0.00000000    0.00000000
     The Hubbard contrib.    to forces
     atom    1 type  1   force =     0.00000000    0.00000000    0.00000000
     atom    2 type  1   force =     0.00000000    0.00000000    0.00000000
     atom    3 type  1   force =     0.00000000    0.00000000    0.00000000
     atom    4 type  1   force =     0.00000000    0.00000000    0.00000000
     atom    5 type  1   force =     0.00000000    0.00000000    0.00000000
     atom    6 type  2   force =     0.00000000    0.00000000    0.00000000
     atom    7 type  2   force =     0.00000000    0.00000000    0.00000000
     atom    8 type  3   force =     0.00000000    0.00000000    0.00000000
     atom    9 type  3   force =     0.00000000    0.00000000    0.00000000
     atom   10 type  3   force =     0.00000000    0.00000000    0.00000000
     atom   11 type  3   force =     0.00000000    0.00000000    0.00000000
     atom   12 type  3   force =     0.00000000    0.00000000    0.00000000
     atom   13 type  3   force =     0.00000000    0.00000000    0.00000000
     atom   14 type  3   force =     0.00000000    0.00000000    0.00000000
     atom   15 type  3   force =     0.00000000    0.00000000    0.00000000
     atom   16 type  3   force =     0.00000000    0.00000000    0.00000000
     atom   17 type  3   force =     0.00000000    0.00000000    0.00000000
     atom   18 type  4   force =     0.00000000    0.00000000    0.00000000
     atom   19 type  4   force =     0.00000000    0.00000000    0.00000000
     atom   20 type  4   force =     0.00000000    0.00000000    0.00000000
     atom   21 type  4   force =     0.00000000    0.00000000    0.00000000
     atom   22 type  4   force =     0.00000000    0.00000000    0.00000000
     atom   23 type  5   force =     0.00000000    0.00000000    0.00000000
     The SCF correction term to forces
     atom    1 type  1   force =     0.00261991    0.00326323   -0.01182017
     atom    2 type  1   force =     0.00888284   -0.00010829   -0.01452093
     atom    3 type  1   force =     0.00808553   -0.00126700   -0.01160566
     atom    4 type  1   force =    -0.00623951    0.00204386   -0.01562891
     atom    5 type  1   force =    -0.00097020   -0.00406949   -0.00938899
     atom    6 type  2   force =     0.00525850    0.00914206   -0.01881881
     atom    7 type  2   force =     0.00493169    0.00168498   -0.00964435
     atom    8 type  3   force =     0.00621657    0.00068567   -0.02153304
     atom    9 type  3   force =    -0.01398326   -0.00789876   -0.02170646
     atom   10 type  3   force =     0.00827152    0.00949620   -0.00182267
     atom   11 type  3   force =     0.00634591    0.00076773    0.01024151
     atom   12 type  3   force =     0.00582703   -0.00540567   -0.00070568
     atom   13 type  3   force =     0.00986233   -0.00354535    0.00825614
     atom   14 type  3   force =    -0.00607401    0.01229348   -0.00023189
     atom   15 type  3   force =    -0.00636190   -0.00069284    0.00944957
     atom   16 type  3   force =    -0.00472163   -0.00577680   -0.00070945
     atom   17 type  3   force =    -0.00569120   -0.00644919    0.00626105
     atom   18 type  4   force =     0.00271622   -0.01099607   -0.01261821
     atom   19 type  4   force =     0.01011783   -0.00273031   -0.00244751
     atom   20 type  4   force =     0.00448157    0.00180469    0.01207673
     atom   21 type  4   force =    -0.00684780   -0.00423114    0.00014663
     atom   22 type  4   force =    -0.00157790    0.00455436    0.00951367
     atom   23 type  5   force =     0.00164172    0.00123582   -0.00145479

     Total force =     0.512124     Total SCF correction =     0.068217
     SCF correction compared to forces is large: reduce conv_thr to get better values


     Computing stress (Cartesian axis) and pressure


     negative rho (up, down):  9.090E-01 9.090E-01
          total   stress  (Ry/bohr**3)                   (kbar)     P=       83.44
   0.00066910   0.00001374   0.00000060           98.43        2.02        0.09
   0.00001374   0.00064580  -0.00001183            2.02       95.00       -1.74
   0.00000060  -0.00001183   0.00038672            0.09       -1.74       56.89


     Entering Dynamics:    iteration =     2
                           time      =   0.0004 pico-seconds


ATOMIC_POSITIONS (angstrom)
Hf            2.6701527943        2.8272088133        6.6039658764
Hf            1.2531312273        1.2863709616        5.0584660568
Hf            1.2556270876        7.3898947418        5.0880682534
Hf            4.0871765994        1.2863716851        5.0584660903
Hf            4.0846829470        7.3898920038        5.0880684488
Nb            2.6701520670        2.7970159858        3.5155846517
Nb            2.6701517579        5.8764701387        6.6349952481
Ta            1.2095137225        4.3410172973        5.0711254034
Ta            4.1307984436        4.3410182728        5.0711256606
Ta            1.3074042136        1.3142080709        2.0587723276
Ta            1.3029400174        1.3084760838        8.0945854066
Ta            1.3041616306        7.3759191556        2.0462307987
Ta            1.3078625201        7.3651752603        8.0860091283
Ta            4.0329036212        1.3142078095        2.0587721241
Ta            4.0373678550        1.3084759415        8.0945855513
Ta            4.0361461834        7.3759195817        2.0462309109
Ta            4.0324451000        7.3651757531        8.0860090163
Zr            2.6701516821        5.8663797579        3.5273818102
Zr            1.2439595340        4.3221657386        1.9999741176
Zr            1.2405093860        4.3542133191        8.1497816609
Zr            4.0963477032        4.3221647451        1.9999735735
Zr            4.0997981520        4.3542127417        8.1497818058
H             5.6069165556        5.1925790916        5.0721764914


     kinetic energy (Ekin) =           4.05054237 Ry
     temperature           =       19379.69874856 K 
     Ekin + Etot (const)   =       -2939.02238956 Ry
     Ions kinetic stress =           71.54 (kbar)
                                    161.09          92.85           0.00
                                     92.85          53.52           0.00
                                      0.00           0.00           0.00



     Linear momentum :    0.0000000000   -0.0000000000   -0.0000000000

     Writing config-only to output data dir outdir/pwscf.save/
     NEW-OLD atomic charge density approx. for the potential

     Check: negative core charge=   -0.000002

     negative rho (up, down):  9.089E-01 9.089E-01
     Generating pointlists ...
     new r_m :   0.0753 (alat units)  1.3284 (a.u.) for type    3
     new r_m :   0.0753 (alat units)  1.3284 (a.u.) for type    5

     total cpu time spent up to now is      523.2 secs

     Self-consistent Calculation

     iteration #  1     ecut=   120.00 Ry     beta= 0.70
     Davidson diagonalization with overlap
     c_bands:  1 eigenvalues not converged
     ethr =  1.00E-06,  avg # of iterations = 13.0

     negative rho (up, down):  9.090E-01 9.090E-01

     total cpu time spent up to now is      567.8 secs

     total energy              =   -2943.05089497 Ry
     estimated scf accuracy    <       0.10212935 Ry

     total magnetization       =    -0.04 Bohr mag/cell
     absolute magnetization    =     0.05 Bohr mag/cell

     iteration #  2     ecut=   120.00 Ry     beta= 0.70
     Davidson diagonalization with overlap
     ethr =  3.69E-05,  avg # of iterations =  2.0

     negative rho (up, down):  9.090E-01 9.090E-01

     total cpu time spent up to now is      584.9 secs

     total energy              =   -2943.05763135 Ry
     estimated scf accuracy    <       0.05014544 Ry

     total magnetization       =    -0.04 Bohr mag/cell
     absolute magnetization    =     0.05 Bohr mag/cell

     iteration #  3     ecut=   120.00 Ry     beta= 0.70
     Davidson diagonalization with overlap
     ethr =  1.81E-05,  avg # of iterations =  1.0

     negative rho (up, down):  9.090E-01 9.090E-01

     total cpu time spent up to now is      600.8 secs

     total energy              =   -2943.06047083 Ry
     estimated scf accuracy    <       0.00236519 Ry

     total magnetization       =    -0.04 Bohr mag/cell
     absolute magnetization    =     0.05 Bohr mag/cell

     iteration #  4     ecut=   120.00 Ry     beta= 0.70
     Davidson diagonalization with overlap
     ethr =  8.54E-07,  avg # of iterations =  6.5

     negative rho (up, down):  9.089E-01 9.089E-01

     Magnetic moment per site  (integrated on atomic sphere of radius R)
     atom   1 (R=0.112)  charge=  9.4626  magn= -0.0000
     atom   2 (R=0.112)  charge=  9.0595  magn= -0.0001
     atom   3 (R=0.112)  charge=  9.0591  magn= -0.0001
     atom   4 (R=0.112)  charge=  9.0593  magn= -0.0001
     atom   5 (R=0.112)  charge=  9.0491  magn= -0.0002
     atom   6 (R=0.110)  charge= 10.3505  magn=  0.0000
     atom   7 (R=0.110)  charge= 10.3476  magn= -0.0001
     atom   8 (R=0.075)  charge=  6.6135  magn=  0.0000
     atom   9 (R=0.075)  charge=  6.6232  magn= -0.0001
     atom  10 (R=0.075)  charge=  6.5987  magn= -0.0005
     atom  11 (R=0.075)  charge=  6.5961  magn= -0.0003
     atom  12 (R=0.075)  charge=  6.5978  magn= -0.0005
     atom  13 (R=0.075)  charge=  6.5981  magn= -0.0002
     atom  14 (R=0.075)  charge=  6.5974  magn= -0.0005
     atom  15 (R=0.075)  charge=  6.5948  magn= -0.0004
     atom  16 (R=0.075)  charge=  6.5986  magn= -0.0010
     atom  17 (R=0.075)  charge=  6.5976  magn= -0.0005
     atom  18 (R=0.111)  charge=  9.4558  magn=  0.0001
     atom  19 (R=0.111)  charge=  9.0035  magn= -0.0011
     atom  20 (R=0.111)  charge=  8.9945  magn= -0.0003
     atom  21 (R=0.111)  charge=  9.0064  magn= -0.0015
     atom  22 (R=0.111)  charge=  8.9947  magn= -0.0006
     atom  23 (R=0.075)  charge=  0.9207  magn= -0.0000

     total cpu time spent up to now is      619.1 secs

     End of self-consistent calculation

 ------ SPIN UP ------------


          k = 0.0000 0.0000 0.0000 ( 61588 PWs)   bands (ev):

   -60.7798 -60.7702 -60.7348 -60.7252 -60.6975 -60.6931 -60.6534 -60.6493
   -60.5167 -60.2157 -54.3914 -54.3458 -54.2612 -54.2162 -52.7220 -46.2673
   -46.2527 -41.6574 -41.6287 -41.5557 -41.5433 -39.8085 -27.7819 -27.7730
   -27.6982 -27.6846 -27.5914 -27.5863 -27.4668 -27.4539 -27.3539 -27.3296
   -27.2858 -27.2682 -27.2531 -27.2303 -27.2194 -27.1676 -27.1581 -27.1358
   -27.0911 -26.9609 -26.9570 -26.9529 -26.9440 -26.9150 -26.8845 -26.8824
   -26.8716 -26.8536 -26.8520 -26.7955 -24.1750 -23.9613 -23.6659 -23.5752
   -23.3191 -23.1847 -23.1621 -23.0614 -22.9357 -22.8650 -22.8414 -22.6231
   -22.5074 -22.4539 -22.4022 -22.3524 -22.2808 -22.2324 -21.7739 -21.7081
   -21.6502 -20.2192 -19.9378 -19.8660 -19.8505 -19.6239 -19.6056 -19.5998
   -19.5852 -19.5754 -19.5374 -19.3968 -19.3669 -18.1536 -17.9565 -17.8278
     1.4087   2.7290   2.9278   3.1402   3.3014   3.4708   3.5339   3.6857
     3.7495   3.8765   3.9142   4.0632   4.2087   4.5104   4.5697   4.6998
     4.7714   4.7996   5.0241   5.0766   5.1455   5.2606   5.2821   5.3334
     5.3973   5.5522   5.6380   5.7262   5.7323   5.7532   5.7679   5.8069
     5.9401   6.1112   6.1987   6.2287   6.2551   6.3133   6.3599   6.3902
     6.4536   6.6007   6.6601   6.7260   6.8075   6.9524   6.9956   7.0482
     7.0964   7.1490   7.2419   7.2691   7.3220   7.4303   7.5543   7.5662
     7.6208   7.7488   7.8975   7.9028   8.0831   8.0947   8.1108   8.2135
     8.2611   8.2758   8.3543   8.3811   8.4766   8.5525   8.6419   8.6590
     8.8336   8.8977   8.9667   9.0675   9.1203   9.2438   9.2882

 ------ SPIN DOWN ----------


          k = 0.0000 0.0000 0.0000 ( 61588 PWs)   bands (ev):

   -60.7806 -60.7707 -60.7357 -60.7257 -60.6986 -60.6937 -60.6546 -60.6498
   -60.5167 -60.2159 -54.3914 -54.3458 -54.2612 -54.2163 -52.7220 -46.2674
   -46.2527 -41.6585 -41.6291 -41.5568 -41.5436 -39.8085 -27.7834 -27.7739
   -27.6998 -27.6854 -27.5926 -27.5873 -27.4677 -27.4554 -27.3544 -27.3304
   -27.2861 -27.2692 -27.2538 -27.2311 -27.2204 -27.1683 -27.1591 -27.1362
   -27.0912 -26.9616 -26.9582 -26.9536 -26.9453 -26.9157 -26.8859 -26.8833
   -26.8720 -26.8548 -26.8529 -26.7957 -24.1750 -23.9613 -23.6661 -23.5753
   -23.3192 -23.1848 -23.1622 -23.0615 -22.9357 -22.8651 -22.8413 -22.6232
   -22.5074 -22.4539 -22.4024 -22.3524 -22.2809 -22.2324 -21.7740 -21.7082
   -21.6502 -20.2203 -19.9380 -19.8671 -19.8515 -19.6253 -19.6065 -19.6003
   -19.5856 -19.5759 -19.5378 -19.3982 -19.3673 -18.1536 -17.9565 -17.8279
     1.4080   2.7285   2.9263   3.1397   3.3009   3.4690   3.5335   3.6854
     3.7489   3.8761   3.9125   4.0626   4.2078   4.5099   4.5691   4.6986
     4.7706   4.7988   5.0229   5.0755   5.1448   5.2598   5.2812   5.3323
     5.3959   5.5516   5.6374   5.7252   5.7314   5.7524   5.7675   5.8063
     5.9396   6.1097   6.1979   6.2279   6.2543   6.3123   6.3592   6.3891
     6.4522   6.6000   6.6592   6.7251   6.8065   6.9510   6.9929   7.0457
     7.0917   7.1469   7.2379   7.2663   7.3208   7.4264   7.5529   7.5639
     7.6189   7.7471   7.8964   7.9015   8.0808   8.0932   8.1095   8.2102
     8.2596   8.2749   8.3517   8.3797   8.4755   8.5510   8.6406   8.6578
     8.8326   8.8947   8.9653   9.0663   9.1191   9.2433   9.2703

     the Fermi energy is     7.2291 ev

!    total energy              =   -2943.06002457 Ry
     estimated scf accuracy    <       0.00075835 Ry
     smearing contrib. (-TS)   =      -0.09939004 Ry
     internal energy E=F+TS    =   -2942.96063453 Ry

     total magnetization       =    -0.04 Bohr mag/cell
     absolute magnetization    =     0.05 Bohr mag/cell

     convergence has been achieved in   4 iterations

     negative rho (up, down):  9.089E-01 9.089E-01

     Forces acting on atoms (cartesian axes, Ry/au):

     atom    1 type  1   force =    -0.00946364   -0.02699611    0.01142146
     atom    2 type  1   force =    -0.11335325   -0.01744677   -0.00980985
     atom    3 type  1   force =    -0.11581431    0.01272681   -0.00309660
     atom    4 type  1   force =     0.11447397   -0.01160961   -0.00990862
     atom    5 type  1   force =     0.13140673   -0.01026685   -0.00118391
     atom    6 type  2   force =    -0.00915792   -0.01715532    0.00703437
     atom    7 type  2   force =    -0.00897615    0.01276645   -0.01067279
     atom    8 type  3   force =    -0.11970400    0.00593501   -0.00785611
     atom    9 type  3   force =     0.08805237   -0.02953324   -0.00401888
     atom   10 type  3   force =    -0.01940744   -0.02732004   -0.05757451
     atom   11 type  3   force =    -0.01791965   -0.03329545    0.05903947
     atom   12 type  3   force =    -0.01580086    0.03486530   -0.05430941
     atom   13 type  3   force =    -0.01753840    0.02820654    0.06545192
     atom   14 type  3   force =     0.01908700   -0.02982783   -0.05931466
     atom   15 type  3   force =     0.01792389   -0.03479465    0.06036835
     atom   16 type  3   force =     0.01502269    0.03807559   -0.05292491
     atom   17 type  3   force =     0.01569067    0.03215155    0.06426556
     atom   18 type  4   force =    -0.00855919    0.02174243   -0.01099350
     atom   19 type  4   force =    -0.12646573   -0.00526511   -0.11370921
     atom   20 type  4   force =    -0.13168198    0.00523789    0.12101332
     atom   21 type  4   force =     0.12215856   -0.00923165   -0.11563519
     atom   22 type  4   force =     0.12918063    0.00389988    0.12143723
     atom   23 type  5   force =     0.06084602    0.05713518    0.00097648
     The non-local contrib.  to forces
     atom    1 type  1   force =    -0.00034360   -0.00814374    0.02318709
     atom    2 type  1   force =    -0.24415699   -0.16213163    0.01246805
     atom    3 type  1   force =    -0.23862500    0.15454084   -0.03079162
     atom    4 type  1   force =     0.24593508   -0.16497380    0.01237432
     atom    5 type  1   force =     0.25173719    0.14283011   -0.03057030
     atom    6 type  2   force =     0.00517028   -0.04849031   -0.07283238
     atom    7 type  2   force =    -0.01708872    0.06290910    0.06100203
     atom    8 type  3   force =    -0.25728429    0.00095983   -0.00808894
     atom    9 type  3   force =     0.03294423   -0.11453983   -0.01157929
     atom   10 type  3   force =    -0.20786657    0.00449337   -0.21048584
     atom   11 type  3   force =    -0.21518558    0.00452299    0.20230856
     atom   12 type  3   force =    -0.20127336   -0.02148612   -0.17662365
     atom   13 type  3   force =    -0.21077020   -0.00553739    0.21014701
     atom   14 type  3   force =     0.19933993    0.00135099   -0.21615217
     atom   15 type  3   force =     0.21059189    0.00515694    0.20455424
     atom   16 type  3   force =     0.21107809   -0.02554446   -0.17588247
     atom   17 type  3   force =     0.21865883   -0.01029469    0.20756428
     atom   18 type  4   force =    -0.01779298    0.05305329   -0.06425125
     atom   19 type  4   force =     0.06653689    0.00838943    0.06945935
     atom   20 type  4   force =     0.06102464   -0.01503004   -0.06475062
     atom   21 type  4   force =    -0.06306405    0.00929823    0.07107849
     atom   22 type  4   force =    -0.05810134   -0.01225568   -0.06111669
     atom   23 type  5   force =    -0.06216381   -0.02920020   -0.00010865
     The ionic contribution  to forces
     atom    1 type  1   force =    -0.20571649   -4.72507013   14.09475673
     atom    2 type  1   force =   -39.68416465   -6.14216174    0.77973954
     atom    3 type  1   force =   -39.68132352    6.20426598   -0.71333025
     atom    4 type  1   force =    39.50774447   -6.22295012    0.77892545
     atom    5 type  1   force =    39.13197004    6.76742747   -0.70907335
     atom    6 type  2   force =    -0.21776670   -3.69124681  -13.99790727
     atom    7 type  2   force =    -0.42062981    3.66376888   14.14679273
     atom    8 type  3   force =   -52.14983786    0.00052700   -0.06498543
     atom    9 type  3   force =    49.95768022   -1.14164902   -0.06641489
     atom   10 type  3   force =   -36.05803267   -2.09825434  -23.09897259
     atom   11 type  3   force =   -35.13214602   -0.85105061   22.10321009
     atom   12 type  3   force =   -35.25208295    0.84149726  -22.17796862
     atom   13 type  3   force =   -36.04242146    2.22569558   23.10765413
     atom   14 type  3   force =    35.95739754   -2.12445191  -23.16286413
     atom   15 type  3   force =    35.03227946   -0.87684109   22.16695787
     atom   16 type  3   force =    35.07971313    0.94764714  -22.33331374
     atom   17 type  3   force =    35.86769143    2.33297048   23.26470943
     atom   18 type  4   force =    -0.39249732    4.43043494  -14.05923826
     atom   19 type  4   force =   -35.90724906    0.92443594  -25.58986069
     atom   20 type  4   force =   -35.89015131   -0.98511098   25.56814276
     atom   21 type  4   force =    35.67997121    0.84849693  -25.85379894
     atom   22 type  4   force =    35.66274255   -1.05871773   25.83403113
     atom   23 type  5   force =     5.15682977    0.73033688   -0.01719169
     The local contribution  to forces
     atom    1 type  1   force =     0.19759444    4.70371959  -14.11735681
     atom    2 type  1   force =    39.83710514    6.28796372   -0.82871236
     atom    3 type  1   force =    39.82764986   -6.34762889    0.71884784
     atom    4 type  1   force =   -39.65971652    6.37912499   -0.82885836
     atom    5 type  1   force =   -39.27397861   -6.92548284    0.71834230
     atom    6 type  2   force =     0.20712211    3.72740936   14.04086252
     atom    7 type  2   force =     0.43244193   -3.70873192  -14.22830621
     atom    8 type  3   force =    52.32557884    0.00339549    0.03035333
     atom    9 type  3   force =   -49.90399407    1.24742075    0.03787115
     atom   10 type  3   force =    36.27895803    2.07022878   23.27106390
     atom   11 type  3   force =    35.36331021    0.80935351  -22.25356858
     atom   12 type  3   force =    35.46919916   -0.78434904   22.31637497
     atom   13 type  3   force =    36.27083184   -2.19078847  -23.25722225
     atom   14 type  3   force =   -36.16639371    2.09773006   23.33749843
     atom   15 type  3   force =   -35.25608317    0.83026028  -22.31632741
     atom   16 type  3   force =   -35.30532736   -0.88277576   22.47051303
     atom   17 type  3   force =   -36.10138234   -2.29035175  -23.41273673
     atom   18 type  4   force =     0.40412923   -4.46886281   14.08182859
     atom   19 type  4   force =    35.74024959   -0.94043965   25.41188967
     atom   20 type  4   force =    35.71762112    1.00663431  -25.37386015
     atom   21 type  4   force =   -35.51714320   -0.86955432   25.67388508
     atom   22 type  4   force =   -35.49288949    1.07871880  -25.64351552
     atom   23 type  5   force =    -5.03640460   -0.64558502    0.01415074
     The core correction contribution to forces
     atom    1 type  1   force =     0.00012384    0.00212571   -0.00238562
     atom    2 type  1   force =    -0.01128408   -0.00157748    0.00071341
     atom    3 type  1   force =    -0.01234939    0.00292010   -0.00137081
     atom    4 type  1   force =     0.01175111   -0.00236458    0.00070898
     atom    5 type  1   force =     0.00918641    0.00639777   -0.00191619
     atom    6 type  2   force =    -0.00026098    0.00236340    0.00304205
     atom    7 type  2   force =     0.00062500   -0.00297141   -0.00237889
     atom    8 type  3   force =    -0.03109819    0.00076101   -0.00081415
     atom    9 type  3   force =     0.00677922   -0.01404859   -0.00053939
     atom   10 type  3   force =    -0.02188379    0.00911321   -0.01726270
     atom   11 type  3   force =    -0.02390440    0.00921879    0.01785078
     atom   12 type  3   force =    -0.02255803   -0.01004995   -0.01524740
     atom   13 type  3   force =    -0.02291484   -0.00932348    0.01663946
     atom   14 type  3   force =     0.02185791    0.00970895   -0.01609109
     atom   15 type  3   force =     0.02331590    0.01036186    0.01654115
     atom   16 type  3   force =     0.02325843   -0.01138652   -0.01403146
     atom   17 type  3   force =     0.02306937   -0.01007767    0.01559269
     atom   18 type  4   force =     0.00088211   -0.00287965    0.00291199
     atom   19 type  4   force =    -0.00998125    0.00008619   -0.00937643
     atom   20 type  4   force =    -0.00984914    0.00044361    0.00935269
     atom   21 type  4   force =     0.01000488    0.00016433   -0.00932086
     atom   22 type  4   force =     0.00984126    0.00038321    0.00897949
     atom   23 type  5   force =     0.00000000    0.00000000    0.00000000
     The Hubbard contrib.    to forces
     atom    1 type  1   force =     0.00000000    0.00000000    0.00000000
     atom    2 type  1   force =     0.00000000    0.00000000    0.00000000
     atom    3 type  1   force =     0.00000000    0.00000000    0.00000000
     atom    4 type  1   force =     0.00000000    0.00000000    0.00000000
     atom    5 type  1   force =     0.00000000    0.00000000    0.00000000
     atom    6 type  2   force =     0.00000000    0.00000000    0.00000000
     atom    7 type  2   force =     0.00000000    0.00000000    0.00000000
     atom    8 type  3   force =     0.00000000    0.00000000    0.00000000
     atom    9 type  3   force =     0.00000000    0.00000000    0.00000000
     atom   10 type  3   force =     0.00000000    0.00000000    0.00000000
     atom   11 type  3   force =     0.00000000    0.00000000    0.00000000
     atom   12 type  3   force =     0.00000000    0.00000000    0.00000000
     atom   13 type  3   force =     0.00000000    0.00000000    0.00000000
     atom   14 type  3   force =     0.00000000    0.00000000    0.00000000
     atom   15 type  3   force =     0.00000000    0.00000000    0.00000000
     atom   16 type  3   force =     0.00000000    0.00000000    0.00000000
     atom   17 type  3   force =     0.00000000    0.00000000    0.00000000
     atom   18 type  4   force =     0.00000000    0.00000000    0.00000000
     atom   19 type  4   force =     0.00000000    0.00000000    0.00000000
     atom   20 type  4   force =     0.00000000    0.00000000    0.00000000
     atom   21 type  4   force =     0.00000000    0.00000000    0.00000000
     atom   22 type  4   force =     0.00000000    0.00000000    0.00000000
     atom   23 type  5   force =     0.00000000    0.00000000    0.00000000
     The SCF correction term to forces
     atom    1 type  1   force =    -0.00082837    0.00036959    0.01167833
     atom    2 type  1   force =    -0.01055922    0.00045749    0.02443977
     atom    3 type  1   force =    -0.01087281   -0.00137409    0.02200650
     atom    4 type  1   force =     0.00905327   -0.00044897    0.02539927
     atom    5 type  1   force =     0.01278514   -0.00144222    0.02049190
     atom    6 type  2   force =    -0.00312918   -0.00719382    0.03232772
     atom    7 type  2   force =    -0.00403109   -0.00221107    0.01067580
     atom    8 type  3   force =    -0.00676905    0.00028883    0.03413735
     atom    9 type  3   force =    -0.00506378   -0.00671941    0.03510179
     atom   10 type  3   force =    -0.01028899   -0.01290392   -0.00345902
     atom   11 type  3   force =    -0.00970041   -0.00534299   -0.01230312
     atom   12 type  3   force =    -0.00879222    0.00925029   -0.00238645
     atom   13 type  3   force =    -0.01197029    0.00815745   -0.01330817
     atom   14 type  3   force =     0.00717878   -0.01416879   -0.00324744
     atom   15 type  3   force =     0.00811326   -0.00373550   -0.01289924
     atom   16 type  3   force =     0.00659386    0.01013233   -0.00175202
     atom   17 type  3   force =     0.00794684    0.00990233   -0.01240585
     atom   18 type  4   force =    -0.00298678    0.00999380    0.02621369
     atom   19 type  4   force =    -0.01572845    0.00226011    0.00263715
     atom   20 type  4   force =    -0.01003384   -0.00170187   -0.01941311
     atom   21 type  4   force =     0.01268317    0.00236033    0.00097930
     atom   22 type  4   force =     0.00788109   -0.00423159   -0.01848291
     atom   23 type  5   force =     0.00287811    0.00158066    0.00258433

     Total force =     0.499764     Total SCF correction =     0.103676
     SCF correction compared to forces is large: reduce conv_thr to get better values


     Computing stress (Cartesian axis) and pressure


     negative rho (up, down):  9.089E-01 9.089E-01
          total   stress  (Ry/bohr**3)                   (kbar)     P=       87.14
   0.00072483   0.00002835   0.00000157          106.63        4.17        0.23
[...]
     4.7843   4.8010   5.0384   5.0929   5.1618   5.2757   5.2940   5.3472
     5.4052   5.5600   5.6630   5.7389   5.7471   5.7658   5.7758   5.8240
     5.9532   6.1204   6.1998   6.2432   6.2709   6.3324   6.3755   6.4026
     6.4520   6.6066   6.6693   6.7396   6.8193   6.9642   7.0045   7.0604
     7.1025   7.1588   7.2463   7.2739   7.3270   7.4407   7.5619   7.5637
     7.6353   7.7633   7.9073   7.9225   8.0958   8.0997   8.1213   8.2190
     8.2660   8.2860   8.3658   8.3928   8.4924   8.5665   8.6509   8.6689
     8.8439   8.9041   8.9869   9.0785   9.1397   9.2546   9.2825

     the Fermi energy is     7.2381 ev

!    total energy              =   -2943.04008761 Ry
     estimated scf accuracy    <       0.00096538 Ry
     smearing contrib. (-TS)   =      -0.09993235 Ry
     internal energy E=F+TS    =   -2942.94015526 Ry

     total magnetization       =    -0.00 Bohr mag/cell
     absolute magnetization    =     0.00 Bohr mag/cell

     convergence has been achieved in   4 iterations

     negative rho (up, down):  9.092E-01 9.092E-01

     Forces acting on atoms (cartesian axes, Ry/au):

     atom    1 type  1   force =    -0.01333916   -0.03082859    0.02039165
     atom    2 type  1   force =    -0.11797162   -0.01541928    0.00700908
     atom    3 type  1   force =    -0.11996208    0.01043751    0.01299258
     atom    4 type  1   force =     0.12050301   -0.01045607    0.00742964
     atom    5 type  1   force =     0.13603573   -0.01526922    0.01471077
     atom    6 type  2   force =    -0.01287479   -0.01982485   -0.00005552
     atom    7 type  2   force =    -0.01000540    0.01242518   -0.01235193
     atom    8 type  3   force =    -0.12227072    0.00692200   -0.00249914
     atom    9 type  3   force =     0.03896453   -0.06374161    0.00242963
     atom   10 type  3   force =    -0.02163556   -0.02604172   -0.06253122
     atom   11 type  3   force =    -0.01919961   -0.03443833    0.05086561
     atom   12 type  3   force =    -0.01750415    0.03486504   -0.05909057
     atom   13 type  3   force =    -0.01921550    0.03109713    0.05655929
     atom   14 type  3   force =     0.02078416   -0.03078078   -0.06484659
     atom   15 type  3   force =     0.01886887   -0.03700914    0.05245626
     atom   16 type  3   force =     0.01696673    0.03869665   -0.05842899
     atom   17 type  3   force =     0.01743268    0.03607352    0.05610393
     atom   18 type  4   force =    -0.00879752    0.02104559   -0.00802121
     atom   19 type  4   force =    -0.12828419   -0.00489230   -0.11474446
     atom   20 type  4   force =    -0.13304768    0.00481156    0.11066744
     atom   21 type  4   force =     0.12323849   -0.00875275   -0.11683496
     atom   22 type  4   force =     0.12985223    0.00327300    0.11114142
     atom   23 type  5   force =     0.12146157    0.09780746   -0.00335269
     The non-local contrib.  to forces
     atom    1 type  1   force =     0.00370570   -0.00332511    0.01961209
     atom    2 type  1   force =    -0.24656012   -0.16098822    0.02341703
     atom    3 type  1   force =    -0.24030505    0.15286281   -0.02018941
     atom    4 type  1   force =     0.24905632   -0.16710151    0.02372031
     atom    5 type  1   force =     0.25750088    0.13600023   -0.02104906
     atom    6 type  2   force =     0.00744834   -0.04905001   -0.07018119
     atom    7 type  2   force =    -0.01494189    0.06471886    0.06113817
     atom    8 type  3   force =    -0.25289629    0.00052044    0.00018519
     atom    9 type  3   force =     0.02363807   -0.12559399   -0.00042646
     atom   10 type  3   force =    -0.21286141    0.00494504   -0.21308797
     atom   11 type  3   force =    -0.21594655    0.00157533    0.19870152
     atom   12 type  3   force =    -0.20381088   -0.02218366   -0.17781470
     atom   13 type  3   force =    -0.20990852   -0.00252016    0.20512260
     atom   14 type  3   force =     0.20253429    0.00087298   -0.21828148
     atom   15 type  3   force =     0.20951699    0.00253603    0.20015977
     atom   16 type  3   force =     0.21283017   -0.02520791   -0.17781750
     atom   17 type  3   force =     0.21660742   -0.00611057    0.20406967
     atom   18 type  4   force =    -0.01646996    0.05553108   -0.05611180
     atom   19 type  4   force =     0.06379958    0.00898252    0.07142923
     atom   20 type  4   force =     0.05819020   -0.01550471   -0.07018493
     atom   21 type  4   force =    -0.06141608    0.01011762    0.07166017
     atom   22 type  4   force =    -0.05559644   -0.01244037   -0.06481079
     atom   23 type  5   force =    -0.07005851   -0.03680175   -0.00016764
     The ionic contribution  to forces
     atom    1 type  1   force =    -0.29056283   -4.80836670   14.27834027
     atom    2 type  1   force =   -39.71071576   -6.16834150    0.78023534
     atom    3 type  1   force =   -39.68437277    6.19557011   -0.71193221
     atom    4 type  1   force =    39.55252805   -6.31358656    0.77891359
     atom    5 type  1   force =    39.18289213    6.70947775   -0.70754496
     atom    6 type  2   force =    -0.30303320   -3.77730244  -14.18714186
     atom    7 type  2   force =    -0.39333802    3.72682131   14.21301521
     atom    8 type  3   force =   -52.32859904    0.04336740   -0.06557285
     atom    9 type  3   force =    49.65377496   -1.13825526   -0.05417093
     atom   10 type  3   force =   -36.05181409   -2.09297556  -23.08104848
     atom   11 type  3   force =   -35.12688231   -0.84590729   22.08487932
     atom   12 type  3   force =   -35.24108376    0.82202119  -22.15058158
     atom   13 type  3   force =   -36.02698477    2.20447745   23.07776699
     atom   14 type  3   force =    35.95724614   -2.12450562  -23.15011053
     atom   15 type  3   force =    35.03347405   -0.87735154   22.15391113
     atom   16 type  3   force =    35.08604202    0.91494885  -22.29194956
     atom   17 type  3   force =    35.86980835    2.29875694   23.22062365
     atom   18 type  4   force =    -0.36715086    4.48576755  -14.11806057
     atom   19 type  4   force =   -35.88577491    0.93494356  -25.53649512
     atom   20 type  4   force =   -35.86786544   -0.97007380   25.51306171
     atom   21 type  4   force =    35.68955045    0.87925841  -25.79171907
     atom   22 type  4   force =    35.67275822   -1.02375792   25.76937976
     atom   23 type  5   force =     5.58010338    0.92501364   -0.02379921
     The local contribution  to forces
     atom    1 type  1   force =     0.27509487    4.77553938  -14.26070083
     atom    2 type  1   force =    39.84613973    6.31975239   -0.76276435
     atom    3 type  1   force =    39.81305398   -6.34599064    0.78214620
     atom    4 type  1   force =   -39.68465895    6.47585119   -0.76058791
     atom    5 type  1   force =   -39.30139414   -6.87385186    0.78009364
     atom    6 type  2   force =     0.28427018    3.81381578   14.29056855
     atom    7 type  2   force =     0.39996195   -3.77203253  -14.26839860
     atom    8 type  3   force =    52.48669624   -0.03754620    0.09693469
     atom    9 type  3   force =   -49.63888640    1.21247381    0.09080561
     atom   10 type  3   force =    36.26097181    2.06180289   23.24662319
     atom   11 type  3   force =    35.34673909    0.79117734  -22.26275839
     atom   12 type  3   force =    35.44744279   -0.76186712   22.28248414
     atom   13 type  3   force =    36.23983901   -2.15141259  -23.25736539
     atom   14 type  3   force =   -36.15252667    2.08855117   23.31753744
     atom   15 type  3   force =   -35.24128467    0.81685161  -22.33100148
     atom   16 type  3   force =   -35.29522004   -0.84630824   22.42410158
     atom   17 type  3   force =   -36.08529981   -2.23530149  -23.39880376
     atom   18 type  4   force =     0.37681674   -4.52533393   14.19701307
     atom   19 type  4   force =    35.69909445   -0.95039626   25.36429864
     atom   20 type  4   force =    35.67824120    0.98962090  -25.35746861
     atom   21 type  4   force =   -35.50733959   -0.89796076   25.61576856
     atom   22 type  4   force =   -35.48569509    1.03860586  -25.61716956
     atom   23 type  5   force =    -5.38580957   -0.78941969    0.02555803
     The core correction contribution to forces
     atom    1 type  1   force =     0.00044161    0.00263517   -0.00325278
     atom    2 type  1   force =    -0.01126245   -0.00151042    0.00083521
     atom    3 type  1   force =    -0.01223723    0.00298148   -0.00132744
     atom    4 type  1   force =     0.01178167   -0.00252287    0.00090265
     atom    5 type  1   force =     0.00941602    0.00614700   -0.00187812
     atom    6 type  2   force =    -0.00037427    0.00239249    0.00298611
     atom    7 type  2   force =     0.00056416   -0.00309205   -0.00241979
     atom    8 type  3   force =    -0.03054497    0.00066451   -0.00082517
     atom    9 type  3   force =     0.00533554   -0.01531742   -0.00033254
     atom   10 type  3   force =    -0.02223436    0.00915502   -0.01750335
     atom   11 type  3   force =    -0.02384823    0.00913770    0.01781214
     atom   12 type  3   force =    -0.02274815   -0.01005004   -0.01524954
     atom   13 type  3   force =    -0.02279430   -0.00926438    0.01653659
     atom   14 type  3   force =     0.02199349    0.00975090   -0.01640648
     atom   15 type  3   force =     0.02305576    0.01027316    0.01654393
     atom   16 type  3   force =     0.02318774   -0.01130846   -0.01428668
     atom   17 type  3   force =     0.02266513   -0.00995958    0.01565062
     atom   18 type  4   force =     0.00083912   -0.00299286    0.00290277
     atom   19 type  4   force =    -0.00992660    0.00005576   -0.00942222
     atom   20 type  4   force =    -0.00979931    0.00046514    0.00941499
     atom   21 type  4   force =     0.01001852    0.00013490   -0.00929061
     atom   22 type  4   force =     0.00982626    0.00037580    0.00893821
     atom   23 type  5   force =     0.00000000    0.00000000    0.00000000
     The Hubbard contrib.    to forces
     atom    1 type  1   force =     0.00000000    0.00000000    0.00000000
     atom    2 type  1   force =     0.00000000    0.00000000    0.00000000
     atom    3 type  1   force =     0.00000000    0.00000000    0.00000000
     atom    4 type  1   force =     0.00000000    0.00000000    0.00000000
     atom    5 type  1   force =     0.00000000    0.00000000    0.00000000
     atom    6 type  2   force =     0.00000000    0.00000000    0.00000000
     atom    7 type  2   force =     0.00000000    0.00000000    0.00000000
     atom    8 type  3   force =     0.00000000    0.00000000    0.00000000
     atom    9 type  3   force =     0.00000000    0.00000000    0.00000000
     atom   10 type  3   force =     0.00000000    0.00000000    0.00000000
     atom   11 type  3   force =     0.00000000    0.00000000    0.00000000
     atom   12 type  3   force =     0.00000000    0.00000000    0.00000000
     atom   13 type  3   force =     0.00000000    0.00000000    0.00000000
     atom   14 type  3   force =     0.00000000    0.00000000    0.00000000
     atom   15 type  3   force =     0.00000000    0.00000000    0.00000000
     atom   16 type  3   force =     0.00000000    0.00000000    0.00000000
     atom   17 type  3   force =     0.00000000    0.00000000    0.00000000
     atom   18 type  4   force =     0.00000000    0.00000000    0.00000000
     atom   19 type  4   force =     0.00000000    0.00000000    0.00000000
     atom   20 type  4   force =     0.00000000    0.00000000    0.00000000
     atom   21 type  4   force =     0.00000000    0.00000000    0.00000000
     atom   22 type  4   force =     0.00000000    0.00000000    0.00000000
     atom   23 type  5   force =     0.00000000    0.00000000    0.00000000
     The SCF correction term to forces
     atom    1 type  1   force =    -0.00157693    0.00258002   -0.01148405
     atom    2 type  1   force =     0.00486856   -0.00444017   -0.03259110
     atom    3 type  1   force =     0.00434057    0.00490510   -0.03358151
     atom    4 type  1   force =    -0.00776250   -0.00320497   -0.03339594
     atom    5 type  1   force =    -0.01193759    0.00684902   -0.03278767
     atom    6 type  2   force =    -0.00074427   -0.00978930   -0.03416408
     atom    7 type  2   force =    -0.00181001   -0.00409905   -0.01356387
     atom    8 type  3   force =     0.00351491   -0.00019279   -0.03109795
     atom    9 type  3   force =    -0.00445607    0.00284261   -0.03132298
     atom   10 type  3   force =     0.00474407   -0.00907775    0.00460845
     atom   11 type  3   force =     0.00117998    0.00946995    0.01435407
     atom   12 type  3   force =     0.00313742    0.00683602    0.00419417
     atom   13 type  3   force =     0.00107466   -0.01029183    0.01662156
     atom   14 type  3   force =    -0.00802152   -0.00555884    0.00453753
     atom   15 type  3   force =    -0.00545169    0.01057296    0.01496598
     atom   16 type  3   force =    -0.00943158    0.00646376    0.00364623
     atom   17 type  3   force =    -0.00590683   -0.01142041    0.01668682
     atom   18 type  4   force =    -0.00239098    0.00796511   -0.03164162
     atom   19 type  4   force =     0.00496487    0.00141347   -0.00243193
     atom   20 type  4   force =     0.00862725    0.00019539    0.01796734
     atom   21 type  4   force =    -0.00713323   -0.00041157   -0.00113096
     atom   22 type  4   force =    -0.01099915    0.00038100    0.01692685
     atom   23 type  5   force =    -0.00233215   -0.00109338   -0.00282081

     Total force =     0.516769     Total SCF correction =     0.110672
     SCF correction compared to forces is large: reduce conv_thr to get better values


     Computing stress (Cartesian axis) and pressure


     negative rho (up, down):  9.092E-01 9.092E-01
          total   stress  (Ry/bohr**3)                   (kbar)     P=       87.51
   0.00072159   0.00004708   0.00000079          106.15        6.93        0.12
   0.00004708   0.00067294  -0.00001226            6.93       98.99       -1.80
   0.00000079  -0.00001226   0.00039003            0.12       -1.80       57.38


     Entering Dynamics:    iteration =    20
                           time      =   0.0041 pico-seconds


ATOMIC_POSITIONS (angstrom)
Hf            2.6715511119        2.8277596209        6.6040878896
Hf            1.2531875643        1.2869891210        5.0584345472
Hf            1.2556613341        7.3908221136        5.0881085479
Hf            4.0899514124        1.2870191510        5.0584354394
Hf            4.0875238229        7.3906553786        5.0881194156
Nb            2.6715403623        2.7974601409        3.5157259061
Nb            2.6715283157        5.8775664196        6.6346749605
Ta            1.2095303773        4.3419375524        5.0710680295
Ta            4.1081849914        4.3264336402        5.0712115419
Ta            1.3085407341        1.3146850794        2.0580879791
Ta            1.3040986598        1.3088773314        8.0952116699
Ta            1.3053431074        7.3771212805        2.0455952195
Ta            1.3090157992        7.3663020169        8.0866986102
Ta            4.0344945893        1.3146710922        2.0580900379
Ta            4.0389514252        1.3089006527        8.0952060078
Ta            4.0377140901        7.3771406515        2.0456262841
Ta            4.0340243513        7.3663304387        8.0866779756
Zr            2.6715170584        5.8677099816        3.5272400910
Zr            1.2424240606        4.3228427104        1.9974227018
Zr            1.2388883890        4.3551229820        8.1523749973
Zr            4.1005184319        4.3227575481        1.9974395628
Zr            4.1040994087        4.3550925934        8.1523222691
H             5.5933826368        5.2581725184        5.0688427084


     kinetic energy (Ekin) =           4.01920217 Ry
     temperature           =       19229.75251818 K 
     Ekin + Etot (const)   =       -2939.02088543 Ry
     Ions kinetic stress =           70.98 (kbar)
                                    150.13          96.92          -0.50
                                     96.92          62.68          -0.32
                                     -0.50          -0.32           0.14



     Linear momentum :   -0.0000000000    0.0000000000    0.0000000000

     The maximum number of steps has been reached.

     End of molecular dynamics calculation

     diffusion coefficients :
     atom     1   D =       0.00000001 cm^2/s
     atom     2   D =       0.00000000 cm^2/s
     atom     3   D =       0.00000000 cm^2/s
     atom     4   D =       0.00000004 cm^2/s
     atom     5   D =       0.00000004 cm^2/s
     atom     6   D =       0.00000001 cm^2/s
     atom     7   D =       0.00000002 cm^2/s
     atom     8   D =       0.00000000 cm^2/s
     atom     9   D =       0.00000293 cm^2/s
     atom    10   D =       0.00000001 cm^2/s
     atom    11   D =       0.00000001 cm^2/s
     atom    12   D =       0.00000002 cm^2/s
     atom    13   D =       0.00000002 cm^2/s
     atom    14   D =       0.00000002 cm^2/s
     atom    15   D =       0.00000002 cm^2/s
     atom    16   D =       0.00000002 cm^2/s
     atom    17   D =       0.00000002 cm^2/s
     atom    18   D =       0.00000002 cm^2/s
     atom    19   D =       0.00000004 cm^2/s
     atom    20   D =       0.00000004 cm^2/s
     atom    21   D =       0.00000011 cm^2/s
     atom    22   D =       0.00000011 cm^2/s
     atom    23   D =       0.00032493 cm^2/s

     < D > =       0.00001428 cm^2/s

     Writing all to output data dir outdir/pwscf.save/

     init_run     :     10.04s CPU     11.91s WALL (       1 calls)
     electrons    :   2310.30s CPU   2780.31s WALL (      20 calls)
     update_pot   :     19.37s CPU     20.85s WALL (      19 calls)
     forces       :    278.06s CPU    307.90s WALL (      20 calls)
     stress       :    407.04s CPU    438.65s WALL (      20 calls)

     Called by init_run:
     wfcinit      :      7.62s CPU      9.01s WALL (       1 calls)
     potinit      :      0.47s CPU      0.50s WALL (       1 calls)
     hinit0       :      0.81s CPU      1.08s WALL (       1 calls)

     Called by electrons:
     c_bands      :   1827.77s CPU   2212.00s WALL (     101 calls)
     sum_band     :    319.08s CPU    377.90s WALL (     101 calls)
     v_of_rho     :     10.59s CPU     12.61s WALL (     121 calls)
     newd         :    182.24s CPU    212.25s WALL (     121 calls)
     mix_rho      :      0.95s CPU      1.26s WALL (     101 calls)

     Called by c_bands:
     init_us_2    :      3.85s CPU      4.04s WALL (     486 calls)
     init_us_2:cp :      3.85s CPU      4.04s WALL (     486 calls)
     regterg      :   1813.62s CPU   2194.24s WALL (     202 calls)

     Called by *egterg:
     rdiaghg      :     63.33s CPU     79.22s WALL (    1579 calls)
     h_psi        :    932.80s CPU   1051.15s WALL (    1619 calls)
     s_psi        :    311.39s CPU    311.90s WALL (    1619 calls)
     g_psi        :      0.69s CPU      0.74s WALL (    1415 calls)

     Called by h_psi:
     h_psi:calbec :    442.30s CPU    522.19s WALL (    1619 calls)
     vloc_psi     :    101.17s CPU    138.65s WALL (    1619 calls)
     add_vuspsi   :    388.02s CPU    388.92s WALL (    1619 calls)

     General routines
     calbec       :    827.12s CPU    972.04s WALL (    2021 calls)
     fft          :      9.27s CPU     26.84s WALL (    2514 calls)
     ffts         :      0.20s CPU      0.28s WALL (     101 calls)
     fftw         :    109.69s CPU    151.57s WALL (  105226 calls)

     Parallel routines

     PWSCF        :  50m55.29s CPU  59m56.73s WALL


   This run was terminated on:  14:41:14  16Jun2023            

=------------------------------------------------------------------------------=
   JOB DONE.
=------------------------------------------------------------------------------=
