
     Program PWSCF v.7.2 starts on 15Jun2023 at 19:38:53 

     This program is part of the open-source Quantum ESPRESSO suite
     for quantum simulation of materials; please cite
         "P. Giannozzi et al., J. Phys.:Condens. Matter 21 395502 (2009);
         "P. Giannozzi et al., J. Phys.:Condens. Matter 29 465901 (2017);
         "P. Giannozzi et al., J. Chem. Phys. 152 154105 (2020);
          URL http://www.quantum-espresso.org", 
     in publications or presentations arising from this work. More details at
     http://www.quantum-espresso.org/quote

     Parallel version (MPI), running on    42 processors

     MPI processes distributed on     1 nodes
     173148 MiB available memory on the printing compute node when the environment starts

     Reading input from md_data/md_Hf5Nb2Ta10Zr5H_20steps_50eV_incident75_polar90.in
Warning: card &CELL ignored
Warning: card / ignored

     Current dimensions of program PWSCF are:
     Max number of different atomic species (ntypx) = 10
     Max number of k-points (npk) =  40000
     Max angular momentum in pseudopotentials (lmaxx) =  4

     File outdir/pwscf.md deleted, as requested

     gamma-point specific algorithms are used

     R & G space division:  proc/nbgrp/npool/nimage =      42
     Subspace diagonalization in iterative solution of the eigenvalue problem:
     one sub-group per band group will be used
     custom distributed-memory algorithm (size of sub-group:  2*  2 procs)


     Parallelization info
     --------------------
     sticks:   dense  smooth     PW     G-vecs:    dense   smooth      PW
     Min         262     262     63                23470    23470    2920
     Max         265     265     66                23484    23484    2942
     Sum       11057   11057   2753               986005   986005  123175

     Using Slab Decomposition



     bravais-lattice index     =            0
     lattice parameter (alat)  =      17.6500  a.u.
     unit-cell volume          =    5552.8853 (a.u.)^3
     number of atoms/cell      =           23
     number of atomic types    =            5
     number of electrons       =       277.00
     number of Kohn-Sham states=          167
     kinetic-energy cutoff     =     120.0000  Ry
     charge density cutoff     =     480.0000  Ry
     scf convergence threshold =      1.0E-03
     mixing beta               =       0.7000
     number of iterations used =            8  TF        mixing
     energy convergence thresh.=      0.0E+00
     force convergence thresh. =      0.0E+00
     Exchange-correlation=  SLA  PW   PBX  PBC
                           (   1   4   3   4   0   0   0)
     nstep                     =           20


     celldm(1)=  17.650041  celldm(2)=   0.000000  celldm(3)=   0.000000
     celldm(4)=   0.000000  celldm(5)=   0.000000  celldm(6)=   0.000000

     crystal axes: (cart. coord. in units of alat)
               a(1) = (   1.000000   0.000000   0.000000 )  
               a(2) = (   0.000000   0.929336   0.000000 )  
               a(3) = (   0.000000   0.000000   1.086698 )  

     reciprocal axes: (cart. coord. in units 2 pi/alat)
               b(1) = (  1.000000  0.000000  0.000000 )  
               b(2) = (  0.000000  1.076037  0.000000 )  
               b(3) = (  0.000000  0.000000  0.920219 )  


     PseudoPot. # 1 for Hf read from file:
     q-e/pseudo/hf_pbe_v1.uspp.F.UPF
     MD5 check sum: 8ee9378dfe14276e333edf04c5e4aa26
     Pseudo is Ultrasoft + core correction, Zval = 12.0
     Generated by new atomic code, or converted to UPF format
     Using radial grid of  921 points,  8 beta functions with: 
                l(1) =   0
                l(2) =   0
                l(3) =   0
                l(4) =   1
                l(5) =   1
                l(6) =   2
                l(7) =   2
                l(8) =   3
     Q(r) pseudized with  6 coefficients,  rinner =    1.200   1.200   1.200
                                                       1.200   1.200   1.200
                                                       1.200

     PseudoPot. # 2 for Nb read from file:
     q-e/pseudo/nb_pbe_v1.uspp.F.UPF
     MD5 check sum: 573aab8a2fa660278ed4a62cd769473f
     Pseudo is Ultrasoft + core correction, Zval = 13.0
     Generated by new atomic code, or converted to UPF format
     Using radial grid of  887 points,  6 beta functions with: 
                l(1) =   0
                l(2) =   0
                l(3) =   1
                l(4) =   1
                l(5) =   2
                l(6) =   2
     Q(r) pseudized with  6 coefficients,  rinner =    1.000   1.000   1.000
                                                       1.000   1.000

     PseudoPot. # 3 for Ta read from file:
     q-e/pseudo/ta_pbe_v1.uspp.F.UPF
     MD5 check sum: f8bbe9446314a3b8ea5d9f3e3836c939
     Pseudo is Ultrasoft + core correction, Zval = 13.0
     Generated by new atomic code, or converted to UPF format
     Using radial grid of  921 points,  7 beta functions with: 
                l(1) =   0
                l(2) =   0
                l(3) =   1
                l(4) =   1
                l(5) =   2
                l(6) =   2
                l(7) =   3
     Q(r) pseudized with  6 coefficients,  rinner =    1.300   1.300   1.300
                                                       1.300   1.300   1.300
                                                       1.300

     PseudoPot. # 4 for Zr read from file:
     q-e/pseudo/zr_pbe_v1.uspp.F.UPF
     MD5 check sum: 5db81b1e868ab7776c4564c113de050b
     Pseudo is Ultrasoft + core correction, Zval = 12.0
     Generated by new atomic code, or converted to UPF format
     Using radial grid of  887 points,  6 beta functions with: 
                l(1) =   0
                l(2) =   0
                l(3) =   1
                l(4) =   1
                l(5) =   2
                l(6) =   2
     Q(r) pseudized with  6 coefficients,  rinner =    1.200   1.200   1.200
                                                       1.200   1.200

     PseudoPot. # 5 for H  read from file:
     q-e/pseudo/h_pbe_v1.4.uspp.F.UPF
     MD5 check sum: 761ae9a214b05c3daf00ab9f6b793d6f
     Pseudo is Ultrasoft, Zval =  1.0
     Generated by new atomic code, or converted to UPF format
     Using radial grid of  615 points,  2 beta functions with: 
                l(1) =   0
                l(2) =   0
     Q(r) pseudized with  8 coefficients,  rinner =    0.700

     atomic species   valence    mass     pseudopotential
        Hf            12.00   178.49000     Hf( 1.00)
        Nb            13.00    92.90637     Nb( 1.00)
        Ta            13.00   180.94788     Ta( 1.00)
        Zr            12.00    91.22400     Zr( 1.00)
        H              1.00     2.01400     H ( 1.00)

     Starting magnetic structure 
     atomic species   magnetization
        Hf           0.000
        Nb           0.000
        Ta           0.000
        Zr           0.000
        H            0.000

     No symmetry found



   Cartesian axes

     site n.     atom                  positions (alat units)
         1           Hf  tau(   1) = (   0.2858672   0.3026898   0.7070626  )
         2           Hf  tau(   2) = (   0.1341532   0.1377178   0.5415917  )
         3           Hf  tau(   3) = (   0.1344204   0.7911996   0.5447610  )
         4           Hf  tau(   4) = (   0.4375813   0.1377178   0.5415917  )
         5           Hf  tau(   5) = (   0.4373140   0.7911996   0.5447610  )
         6           Nb  tau(   6) = (   0.2858672   0.2994572   0.3764008  )
         7           Nb  tau(   7) = (   0.2858672   0.6291626   0.7103852  )
         8           Ta  tau(   8) = (   0.1294832   0.4647675   0.5429471  )
         9           Ta  tau(   9) = (   0.4422513   0.4647675   0.5429471  )
        10           Ta  tau(  10) = (   0.1399628   0.1406984   0.2204260  )
        11           Ta  tau(  11) = (   0.1394848   0.1400847   0.8666573  )
        12           Ta  tau(  12) = (   0.1396156   0.7897030   0.2190832  )
        13           Ta  tau(  13) = (   0.1400119   0.7885528   0.8657390  )
        14           Ta  tau(  14) = (   0.4317717   0.1406984   0.2204260  )
        15           Ta  tau(  15) = (   0.4322496   0.1400847   0.8666573  )
        16           Ta  tau(  16) = (   0.4321189   0.7897030   0.2190832  )
        17           Ta  tau(  17) = (   0.4317226   0.7885528   0.8657390  )
        18           Zr  tau(  18) = (   0.2858672   0.6280820   0.3776642  )
        19           Zr  tau(  19) = (   0.1331729   0.4627493   0.2141328  )
        20           Zr  tau(  20) = (   0.1328036   0.4661802   0.8725649  )
        21           Zr  tau(  21) = (   0.4385616   0.4627493   0.2141328  )
        22           Zr  tau(  22) = (   0.4389309   0.4661802   0.8725649  )
        23           H   tau(  23) = (   0.4976729   0.4646681   0.7498963  )

     number of k points=     1  Gaussian smearing, width (Ry)=  0.0220
                       cart. coord. in units 2pi/alat
        k(    1) = (   0.0000000   0.0000000   0.0000000), wk =   1.0000000

     Dense  grid:   493003 G-vectors     FFT dimensions: ( 125, 120, 135)

     Estimated max dynamical RAM per process >     133.03 MB

     Estimated total dynamical RAM >       5.46 GB

     Check: negative core charge=   -0.000002
     Generating pointlists ...
     new r_m :   0.1114 (alat units)  1.9662 (a.u.) for type    1
     new r_m :   0.1098 (alat units)  1.9374 (a.u.) for type    2
     new r_m :   0.0884 (alat units)  1.5598 (a.u.) for type    3
     new r_m :   0.0561 (alat units)  0.9903 (a.u.) for type    4
     new r_m :   0.0561 (alat units)  0.9903 (a.u.) for type    5

     Initial potential from superposition of free atoms

     starting charge     266.9726, renormalised to     277.0000

     negative rho (up, down):  9.212E-01 9.212E-01
     Starting wfcs are  287 randomized atomic wfcs

     total cpu time spent up to now is       12.8 secs

     Self-consistent Calculation

     iteration #  1     ecut=   120.00 Ry     beta= 0.70
     Davidson diagonalization with overlap
     ethr =  1.00E-02,  avg # of iterations =  2.0

     negative rho (up, down):  9.973E-01 9.968E-01

     total cpu time spent up to now is       32.5 secs

     total energy              =   -2930.28287611 Ry
     estimated scf accuracy    <     275.82938036 Ry

     total magnetization       =    -0.00 Bohr mag/cell
     absolute magnetization    =     0.09 Bohr mag/cell

     iteration #  2     ecut=   120.00 Ry     beta= 0.70
     Davidson diagonalization with overlap
     ethr =  1.00E-02,  avg # of iterations =  5.0

     negative rho (up, down):  9.671E-01 9.677E-01

     total cpu time spent up to now is       69.9 secs

     total energy              =   -2942.07583060 Ry
     estimated scf accuracy    <      29.32994254 Ry

     total magnetization       =    -0.13 Bohr mag/cell
     absolute magnetization    =     0.37 Bohr mag/cell

     iteration #  3     ecut=   120.00 Ry     beta= 0.70
     Davidson diagonalization with overlap
     ethr =  1.00E-02,  avg # of iterations =  2.0

     negative rho (up, down):  9.988E-01 1.002E+00

     total cpu time spent up to now is      109.2 secs

     total energy              =   -2942.44432597 Ry
     estimated scf accuracy    <      13.01576044 Ry

     total magnetization       =    -0.11 Bohr mag/cell
     absolute magnetization    =     0.48 Bohr mag/cell

     iteration #  4     ecut=   120.00 Ry     beta= 0.70
     Davidson diagonalization with overlap
     ethr =  4.70E-03,  avg # of iterations =  3.5

     negative rho (up, down):  1.002E+00 1.010E+00

     total cpu time spent up to now is      133.7 secs

     total energy              =   -2942.66178104 Ry
     estimated scf accuracy    <       3.36262972 Ry

     total magnetization       =    -0.25 Bohr mag/cell
     absolute magnetization    =     0.70 Bohr mag/cell

     iteration #  5     ecut=   120.00 Ry     beta= 0.70
     Davidson diagonalization with overlap
     ethr =  1.21E-03,  avg # of iterations =  8.5

     negative rho (up, down):  9.780E-01 9.824E-01

     total cpu time spent up to now is      154.8 secs

     total energy              =   -2942.79459091 Ry
     estimated scf accuracy    <       1.44058029 Ry

     total magnetization       =    -0.11 Bohr mag/cell
     absolute magnetization    =     0.45 Bohr mag/cell

     iteration #  6     ecut=   120.00 Ry     beta= 0.70
     Davidson diagonalization with overlap
     ethr =  5.20E-04,  avg # of iterations =  3.5

     negative rho (up, down):  9.675E-01 9.705E-01

     total cpu time spent up to now is      173.0 secs

     total energy              =   -2942.83382128 Ry
     estimated scf accuracy    <       1.12183491 Ry

     total magnetization       =    -0.04 Bohr mag/cell
     absolute magnetization    =     0.29 Bohr mag/cell

     iteration #  7     ecut=   120.00 Ry     beta= 0.70
     Davidson diagonalization with overlap
     ethr =  4.05E-04,  avg # of iterations =  2.0

     negative rho (up, down):  9.384E-01 9.393E-01

     total cpu time spent up to now is      190.3 secs

     total energy              =   -2942.78458807 Ry
     estimated scf accuracy    <       0.35988530 Ry

     total magnetization       =    -0.03 Bohr mag/cell
     absolute magnetization    =     0.28 Bohr mag/cell

     iteration #  8     ecut=   120.00 Ry     beta= 0.70
     Davidson diagonalization with overlap
     ethr =  1.30E-04,  avg # of iterations = 10.0

     negative rho (up, down):  9.184E-01 9.183E-01

     total cpu time spent up to now is      223.0 secs

     total energy              =   -2942.78370638 Ry
     estimated scf accuracy    <       0.31935096 Ry

     total magnetization       =    -0.03 Bohr mag/cell
     absolute magnetization    =     0.24 Bohr mag/cell

     iteration #  9     ecut=   120.00 Ry     beta= 0.70
     Davidson diagonalization with overlap
     ethr =  1.15E-04,  avg # of iterations =  2.0

     negative rho (up, down):  9.073E-01 9.071E-01

     total cpu time spent up to now is      259.5 secs

     total energy              =   -2942.78800566 Ry
     estimated scf accuracy    <       0.06477975 Ry

     total magnetization       =     0.01 Bohr mag/cell
     absolute magnetization    =     0.17 Bohr mag/cell

     iteration # 10     ecut=   120.00 Ry     beta= 0.70
     Davidson diagonalization with overlap
     ethr =  2.34E-05,  avg # of iterations = 13.5

     negative rho (up, down):  9.076E-01 9.076E-01

     total cpu time spent up to now is      293.4 secs

     total energy              =   -2942.79261938 Ry
     estimated scf accuracy    <       0.03324113 Ry

     total magnetization       =     0.03 Bohr mag/cell
     absolute magnetization    =     0.13 Bohr mag/cell

     iteration # 11     ecut=   120.00 Ry     beta= 0.70
     Davidson diagonalization with overlap
     ethr =  1.20E-05,  avg # of iterations =  3.0

     negative rho (up, down):  9.085E-01 9.085E-01

     total cpu time spent up to now is      312.1 secs

     total energy              =   -2942.79599512 Ry
     estimated scf accuracy    <       0.01091840 Ry

     total magnetization       =     0.04 Bohr mag/cell
     absolute magnetization    =     0.10 Bohr mag/cell

     iteration # 12     ecut=   120.00 Ry     beta= 0.70
     Davidson diagonalization with overlap
     ethr =  3.94E-06,  avg # of iterations =  6.5

     negative rho (up, down):  9.086E-01 9.086E-01

     total cpu time spent up to now is      332.2 secs

     total energy              =   -2942.79898665 Ry
     estimated scf accuracy    <       0.00183255 Ry

     total magnetization       =     0.03 Bohr mag/cell
     absolute magnetization    =     0.08 Bohr mag/cell

     iteration # 13     ecut=   120.00 Ry     beta= 0.70
     Davidson diagonalization with overlap
     ethr =  6.62E-07,  avg # of iterations = 15.5

     negative rho (up, down):  9.083E-01 9.083E-01

     Magnetic moment per site  (integrated on atomic sphere of radius R)
     atom   1 (R=0.111)  charge=  9.4396   -0.0003
     atom   2 (R=0.111)  charge=  9.0373    0.0004
     atom   3 (R=0.111)  charge=  9.0372    0.0002
     atom   4 (R=0.111)  charge=  9.0410    0.0004
     atom   5 (R=0.111)  charge=  9.0399    0.0003
     atom   6 (R=0.110)  charge= 10.3427    0.0003
     atom   7 (R=0.110)  charge= 10.3498   -0.0000
     atom   8 (R=0.088)  charge=  8.1300    0.0001
     atom   9 (R=0.088)  charge=  8.1262    0.0003
     atom  10 (R=0.088)  charge=  8.1097    0.0012
     atom  11 (R=0.088)  charge=  8.1065    0.0014
     atom  12 (R=0.088)  charge=  8.1109    0.0015
     atom  13 (R=0.088)  charge=  8.1100    0.0006
     atom  14 (R=0.088)  charge=  8.1092    0.0007
     atom  15 (R=0.088)  charge=  8.1087   -0.0005
     atom  16 (R=0.088)  charge=  8.1114   -0.0002
     atom  17 (R=0.088)  charge=  8.1110    0.0007
     atom  18 (R=0.056)  charge=  2.8340   -0.0000
     atom  19 (R=0.056)  charge=  2.8140   -0.0001
     atom  20 (R=0.056)  charge=  2.8124    0.0002
     atom  21 (R=0.056)  charge=  2.8143   -0.0003
     atom  22 (R=0.056)  charge=  2.8289   -0.0000
     atom  23 (R=0.056)  charge=  0.8506    0.0000

     total cpu time spent up to now is      355.1 secs

     End of self-consistent calculation

 ------ SPIN UP ------------


          k = 0.0000 0.0000 0.0000 ( 61588 PWs)   bands (ev):

   -60.7745 -60.7729 -60.7286 -60.7275 -60.6978 -60.6916 -60.6540 -60.6456
   -60.6047 -60.5311 -54.3888 -54.3431 -54.2636 -54.2182 -52.7252 -46.2709
   -46.2328 -41.6273 -41.5895 -41.5173 -41.1063 -39.7618 -27.7762 -27.7689
   -27.6884 -27.6812 -27.5962 -27.5825 -27.4699 -27.4598 -27.4493 -27.3354
   -27.3173 -27.2673 -27.2588 -27.2555 -27.2226 -27.2073 -27.1827 -27.1753
   -27.1561 -27.1341 -27.0867 -27.0783 -26.9536 -26.9475 -26.9401 -26.9313
   -26.8805 -26.8769 -26.8542 -26.8441 -24.1713 -23.9625 -23.6589 -23.5785
   -23.3167 -23.1850 -23.1598 -23.0632 -22.9339 -22.8648 -22.8475 -22.6303
   -22.5021 -22.4420 -22.3867 -22.3505 -22.2675 -22.2271 -21.7593 -21.7188
   -21.6445 -20.1897 -20.1044 -19.8411 -19.7959 -19.6788 -19.5995 -19.5811
   -19.5499 -19.5394 -19.3678 -19.0585 -18.9498 -18.1144 -17.9106 -17.7793
     1.3210   2.1045   2.9501   3.1512   3.3163   3.4302   3.4913   3.5897
     3.6942   3.7453   3.9359   4.0066   4.2726   4.4262   4.5707   4.7116
     4.7414   4.9714   5.0024   5.0716   5.1609   5.2821   5.2954   5.3163
     5.3901   5.5636   5.5755   5.7126   5.7410   5.7465   5.8002   5.9135
     5.9440   6.0578   6.1457   6.2272   6.2892   6.3541   6.3718   6.3988
     6.4715   6.6451   6.6520   6.6755   6.8469   6.9831   7.0386   7.0741
     7.1208   7.1433   7.2431   7.3214   7.3510   7.4360   7.5120   7.6105
     7.6571   7.7685   7.8890   7.9922   8.0579   8.1066   8.1228   8.1410
     8.2634   8.2818   8.3147   8.3705   8.5093   8.5287   8.5988   8.7736
     8.8297   8.9186   9.0178   9.0675   9.2091   9.2740   9.2800

 ------ SPIN DOWN ----------


          k = 0.0000 0.0000 0.0000 ( 61588 PWs)   bands (ev):

   -60.7738 -60.7721 -60.7279 -60.7265 -60.6972 -60.6909 -60.6531 -60.6454
   -60.6042 -60.5309 -54.3884 -54.3427 -54.2631 -54.2178 -52.7255 -46.2707
   -46.2321 -41.6293 -41.5884 -41.5198 -41.1063 -39.7617 -27.7751 -27.7678
   -27.6871 -27.6801 -27.5952 -27.5813 -27.4691 -27.4588 -27.4486 -27.3345
   -27.3164 -27.2665 -27.2583 -27.2545 -27.2219 -27.2071 -27.1820 -27.1747
   -27.1554 -27.1339 -27.0862 -27.0780 -26.9522 -26.9467 -26.9392 -26.9302
   -26.8794 -26.8756 -26.8529 -26.8434 -24.1707 -23.9619 -23.6584 -23.5780
   -23.3161 -23.1843 -23.1593 -23.0626 -22.9334 -22.8645 -22.8470 -22.6298
   -22.5018 -22.4415 -22.3863 -22.3501 -22.2669 -22.2266 -21.7596 -21.7190
   -21.6448 -20.1917 -20.1041 -19.8435 -19.7988 -19.6779 -19.6009 -19.5802
   -19.5526 -19.5385 -19.3707 -19.0589 -18.9496 -18.1143 -17.9108 -17.7794
     1.3216   2.1050   2.9511   3.1518   3.3172   3.4308   3.4927   3.5898
     3.6946   3.7462   3.9369   4.0068   4.2734   4.4269   4.5711   4.7129
     4.7419   4.9716   5.0036   5.0726   5.1611   5.2830   5.2965   5.3164
     5.3914   5.5641   5.5756   5.7128   5.7419   5.7464   5.8003   5.9133
     5.9442   6.0588   6.1469   6.2275   6.2898   6.3554   6.3723   6.3992
     6.4726   6.6454   6.6528   6.6761   6.8479   6.9839   7.0405   7.0756
     7.1233   7.1454   7.2459   7.3227   7.3524   7.4392   7.5110   7.6116
     7.6588   7.7701   7.8904   7.9931   8.0592   8.1079   8.1236   8.1417
     8.2655   8.2830   8.3154   8.3720   8.5103   8.5289   8.5996   8.7738
     8.8305   8.9208   9.0182   9.0698   9.2096   9.2757   9.2806

     the Fermi energy is     7.2512 ev

!    total energy              =   -2942.80000887 Ry
     estimated scf accuracy    <       0.00080845 Ry
     smearing contrib. (-TS)   =      -0.10104797 Ry
     internal energy E=F+TS    =   -2942.69896090 Ry

     total magnetization       =     0.03 Bohr mag/cell
     absolute magnetization    =     0.06 Bohr mag/cell

     convergence has been achieved in  13 iterations

     negative rho (up, down):  9.083E-01 9.083E-01

     Forces acting on atoms (cartesian axes, Ry/au):

     atom    1 type  1   force =    -0.01226759   -0.03012670    0.00563232
     atom    2 type  1   force =    -0.11422253   -0.01314631   -0.00517703
     atom    3 type  1   force =    -0.11214598    0.00875681    0.00148953
     atom    4 type  1   force =     0.11560483   -0.02228208   -0.00770620
     atom    5 type  1   force =     0.11650059    0.01879409   -0.00174550
     atom    6 type  2   force =    -0.00036504   -0.01063215    0.01020357
     atom    7 type  2   force =    -0.01299947    0.02364517   -0.00722741
     atom    8 type  3   force =    -0.10730722    0.00290108   -0.00691071
     atom    9 type  3   force =     0.12035384    0.00225046    0.02066743
     atom   10 type  3   force =    -0.02601964   -0.03210865   -0.06104553
     atom   11 type  3   force =    -0.01837560   -0.03738626    0.05929698
     atom   12 type  3   force =    -0.01991022    0.03717626   -0.05602745
     atom   13 type  3   force =    -0.01886633    0.03097986    0.06318597
     atom   14 type  3   force =     0.02313089   -0.03107268   -0.05768506
     atom   15 type  3   force =     0.01383347   -0.04237837    0.05644715
     atom   16 type  3   force =     0.01813089    0.03669312   -0.05167165
     atom   17 type  3   force =     0.01243137    0.03544860    0.05985407
     atom   18 type  4   force =    -0.00653916    0.01919548   -0.01471459
     atom   19 type  4   force =    -0.12896685   -0.00439462   -0.11389827
     atom   20 type  4   force =    -0.12790199    0.00693319    0.12111150
     atom   21 type  4   force =     0.13191290   -0.00569231   -0.11138463
     atom   22 type  4   force =    -0.15905562    0.01688859    0.70180926
     atom   23 type  5   force =     0.31304445   -0.01044257   -0.60450375
     The non-local contrib.  to forces
     atom    1 type  1   force =     0.00937846   -0.00694790    0.02970878
     atom    2 type  1   force =    -0.24513674   -0.16352659    0.01629200
     atom    3 type  1   force =    -0.23767628    0.15696468   -0.02501863
     atom    4 type  1   force =     0.25124985   -0.16623121    0.02419107
     atom    5 type  1   force =     0.24485646    0.15865177   -0.01717950
     atom    6 type  2   force =     0.00804294   -0.04014946   -0.06232239
     atom    7 type  2   force =    -0.00050598    0.06905015    0.04703158
     atom    8 type  3   force =    -0.26544592    0.00052578   -0.00137339
     atom    9 type  3   force =     0.27205142   -0.00358829    0.06127233
     atom   10 type  3   force =    -0.21229776    0.00645816   -0.20529346
     atom   11 type  3   force =    -0.22191274    0.00569815    0.19717603
     atom   12 type  3   force =    -0.20158716   -0.02132590   -0.17567657
     atom   13 type  3   force =    -0.21211384   -0.00225811    0.20822539
     atom   14 type  3   force =     0.21792479    0.00969797   -0.21040484
     atom   15 type  3   force =     0.22732624    0.01275326    0.19065522
     atom   16 type  3   force =     0.20679489   -0.02526980   -0.17924824
     atom   17 type  3   force =     0.21332546   -0.00874545    0.19902224
     atom   18 type  4   force =     0.01211620    0.04590805   -0.06488174
     atom   19 type  4   force =     0.05939103    0.00946264    0.07843244
     atom   20 type  4   force =     0.03990182   -0.01300088   -0.07334904
     atom   21 type  4   force =    -0.06246920    0.00611393    0.07321061
     atom   22 type  4   force =    -0.02712706   -0.00898858   -0.01981645
     atom   23 type  5   force =    -0.06021157   -0.00016548    0.09854813
     The ionic contribution  to forces
     atom    1 type  1   force =    -0.76189694   -5.13657067   13.78782357
     atom    2 type  1   force =   -39.75841980   -6.19442754    0.67435657
     atom    3 type  1   force =   -39.73211697    6.18209284   -0.82028478
     atom    4 type  1   force =    39.58492577   -6.37876498    0.52717419
     atom    5 type  1   force =    39.55588184    6.37060984   -0.96825446
     atom    6 type  2   force =    -0.14198215   -3.62262129  -14.06499927
     atom    7 type  2   force =    -0.81564277    4.17790055   13.71388255
     atom    8 type  3   force =   -52.32745109    0.07190498   -0.27958188
     atom    9 type  3   force =    51.61963359    0.07261664   -1.76763369
     atom   10 type  3   force =   -36.08549906   -2.11470688  -23.02529483
     atom   11 type  3   force =   -35.25766494   -0.94958857   22.10460163
     atom   12 type  3   force =   -35.26954251    0.81709644  -22.07817854
     atom   13 type  3   force =   -36.15847982    2.28403909   23.08276460
     atom   14 type  3   force =    36.01189707   -2.14120477  -23.03190172
     atom   15 type  3   force =    34.99330674   -1.27450929   22.24437109
     atom   16 type  3   force =    35.19632609    0.84344585  -22.08412795
     atom   17 type  3   force =    35.89117300    2.61165499   23.22253167
     atom   18 type  4   force =    -0.13259078    4.42670995  -14.01657548
     atom   19 type  4   force =   -35.93987985    0.95667894  -25.47757667
     atom   20 type  4   force =   -36.19630152   -0.95172256   25.61111324
     atom   21 type  4   force =    35.84260214    0.95619693  -25.48647483
     atom   22 type  4   force =    34.08012045   -0.90781220   29.17846975
     atom   23 type  5   force =     5.80160150   -0.09901828   -1.04620476
     The local contribution  to forces
     atom    1 type  1   force =     0.74340561    5.10876275  -13.81651890
     atom    2 type  1   force =    39.90581893    6.34359925   -0.70479872
     atom    3 type  1   force =    39.87409408   -6.33233352    0.84077271
     atom    4 type  1   force =   -39.73654725    6.52324499   -0.56745706
     atom    5 type  1   force =   -39.70040401   -6.51218817    0.97781066
     atom    6 type  2   force =     0.13709512    3.66885829   14.10392262
     atom    7 type  2   force =     0.80630830   -4.21530935  -13.76900849
     atom    8 type  3   force =    52.51180060   -0.06817607    0.25265877
     atom    9 type  3   force =   -51.79247219   -0.06611445    1.70963929
     atom   10 type  3   force =    36.29070547    2.07731352   23.17606993
     atom   11 type  3   force =    35.48679117    0.89104865  -22.25146218
     atom   12 type  3   force =    35.47267552   -0.76152338   22.20371990
     atom   13 type  3   force =    36.37441365   -2.24175407  -23.23602991
     atom   14 type  3   force =   -36.22503942    2.10128343   23.19282228
     atom   15 type  3   force =   -35.23140616    1.20393771  -22.38841339
     atom   16 type  3   force =   -35.40538002   -0.78481358   22.21896760
     atom   17 type  3   force =   -36.11376005   -2.55737559  -23.37058556
     atom   18 type  4   force =     0.11706583   -4.46420023   14.03365407
     atom   19 type  4   force =    35.76743947   -0.96915416   25.29130015
     atom   20 type  4   force =    36.03024916    0.97460018  -25.41525831
     atom   21 type  4   force =   -35.66295768   -0.96675388   25.30728818
     atom   22 type  4   force =   -34.20942218    0.93582875  -28.45658038
     atom   23 type  5   force =    -5.42753476    0.08880571    0.34199766
     The core correction contribution to forces
     atom    1 type  1   force =     0.00098207    0.00322263    0.00043969
     atom    2 type  1   force =    -0.01184428   -0.00183441    0.00086715
     atom    3 type  1   force =    -0.01201127    0.00270409   -0.00124565
     atom    4 type  1   force =     0.01370320   -0.00309778    0.00081782
     atom    5 type  1   force =     0.01377790    0.00316440   -0.00138237
     atom    6 type  2   force =    -0.00053277    0.00179615    0.00241227
     atom    7 type  2   force =     0.00028821   -0.00346206   -0.00163758
     atom    8 type  3   force =    -0.03298685    0.00035601   -0.00077990
     atom    9 type  3   force =     0.03043521   -0.00000527   -0.00236723
     atom   10 type  3   force =    -0.02159535    0.00843876   -0.01544922
     atom   11 type  3   force =    -0.02382154    0.01026872    0.01701314
     atom   12 type  3   force =    -0.02144651   -0.00893902   -0.01490588
     atom   13 type  3   force =    -0.02200008   -0.00965098    0.01659326
     atom   14 type  3   force =     0.02198395    0.00825649   -0.01611483
     atom   15 type  3   force =     0.02519136    0.01153623    0.01629283
     atom   16 type  3   force =     0.02168945   -0.00852818   -0.01536898
     atom   17 type  3   force =     0.02294543   -0.01067758    0.01625305
     atom   18 type  4   force =    -0.00081795   -0.00244576    0.00282984
     atom   19 type  4   force =    -0.00953335    0.00001872   -0.00995454
     atom   20 type  4   force =    -0.00838444    0.00034989    0.00978211
     atom   21 type  4   force =     0.00982426    0.00018212   -0.01002105
     atom   22 type  4   force =     0.00507029    0.00020127    0.01137420
     atom   23 type  5   force =     0.00000000    0.00000000    0.00000000
     The Hubbard contrib.    to forces
     atom    1 type  1   force =     0.00000000    0.00000000    0.00000000
     atom    2 type  1   force =     0.00000000    0.00000000    0.00000000
     atom    3 type  1   force =     0.00000000    0.00000000    0.00000000
     atom    4 type  1   force =     0.00000000    0.00000000    0.00000000
     atom    5 type  1   force =     0.00000000    0.00000000    0.00000000
     atom    6 type  2   force =     0.00000000    0.00000000    0.00000000
     atom    7 type  2   force =     0.00000000    0.00000000    0.00000000
     atom    8 type  3   force =     0.00000000    0.00000000    0.00000000
     atom    9 type  3   force =     0.00000000    0.00000000    0.00000000
     atom   10 type  3   force =     0.00000000    0.00000000    0.00000000
     atom   11 type  3   force =     0.00000000    0.00000000    0.00000000
     atom   12 type  3   force =     0.00000000    0.00000000    0.00000000
     atom   13 type  3   force =     0.00000000    0.00000000    0.00000000
     atom   14 type  3   force =     0.00000000    0.00000000    0.00000000
     atom   15 type  3   force =     0.00000000    0.00000000    0.00000000
     atom   16 type  3   force =     0.00000000    0.00000000    0.00000000
     atom   17 type  3   force =     0.00000000    0.00000000    0.00000000
     atom   18 type  4   force =     0.00000000    0.00000000    0.00000000
     atom   19 type  4   force =     0.00000000    0.00000000    0.00000000
     atom   20 type  4   force =     0.00000000    0.00000000    0.00000000
     atom   21 type  4   force =     0.00000000    0.00000000    0.00000000
     atom   22 type  4   force =     0.00000000    0.00000000    0.00000000
     atom   23 type  5   force =     0.00000000    0.00000000    0.00000000
     The SCF correction term to forces
     atom    1 type  1   force =    -0.00389319    0.00127018    0.00320929
     atom    2 type  1   force =    -0.00439704    0.00290667    0.00713608
     atom    3 type  1   force =    -0.00419196   -0.00080759    0.00629599
     atom    4 type  1   force =     0.00251687    0.00243059    0.00659788
     atom    5 type  1   force =     0.00263199   -0.00158006    0.00629028
     atom    6 type  2   force =    -0.00274458   -0.01865214    0.03022045
     atom    7 type  2   force =    -0.00320362   -0.00467043    0.00153464
     atom    8 type  3   force =     0.00701964   -0.00184593    0.02119579
     atom    9 type  3   force =    -0.00905059   -0.00079447    0.01878684
     atom   10 type  3   force =     0.00291066   -0.00974853    0.00795216
     atom   11 type  3   force =    -0.00152396    0.00505048   -0.00900153
     atom   12 type  3   force =     0.00023403    0.01173181    0.00804373
     atom   13 type  3   force =    -0.00044265    0.00046762   -0.00933726
     atom   14 type  3   force =    -0.00339191   -0.00924210    0.00694418
     atom   15 type  3   force =    -0.00034112    0.00376741   -0.00742850
     atom   16 type  3   force =    -0.00105593    0.01172251    0.00713603
     atom   17 type  3   force =    -0.00100886    0.00045591   -0.00833722
     atom   18 type  4   force =    -0.00206887    0.01308717    0.02928883
     atom   19 type  4   force =    -0.00614055   -0.00153706    0.00293047
     atom   20 type  4   force =     0.00687658   -0.00342974   -0.01214638
     atom   21 type  4   force =     0.00515697   -0.00156771    0.00364258
     atom   22 type  4   force =    -0.00745352   -0.00247695   -0.01260776
     atom   23 type  5   force =    -0.00056713   -0.00020083    0.00018533

     Total force =     1.093342     Total SCF correction =     0.071424


     Computing stress (Cartesian axis) and pressure


     negative rho (up, down):  9.083E-01 9.083E-01
          total   stress  (Ry/bohr**3)                   (kbar)     P=       99.73
   0.00071065  -0.00000287  -0.00011352          104.54       -0.42      -16.70
  -0.00000287   0.00069181  -0.00000857           -0.42      101.77       -1.26
  -0.00011352  -0.00000857   0.00063139          -16.70       -1.26       92.88


     Molecular Dynamics Calculation

     Starting temperature  =   300.00 K

     temperature is set once at start

     mass Hf               =   178.49
     mass Nb               =    92.91
     mass Ta               =   180.95
     mass Zr               =    91.22
     mass H                =     2.01
     Time step             =     4.20 a.u.,  0.2032 femto-seconds

     Entering Dynamics:    iteration =     1
                           time      =   0.0002 pico-seconds


ATOMIC_POSITIONS (angstrom)
Hf            2.6700226157        2.8271221649        6.6040502420
Hf            1.2530104138        1.2862838042        5.0585519393
Hf            1.2555066918        7.3898045460        5.0881536719
Hf            4.0870355611        1.2862835421        5.0585518668
Hf            4.0845393684        7.3898048340        5.0881535791
Nb            2.6700229475        2.7969300195        3.5156696409
Nb            2.6700222511        5.8763799796        6.6350834066
Ta            1.2093930298        4.3409279337        5.0712114985
Ta            4.1306532746        4.3409279153        5.0712122790
Ta            1.3072749584        1.3141216807        2.0588632443
Ta            1.3028108048        1.3083900780        8.0946667423
Ta            1.3040320693        7.3758271762        2.0463214560
Ta            1.3077332751        7.3650838251        8.0860898707
Ta            4.0327708951        1.3141217100        2.0588633394
Ta            4.0372350019        1.3083899367        8.0946666616
Ta            4.0360138156        7.3758271625        2.0463215793
Ta            4.0323124780        7.3650839516        8.0860897764
Zr            2.6700226006        5.8662869209        3.5274689662
Zr            1.2438503901        4.3220777178        2.0000794681
Zr            1.2404012436        4.3541236737        8.1498482096
Zr            4.0961957105        4.3220776450        2.0000796092
Zr            4.0996285834        4.3541242325        8.1498808068
H             4.6108561478        4.3399733988        6.8599373982


     kinetic energy (Ekin) =           4.04967501 Ry
     temperature           =       19375.54887284 K 
     Ekin + Etot (const)   =       -2938.75033386 Ry
     Ions kinetic stress =           71.52 (kbar)
                                     14.38           0.00          53.65
                                      0.00           0.00           0.00
                                     53.65           0.00         200.19



     Linear momentum :    0.0000000000    0.0000000000   -0.0000000000

     File outdir/pwscf.msd.dat deleted, as requested

     Writing config-only to output data dir outdir/pwscf.save/
     NEW-OLD atomic charge density approx. for the potential

     Check: negative core charge=   -0.000002

     negative rho (up, down):  9.084E-01 9.084E-01
     Generating pointlists ...
     new r_m :   0.1093 (alat units)  1.9286 (a.u.) for type    1
     new r_m :   0.0818 (alat units)  1.4437 (a.u.) for type    3

     total cpu time spent up to now is      403.1 secs

     Self-consistent Calculation

     iteration #  1     ecut=   120.00 Ry     beta= 0.70
     Davidson diagonalization with overlap
     c_bands:  1 eigenvalues not converged
     ethr =  1.00E-06,  avg # of iterations = 14.0

     negative rho (up, down):  9.085E-01 9.085E-01

     total cpu time spent up to now is      460.8 secs

     total energy              =   -2942.90269072 Ry
     estimated scf accuracy    <       0.11534000 Ry

     total magnetization       =     0.03 Bohr mag/cell
     absolute magnetization    =     0.04 Bohr mag/cell

     iteration #  2     ecut=   120.00 Ry     beta= 0.70
     Davidson diagonalization with overlap
     ethr =  4.16E-05,  avg # of iterations =  3.0

     negative rho (up, down):  9.085E-01 9.085E-01

     total cpu time spent up to now is      479.1 secs

     total energy              =   -2942.91343898 Ry
     estimated scf accuracy    <       0.03765690 Ry

     total magnetization       =     0.02 Bohr mag/cell
     absolute magnetization    =     0.04 Bohr mag/cell

     iteration #  3     ecut=   120.00 Ry     beta= 0.70
     Davidson diagonalization with overlap
     ethr =  1.36E-05,  avg # of iterations =  1.0

     negative rho (up, down):  9.085E-01 9.085E-01

     total cpu time spent up to now is      495.0 secs

     total energy              =   -2942.91579102 Ry
     estimated scf accuracy    <       0.00417103 Ry

     total magnetization       =     0.02 Bohr mag/cell
     absolute magnetization    =     0.04 Bohr mag/cell

     iteration #  4     ecut=   120.00 Ry     beta= 0.70
     Davidson diagonalization with overlap
     ethr =  1.51E-06,  avg # of iterations =  2.0

     negative rho (up, down):  9.086E-01 9.086E-01

     Magnetic moment per site  (integrated on atomic sphere of radius R)
     atom   1 (R=0.109)  charge=  9.2852   -0.0001
     atom   2 (R=0.109)  charge=  8.9131    0.0001
     atom   3 (R=0.109)  charge=  8.9130    0.0000
     atom   4 (R=0.109)  charge=  8.9165    0.0000
     atom   5 (R=0.109)  charge=  8.9162    0.0001
     atom   6 (R=0.110)  charge= 10.3460    0.0001
     atom   7 (R=0.110)  charge= 10.3495   -0.0000
     atom   8 (R=0.082)  charge=  7.4359   -0.0000
     atom   9 (R=0.082)  charge=  7.4381    0.0002
     atom  10 (R=0.082)  charge=  7.4186    0.0007
     atom  11 (R=0.082)  charge=  7.4181    0.0008
     atom  12 (R=0.082)  charge=  7.4188    0.0010
     atom  13 (R=0.082)  charge=  7.4192    0.0005
     atom  14 (R=0.082)  charge=  7.4183    0.0003
     atom  15 (R=0.082)  charge=  7.4188   -0.0001
     atom  16 (R=0.082)  charge=  7.4187   -0.0000
     atom  17 (R=0.082)  charge=  7.4190    0.0003
     atom  18 (R=0.056)  charge=  2.8345    0.0000
     atom  19 (R=0.056)  charge=  2.8122    0.0000
     atom  20 (R=0.056)  charge=  2.8127    0.0002
     atom  21 (R=0.056)  charge=  2.8125   -0.0001
     atom  22 (R=0.056)  charge=  2.8253   -0.0000
     atom  23 (R=0.056)  charge=  0.7629    0.0000

     total cpu time spent up to now is      512.7 secs

     End of self-consistent calculation

 ------ SPIN UP ------------


          k = 0.0000 0.0000 0.0000 ( 61588 PWs)   bands (ev):

   -60.7551 -60.7530 -60.7092 -60.7072 -60.6763 -60.6754 -60.6323 -60.6297
   -60.5597 -60.5210 -54.3646 -54.3190 -54.2388 -54.1934 -52.7154 -46.2634
   -46.2318 -41.5890 -41.5698 -41.4699 -41.1570 -39.7645 -27.7581 -27.7506
   -27.6680 -27.6652 -27.5760 -27.5630 -27.4487 -27.4377 -27.4294 -27.3194
   -27.2989 -27.2502 -27.2385 -27.2354 -27.2046 -27.1882 -27.1638 -27.1574
   -27.1373 -27.1169 -27.0782 -27.0570 -26.9331 -26.9294 -26.9245 -26.9111
   -26.8653 -26.8554 -26.8331 -26.8278 -24.1495 -23.9390 -23.6419 -23.5578
   -23.2974 -23.1680 -23.1427 -23.0468 -22.9140 -22.8444 -22.8262 -22.6081
   -22.4957 -22.4385 -22.3767 -22.3434 -22.2532 -22.2161 -21.7465 -21.7158
   -21.6368 -20.1524 -19.9039 -19.8062 -19.7501 -19.6258 -19.5698 -19.5624
   -19.5191 -19.4994 -19.3235 -19.1756 -19.0475 -18.1168 -17.9072 -17.7733
     1.0541   1.8898   2.9639   3.1653   3.3219   3.4383   3.4998   3.5936
     3.7037   3.7584   3.9486   4.0099   4.2703   4.4468   4.5898   4.7210
     4.7609   5.0069   5.0418   5.0849   5.1935   5.2915   5.3057   5.3275
     5.4070   5.5738   5.5870   5.7152   5.7566   5.7622   5.8079   5.9275
     5.9546   6.0699   6.1604   6.2375   6.3006   6.3714   6.3858   6.4047
     6.4993   6.6487   6.6665   6.6896   6.8661   7.0032   7.0537   7.0932
     7.1420   7.1583   7.2536   7.3326   7.3895   7.4490   7.5361   7.6181
     7.6709   7.7653   7.9046   7.9987   8.0661   8.1223   8.1431   8.1517
     8.2742   8.2982   8.3282   8.3833   8.5226   8.5457   8.6068   8.7868
     8.8485   8.9321   9.0167   9.0781   9.2160   9.2911   9.3009

 ------ SPIN DOWN ----------


          k = 0.0000 0.0000 0.0000 ( 61588 PWs)   bands (ev):

   -60.7546 -60.7524 -60.7088 -60.7064 -60.6758 -60.6749 -60.6316 -60.6294
   -60.5595 -60.5210 -54.3646 -54.3189 -54.2388 -54.1934 -52.7155 -46.2634
   -46.2317 -41.5893 -41.5688 -41.4707 -41.1570 -39.7645 -27.7574 -27.7497
   -27.6668 -27.6644 -27.5753 -27.5621 -27.4481 -27.4370 -27.4289 -27.3188
   -27.2984 -27.2497 -27.2379 -27.2348 -27.2041 -27.1880 -27.1634 -27.1571
   -27.1366 -27.1166 -27.0780 -27.0569 -26.9321 -26.9287 -26.9239 -26.9101
   -26.8645 -26.8543 -26.8322 -26.8272 -24.1494 -23.9389 -23.6418 -23.5578
   -23.2973 -23.1679 -23.1426 -23.0467 -22.9139 -22.8443 -22.8261 -22.6080
   -22.4957 -22.4384 -22.3766 -22.3434 -22.2531 -22.2161 -21.7465 -21.7159
   -21.6369 -20.1530 -19.9033 -19.8067 -19.7510 -19.6252 -19.5694 -19.5617
   -19.5183 -19.5004 -19.3245 -19.1758 -19.0474 -18.1167 -17.9072 -17.7733
     1.0544   1.8903   2.9649   3.1656   3.3222   3.4387   3.5010   3.5939
     3.7039   3.7589   3.9497   4.0101   4.2707   4.4474   4.5903   4.7219
     4.7613   5.0075   5.0420   5.0858   5.1939   5.2924   5.3063   5.3278
     5.4079   5.5741   5.5873   5.7154   5.7573   5.7625   5.8083   5.9274
     5.9548   6.0706   6.1614   6.2379   6.3010   6.3722   6.3863   6.4050
     6.5001   6.6492   6.6670   6.6903   6.8669   7.0040   7.0558   7.0951
     7.1435   7.1594   7.2561   7.3334   7.3908   7.4520   7.5359   7.6190
     7.6721   7.7665   7.9054   7.9995   8.0671   8.1238   8.1439   8.1523
     8.2764   8.2992   8.3287   8.3849   8.5233   8.5462   8.6074   8.7875
     8.8496   8.9341   9.0176   9.0795   9.2165   9.2927   9.3014

     the Fermi energy is     7.2689 ev

!    total energy              =   -2942.91565681 Ry
     estimated scf accuracy    <       0.00052440 Ry
     smearing contrib. (-TS)   =      -0.10104698 Ry
     internal energy E=F+TS    =   -2942.81460983 Ry

     total magnetization       =     0.02 Bohr mag/cell
     absolute magnetization    =     0.04 Bohr mag/cell

     convergence has been achieved in   4 iterations

     negative rho (up, down):  9.086E-01 9.086E-01

     Forces acting on atoms (cartesian axes, Ry/au):

     atom    1 type  1   force =    -0.01313435   -0.03093479    0.00982351
     atom    2 type  1   force =    -0.11796281   -0.01331352    0.00137272
     atom    3 type  1   force =    -0.11560838    0.00956736    0.00722603
     atom    4 type  1   force =     0.11841716   -0.02145251   -0.00344036
     atom    5 type  1   force =     0.11925432    0.01800844    0.00170215
     atom    6 type  2   force =    -0.00075843   -0.01322034    0.00861963
     atom    7 type  2   force =    -0.01452094    0.02598011   -0.00877289
     atom    8 type  3   force =    -0.10696239    0.00200463   -0.00245285
     atom    9 type  3   force =     0.11374453    0.00183893    0.00888501
     atom   10 type  3   force =    -0.02557034   -0.03466324   -0.06282075
     atom   11 type  3   force =    -0.01832822   -0.03772799    0.05453867
     atom   12 type  3   force =    -0.02028058    0.04011156   -0.05753621
     atom   13 type  3   force =    -0.01844527    0.03237340    0.05815772
     atom   14 type  3   force =     0.02210394   -0.03332448   -0.05923211
     atom   15 type  3   force =     0.01471823   -0.03970360    0.05434221
     atom   16 type  3   force =     0.01799487    0.03935954   -0.05303701
     atom   17 type  3   force =     0.01328296    0.03388117    0.05749587
     atom   18 type  4   force =    -0.00700287    0.02411717   -0.01074013
     atom   19 type  4   force =    -0.13139546   -0.00534096   -0.11613649
     atom   20 type  4   force =    -0.12616063    0.00498046    0.11445051
     atom   21 type  4   force =     0.13586158   -0.00665376   -0.11709862
     atom   22 type  4   force =    -0.02160798    0.01244226    0.49019114
     atom   23 type  5   force =     0.18236105   -0.00832984   -0.37553772
     The non-local contrib.  to forces
     atom    1 type  1   force =     0.01365853   -0.00487857    0.03150007
     atom    2 type  1   force =    -0.24658829   -0.16245308    0.02135876
     atom    3 type  1   force =    -0.23947833    0.15655824   -0.02031023
     atom    4 type  1   force =     0.25442628   -0.16366435    0.02957986
     atom    5 type  1   force =     0.24800835    0.15568788   -0.01253838
     atom    6 type  2   force =     0.00908770   -0.04356547   -0.06190962
     atom    7 type  2   force =    -0.00027953    0.07322882    0.04724771
     atom    8 type  3   force =    -0.26351287   -0.00020644    0.00657857
     atom    9 type  3   force =     0.25571913   -0.00380965    0.06560182
     atom   10 type  3   force =    -0.20991037    0.00342955   -0.20276634
     atom   11 type  3   force =    -0.21820135    0.00534880    0.19390704
     atom   12 type  3   force =    -0.20085203   -0.01805291   -0.17371012
     atom   13 type  3   force =    -0.20786237   -0.00089212    0.20473399
     atom   14 type  3   force =     0.21533400    0.00955469   -0.20972005
     atom   15 type  3   force =     0.22507218    0.01214151    0.18504006
     atom   16 type  3   force =     0.20527712   -0.02485921   -0.17868593
     atom   17 type  3   force =     0.21086014   -0.00801024    0.19255324
     atom   18 type  4   force =     0.01130543    0.05161735   -0.05982513
     atom   19 type  4   force =     0.05736510    0.00867724    0.07831487
     atom   20 type  4   force =     0.04423834   -0.01358937   -0.07951260
     atom   21 type  4   force =    -0.06507663    0.00534399    0.07122697
     atom   22 type  4   force =    -0.02622687   -0.00956035   -0.03261654
     atom   23 type  5   force =    -0.04420072   -0.00086457    0.05212527
     The ionic contribution  to forces
     atom    1 type  1   force =    -0.79598882   -5.17344545   13.83992129
     atom    2 type  1   force =   -39.76574640   -6.19984593    0.67608831
     atom    3 type  1   force =   -39.73948626    6.18755725   -0.81836059
     atom    4 type  1   force =    39.58469123   -6.40282801    0.52728672
     atom    5 type  1   force =    39.55564991    6.39497019   -0.96765944
     atom    6 type  2   force =    -0.15472854   -3.63406350  -14.08898300
     atom    7 type  2   force =    -0.84976185    4.21611201   13.77078778
     atom    8 type  3   force =   -52.35454215    0.07191342   -0.28155267
     atom    9 type  3   force =    51.53874522    0.07286929   -2.06598961
     atom   10 type  3   force =   -36.08686128   -2.11531503  -23.03478373
     atom   11 type  3   force =   -35.25669437   -0.94804614   22.11384064
     atom   12 type  3   force =   -35.27088719    0.81768800  -22.08764923
     atom   13 type  3   force =   -36.15750488    2.28251471   23.09208963
     atom   14 type  3   force =    36.01304339   -2.14239132  -23.04869530
     atom   15 type  3   force =    35.00518821   -1.25259211   22.26273787
     atom   16 type  3   force =    35.19750428    0.84456441  -22.10087603
     atom   17 type  3   force =    35.90315816    2.58968247   23.24115141
     atom   18 type  4   force =    -0.14458533    4.43734569  -14.03888782
     atom   19 type  4   force =   -35.94185388    0.95665884  -25.49086483
     atom   20 type  4   force =   -36.19074148   -0.95174994   25.62753544
     atom   21 type  4   force =    35.84421865    0.95617079  -25.51789181
     atom   22 type  4   force =    34.59060468   -0.91850268   28.66315220
     atom   23 type  5   force =     5.47657871   -0.08926697   -0.27239722
     The local contribution  to forces
     atom    1 type  1   force =     0.77254616    5.14535672  -13.84198408
     atom    2 type  1   force =    39.89415810    6.34801584   -0.67950611
     atom    3 type  1   force =    39.86519074   -6.33313018    0.86395783
     atom    4 type  1   force =   -39.72698854    6.54651217   -0.54630438
     atom    5 type  1   force =   -39.69191501   -6.53315131    0.99788048
     atom    6 type  2   force =     0.14421591    3.65436545   14.16734665
     atom    7 type  2   force =     0.84133708   -4.26451474  -13.80515812
     atom    8 type  3   force =    52.53936522   -0.07091264    0.29644268
     atom    9 type  3   force =   -51.69618644   -0.06764636    2.05648148
     atom   10 type  3   force =    36.28600459    2.05957987   23.18535748
     atom   11 type  3   force =    35.47090471    0.88998521  -22.27395248
     atom   12 type  3   force =    35.46537979   -0.73778078   22.21589897
     atom   13 type  3   force =    36.35935431   -2.22896655  -23.26011575
     atom   14 type  3   force =   -36.22416127    2.08284567   23.21224279
     atom   15 type  3   force =   -35.23647868    1.19602428  -22.40929954
     atom   16 type  3   force =   -35.40086877   -0.75977612   22.24024950
     atom   17 type  3   force =   -36.11796689   -2.53962417  -23.39319042
     atom   18 type  4   force =     0.12597117   -4.45638403   14.09756980
     atom   19 type  4   force =    35.75720290   -0.97349464   25.30531815
     atom   20 type  4   force =    36.03217661    0.96609925  -25.44887855
     atom   21 type  4   force =   -35.64654121   -0.97081135   25.33564916
     atom   22 type  4   force =   -34.59145940    0.93708586  -28.15881172
     atom   23 type  5   force =    -5.25090343    0.08170335   -0.15506006
     The core correction contribution to forces
     atom    1 type  1   force =     0.00120272    0.00382695    0.00030157
     atom    2 type  1   force =    -0.01176478   -0.00165446    0.00101197
     atom    3 type  1   force =    -0.01203814    0.00250140   -0.00119641
     atom    4 type  1   force =     0.01396889   -0.00267026    0.00087939
     atom    5 type  1   force =     0.01403239    0.00260612   -0.00127949
     atom    6 type  2   force =    -0.00057933    0.00191462    0.00244934
     atom    7 type  2   force =     0.00039980   -0.00369330   -0.00169828
     atom    8 type  3   force =    -0.03249085    0.00027076   -0.00050075
     atom    9 type  3   force =     0.02786889    0.00001060   -0.00346400
     atom   10 type  3   force =    -0.02142168    0.00856430   -0.01534060
     atom   11 type  3   force =    -0.02342641    0.01008298    0.01694645
     atom   12 type  3   force =    -0.02139560   -0.00902964   -0.01485076
     atom   13 type  3   force =    -0.02150273   -0.00953351    0.01645727
     atom   14 type  3   force =     0.02167751    0.00833500   -0.01621997
     atom   15 type  3   force =     0.02524030    0.01109178    0.01584182
     atom   16 type  3   force =     0.02136843   -0.00868455   -0.01543411
     atom   17 type  3   force =     0.02272182   -0.01003077    0.01583538
     atom   18 type  4   force =    -0.00077761   -0.00260558    0.00286889
     atom   19 type  4   force =    -0.00945846    0.00003841   -0.00993347
     atom   20 type  4   force =    -0.00858256    0.00034054    0.00994069
     atom   21 type  4   force =     0.00998232    0.00019928   -0.00992545
     atom   22 type  4   force =     0.00560926    0.00019723    0.01159846
     atom   23 type  5   force =     0.00000000    0.00000000    0.00000000
     The Hubbard contrib.    to forces
     atom    1 type  1   force =     0.00000000    0.00000000    0.00000000
     atom    2 type  1   force =     0.00000000    0.00000000    0.00000000
     atom    3 type  1   force =     0.00000000    0.00000000    0.00000000
     atom    4 type  1   force =     0.00000000    0.00000000    0.00000000
     atom    5 type  1   force =     0.00000000    0.00000000    0.00000000
     atom    6 type  2   force =     0.00000000    0.00000000    0.00000000
     atom    7 type  2   force =     0.00000000    0.00000000    0.00000000
     atom    8 type  3   force =     0.00000000    0.00000000    0.00000000
     atom    9 type  3   force =     0.00000000    0.00000000    0.00000000
     atom   10 type  3   force =     0.00000000    0.00000000    0.00000000
     atom   11 type  3   force =     0.00000000    0.00000000    0.00000000
     atom   12 type  3   force =     0.00000000    0.00000000    0.00000000
     atom   13 type  3   force =     0.00000000    0.00000000    0.00000000
     atom   14 type  3   force =     0.00000000    0.00000000    0.00000000
     atom   15 type  3   force =     0.00000000    0.00000000    0.00000000
     atom   16 type  3   force =     0.00000000    0.00000000    0.00000000
     atom   17 type  3   force =     0.00000000    0.00000000    0.00000000
     atom   18 type  4   force =     0.00000000    0.00000000    0.00000000
     atom   19 type  4   force =     0.00000000    0.00000000    0.00000000
     atom   20 type  4   force =     0.00000000    0.00000000    0.00000000
     atom   21 type  4   force =     0.00000000    0.00000000    0.00000000
     atom   22 type  4   force =     0.00000000    0.00000000    0.00000000
     atom   23 type  5   force =     0.00000000    0.00000000    0.00000000
     The SCF correction term to forces
     atom    1 type  1   force =    -0.00447064   -0.00169768   -0.01865602
     atom    2 type  1   force =     0.01206086    0.00272087   -0.01632088
     atom    3 type  1   force =     0.01028591   -0.00382259   -0.01560523
     atom    4 type  1   force =    -0.00759841    0.00129470   -0.01362261
     atom    5 type  1   force =    -0.00643900   -0.00200768   -0.01344168
     atom    6 type  2   force =     0.00132814    0.00822531   -0.00902442
     atom    7 type  2   force =    -0.00613412    0.00494408   -0.01869265
     atom    8 type  3   force =     0.00430057    0.00103629   -0.02216136
     atom    9 type  3   force =    -0.01231996    0.00051181   -0.04248535
     atom   10 type  3   force =     0.00670070    0.00917483    0.00597176
     atom   11 type  3   force =     0.00917151    0.00499791    0.00505635
     atom   12 type  3   force =     0.00755676   -0.01261634    0.00403427
     atom   13 type  3   force =     0.00915270   -0.01065236    0.00625192
     atom   14 type  3   force =    -0.00370737    0.00842824    0.00441975
     atom   15 type  3   force =    -0.00422147   -0.00627230    0.00128134
     atom   16 type  3   force =    -0.00520387   -0.01178823    0.00296889
     atom   17 type  3   force =    -0.00540797    0.00196063    0.00240561
     atom   18 type  4   force =     0.00116578   -0.00575952   -0.01120652
     atom   19 type  4   force =     0.00543118    0.00287596    0.00228813
     atom   20 type  4   force =    -0.00316923    0.00397673    0.00662486
     atom   21 type  4   force =    -0.00663925    0.00254030    0.00510185
     atom   22 type  4   force =    -0.00005334    0.00331896    0.00812809
     atom   23 type  5   force =     0.00096879    0.00019510    0.00105362

     Total force =     0.794612     Total SCF correction =     0.078924


     Computing stress (Cartesian axis) and pressure


     negative rho (up, down):  9.086E-01 9.086E-01
          total   stress  (Ry/bohr**3)                   (kbar)     P=       94.51
   0.00066406  -0.00000249  -0.00006604           97.69       -0.37       -9.72
  -0.00000249   0.00068534  -0.00000961           -0.37      100.82       -1.41
  -0.00006604  -0.00000961   0.00057793           -9.72       -1.41       85.02


     Entering Dynamics:    iteration =     2
                           time      =   0.0004 pico-seconds


ATOMIC_POSITIONS (angstrom)
Hf            2.6700445207        2.8271195255        6.6041368290
Hf            1.2530233788        1.2862826632        5.0586377313
Hf            1.2555198515        7.3898053462        5.0882399910
Hf            4.0870686831        1.2862816719        5.0586373101
Hf            4.0845725641        7.3898064065        5.0882394884
Nb            2.6700458544        2.7969279761        3.5157570152
Nb            2.6700429445        5.8763841468        6.6351679029
Ta            1.2094069496        4.3409281293        5.0712970259
Ta            4.1306861292        4.3409280831        5.0712992285
Ta            1.3072957854        1.3141188101        2.0589438228
Ta            1.3028322580        1.3083868845        8.0947573690
Ta            1.3040533686        7.3758304986        2.0464024756
Ta            1.3077547078        7.3650865342        8.0861808124
Ta            4.0327958115        1.3141189445        2.0589442161
Ta            4.0372592371        1.3083864902        8.0947571966
Ta            4.0360383579        7.3758304287        2.0464029768
Ta            4.0323365923        7.3650868725        8.0861805863
Zr            2.6700444579        5.8662907061        3.5275527962
Zr            1.2438514096        4.3220768715        2.0001458977
Zr            1.2404029106        4.3541246220        8.1499537192
Zr            4.0962413791        4.3220765784        2.0001460719
Zr            4.0996402396        4.3541265775        8.1500610977
H             4.5743746943        4.3399044883        6.7139336554


     kinetic energy (Ekin) =           4.16537295 Ry
     temperature           =       19929.10222258 K 
     Ekin + Etot (const)   =       -2938.75028386 Ry
     Ions kinetic stress =           73.57 (kbar)
                                     13.45           0.02          52.79
                                      0.02           0.00           0.07
                                     52.79           0.07         207.25



     Linear momentum :    0.0000000000   -0.0000000000   -0.0000000000

     Writing config-only to output data dir outdir/pwscf.save/
     NEW-OLD atomic charge density approx. for the potential

     Check: negative core charge=   -0.000002

     negative rho (up, down):  9.087E-01 9.087E-01
     Generating pointlists ...
     new r_m :   0.1075 (alat units)  1.8978 (a.u.) for type    1
     new r_m :   0.1081 (alat units)  1.9084 (a.u.) for type    2
     new r_m :   0.0751 (alat units)  1.3263 (a.u.) for type    3

     total cpu time spent up to now is      538.6 secs

     Self-consistent Calculation

     iteration #  1     ecut=   120.00 Ry     beta= 0.70
     Davidson diagonalization with overlap
     c_bands:  1 eigenvalues not converged
     ethr =  1.00E-06,  avg # of iterations = 20.0

     negative rho (up, down):  9.088E-01 9.088E-01

     total cpu time spent up to now is      577.5 secs

     total energy              =   -2942.96075531 Ry
     estimated scf accuracy    <       0.17649904 Ry

     total magnetization       =     0.02 Bohr mag/cell
     absolute magnetization    =     0.03 Bohr mag/cell

     iteration #  2     ecut=   120.00 Ry     beta= 0.70
     Davidson diagonalization with overlap
     ethr =  6.37E-05,  avg # of iterations =  2.0

     negative rho (up, down):  9.088E-01 9.088E-01

     total cpu time spent up to now is      595.3 secs

     total energy              =   -2942.97515407 Ry
     estimated scf accuracy    <       0.07320227 Ry

     total magnetization       =     0.02 Bohr mag/cell
     absolute magnetization    =     0.03 Bohr mag/cell

     iteration #  3     ecut=   120.00 Ry     beta= 0.70
     Davidson diagonalization with overlap
     ethr =  2.64E-05,  avg # of iterations =  1.0

     negative rho (up, down):  9.088E-01 9.088E-01

     total cpu time spent up to now is      618.5 secs

     total energy              =   -2942.97922904 Ry
     estimated scf accuracy    <       0.00469178 Ry

     total magnetization       =     0.02 Bohr mag/cell
     absolute magnetization    =     0.03 Bohr mag/cell

     iteration #  4     ecut=   120.00 Ry     beta= 0.70
     Davidson diagonalization with overlap
     ethr =  1.69E-06,  avg # of iterations =  2.0

     negative rho (up, down):  9.088E-01 9.088E-01

     Magnetic moment per site  (integrated on atomic sphere of radius R)
     atom   1 (R=0.108)  charge=  9.1565   -0.0000
     atom   2 (R=0.108)  charge=  8.8112    0.0000
     atom   3 (R=0.108)  charge=  8.8107    0.0000
     atom   4 (R=0.108)  charge=  8.8147    0.0000
     atom   5 (R=0.108)  charge=  8.8139    0.0001
     atom   6 (R=0.108)  charge= 10.2148    0.0000
     atom   7 (R=0.108)  charge= 10.2169   -0.0000
     atom   8 (R=0.075)  charge=  6.5965   -0.0000
     atom   9 (R=0.075)  charge=  6.6082    0.0001
     atom  10 (R=0.075)  charge=  6.5831    0.0004
     atom  11 (R=0.075)  charge=  6.5805    0.0005
     atom  12 (R=0.075)  charge=  6.5822    0.0006
     atom  13 (R=0.075)  charge=  6.5822    0.0003
     atom  14 (R=0.075)  charge=  6.5815    0.0002
     atom  15 (R=0.075)  charge=  6.5796   -0.0000
     atom  16 (R=0.075)  charge=  6.5824   -0.0000
     atom  17 (R=0.075)  charge=  6.5805    0.0001
     atom  18 (R=0.056)  charge=  2.8342    0.0000
     atom  19 (R=0.056)  charge=  2.8129    0.0001
     atom  20 (R=0.056)  charge=  2.8121    0.0001
     atom  21 (R=0.056)  charge=  2.8132   -0.0001
     atom  22 (R=0.056)  charge=  2.8220    0.0000
     atom  23 (R=0.056)  charge=  0.7202    0.0000

     total cpu time spent up to now is      656.2 secs

     End of self-consistent calculation

 ------ SPIN UP ------------


          k = 0.0000 0.0000 0.0000 ( 61588 PWs)   bands (ev):

   -60.7575 -60.7574 -60.7123 -60.7108 -60.6806 -60.6759 -60.6358 -60.6321
   -60.5307 -60.4930 -54.3789 -54.3329 -54.2538 -54.2081 -52.7444 -46.2890
   -46.2239 -41.5966 -41.5617 -41.4727 -41.2761 -39.7619 -27.7607 -27.7545
   -27.6728 -27.6664 -27.5766 -27.5663 -27.4474 -27.4381 -27.4166 -27.3223
   -27.3027 -27.2533 -27.2425 -27.2312 -27.2085 -27.1850 -27.1626 -27.1467
   -27.1401 -27.1074 -27.0811 -27.0329 -26.9368 -26.9321 -26.9267 -26.9160
   -26.8663 -26.8600 -26.8366 -26.8287 -24.1618 -23.9518 -23.6532 -23.5708
   -23.3121 -23.1819 -23.1563 -23.0619 -22.9259 -22.8570 -22.8388 -22.6214
   -22.5128 -22.4418 -22.3915 -22.3596 -22.2600 -22.2238 -21.7690 -21.7451
   -21.6616 -20.1601 -19.8554 -19.8153 -19.7536 -19.5912 -19.5764 -19.5597
   -19.5157 -19.4988 -19.3328 -19.3161 -19.1564 -18.1168 -17.9075 -17.7734
     0.7452   1.8017   2.9551   3.1594   3.3123   3.4316   3.4916   3.5796
     3.6960   3.7529   3.9400   3.9956   4.2584   4.4415   4.5807   4.7137
     4.7499   4.9975   5.0601   5.0828   5.2136   5.2817   5.2970   5.3183
     5.4051   5.5650   5.5786   5.6996   5.7490   5.7568   5.7963   5.9202
     5.9455   6.0679   6.1565   6.2266   6.2904   6.3636   6.3775   6.3905
     6.5099   6.6411   6.6659   6.6863   6.8596   6.9989   7.0444   7.0864
     7.1419   7.1592   7.2470   7.3264   7.4079   7.4438   7.5312   7.6029
     7.6654   7.7460   7.9023   7.9860   8.0676   8.1124   8.1452   8.1488
     8.2638   8.2953   8.3249   8.3760   8.5172   8.5413   8.5937   8.7793
     8.8422   8.9319   8.9906   9.0731   9.2052   9.2860   9.2974

 ------ SPIN DOWN ----------


          k = 0.0000 0.0000 0.0000 ( 61588 PWs)   bands (ev):

   -60.7571 -60.7570 -60.7119 -60.7102 -60.6803 -60.6755 -60.6352 -60.6317
   -60.5307 -60.4929 -54.3788 -54.3329 -54.2538 -54.2080 -52.7445 -46.2890
   -46.2239 -41.5966 -41.5610 -41.4731 -41.2760 -39.7619 -27.7601 -27.7539
   -27.6719 -27.6657 -27.5760 -27.5656 -27.4468 -27.4375 -27.4164 -27.3219
   -27.3023 -27.2529 -27.2419 -27.2309 -27.2082 -27.1848 -27.1622 -27.1464
   -27.1398 -27.1071 -27.0810 -27.0329 -26.9361 -26.9316 -26.9262 -26.9153
   -26.8656 -26.8591 -26.8359 -26.8282 -24.1617 -23.9517 -23.6532 -23.5708
   -23.3121 -23.1818 -23.1562 -23.0619 -22.9258 -22.8570 -22.8388 -22.6214
   -22.5129 -22.4418 -22.3915 -22.3595 -22.2599 -22.2238 -21.7690 -21.7451
   -21.6616 -20.1603 -19.8549 -19.8153 -19.7541 -19.5909 -19.5760 -19.5590
   -19.5152 -19.4992 -19.3332 -19.3161 -19.1561 -18.1167 -17.9074 -17.7734
     0.7453   1.8021   2.9559   3.1596   3.3125   3.4318   3.4926   3.5798
     3.6962   3.7533   3.9410   3.9958   4.2586   4.4421   4.5812   4.7144
     4.7502   4.9980   5.0604   5.0835   5.2141   5.2823   5.2974   5.3186
     5.4058   5.5652   5.5789   5.6997   5.7493   5.7573   5.7967   5.9203
     5.9457   6.0685   6.1573   6.2269   6.2908   6.3641   6.3779   6.3908
     6.5105   6.6415   6.6663   6.6869   6.8603   6.9996   7.0462   7.0881
     7.1431   7.1598   7.2491   7.3271   7.4093   7.4463   7.5313   7.6036
     7.6664   7.7469   7.9029   7.9867   8.0684   8.1136   8.1458   8.1493
     8.2658   8.2961   8.3252   8.3775   8.5178   8.5418   8.5943   8.7799
     8.8429   8.9336   8.9911   9.0743   9.2056   9.2891   9.2972

     the Fermi energy is     7.2660 ev

!    total energy              =   -2942.97882356 Ry
     estimated scf accuracy    <       0.00088712 Ry
     smearing contrib. (-TS)   =      -0.10079839 Ry
     internal energy E=F+TS    =   -2942.87802517 Ry

     total magnetization       =     0.02 Bohr mag/cell
     absolute magnetization    =     0.03 Bohr mag/cell

     convergence has been achieved in   4 iterations

     negative rho (up, down):  9.088E-01 9.088E-01

     Forces acting on atoms (cartesian axes, Ry/au):

     atom    1 type  1   force =    -0.01156097   -0.03050811    0.00329410
     atom    2 type  1   force =    -0.11090146   -0.01185459   -0.01205157
     atom    3 type  1   force =    -0.10940443    0.00686907   -0.00580498
     atom    4 type  1   force =     0.11289413   -0.01872240   -0.01663328
     atom    5 type  1   force =     0.11399907    0.01458422   -0.01141416
     atom    6 type  2   force =    -0.00164674   -0.01446873    0.01142626
     atom    7 type  2   force =    -0.01548564    0.02835724   -0.00596295
     atom    8 type  3   force =    -0.10709622    0.00261381   -0.00854684
     atom    9 type  3   force =     0.09690345    0.00233610   -0.05051825
     atom   10 type  3   force =    -0.02354459   -0.03126299   -0.05820314
     atom   11 type  3   force =    -0.01525003   -0.03630766    0.06098538
     atom   12 type  3   force =    -0.01780064    0.03570814   -0.05347464
     atom   13 type  3   force =    -0.01431584    0.02888115    0.06475236
     atom   14 type  3   force =     0.01963490   -0.03039742   -0.05510459
     atom   15 type  3   force =     0.01337344   -0.03828305    0.06079471
     atom   16 type  3   force =     0.01479799    0.03542829   -0.04963192
     atom   17 type  3   force =     0.01092826    0.03055437    0.06461330
     atom   18 type  4   force =    -0.00656838    0.02423606   -0.01208706
     atom   19 type  4   force =    -0.12964534   -0.00407368   -0.11432691
     atom   20 type  4   force =    -0.12479610    0.00640713    0.12127330
     atom   21 type  4   force =     0.13393471   -0.00538564   -0.11904901
     atom   22 type  4   force =     0.05501521    0.01188302    0.34546332
     atom   23 type  5   force =     0.11653521   -0.00659433   -0.15979343
     The non-local contrib.  to forces
     atom    1 type  1   force =     0.01831923   -0.00260890    0.02598705
     atom    2 type  1   force =    -0.24132285   -0.16188475    0.01196444
     atom    3 type  1   force =    -0.23530046    0.15530227   -0.02930468
     atom    4 type  1   force =     0.25342348   -0.16042137    0.02226328
     atom    5 type  1   force =     0.24692773    0.15191637   -0.01996788
     atom    6 type  2   force =     0.00971408   -0.04488835   -0.06381519
     atom    7 type  2   force =     0.00067318    0.07532893    0.04801431
     atom    8 type  3   force =    -0.26115094   -0.00026130   -0.00049422
     atom    9 type  3   force =     0.23771893   -0.00338485    0.04018036
     atom   10 type  3   force =    -0.20826337    0.00459584   -0.20022460
     atom   11 type  3   force =    -0.21655713    0.00643210    0.19871825
     atom   12 type  3   force =    -0.19906776   -0.01980300   -0.17212976
     atom   13 type  3   force =    -0.20528586   -0.00334561    0.20987691
     atom   14 type  3   force =     0.21402333    0.01192239   -0.20999734
     atom   15 type  3   force =     0.22660384    0.01194611    0.18508665
     atom   16 type  3   force =     0.20298642   -0.02793115   -0.17906868
     atom   17 type  3   force =     0.21147696   -0.00947815    0.19213465
     atom   18 type  4   force =     0.01017780    0.05072255   -0.06580349
     atom   19 type  4   force =     0.05757880    0.00928910    0.07574229
     atom   20 type  4   force =     0.04989846   -0.01186094   -0.07700283
     atom   21 type  4   force =    -0.06999167    0.00661533    0.06705535
     atom   22 type  4   force =    -0.02776865   -0.00849983   -0.03895528
     atom   23 type  5   force =    -0.03764600   -0.00127738    0.01553058
     The ionic contribution  to forces
     atom    1 type  1   force =    -0.82270841   -5.20539966   13.90033172
     atom    2 type  1   force =   -39.77308535   -6.20535687    0.67885758
     atom    3 type  1   force =   -39.74686244    6.19312015   -0.81538911
     atom    4 type  1   force =    39.58469212   -6.42800727    0.53013947
     atom    5 type  1   force =    39.55568111    6.42038268   -0.96424341
     atom    6 type  2   force =    -0.16940707   -3.64717403  -14.11385129
     atom    7 type  2   force =    -0.87569250    4.24868369   13.83612107
     atom    8 type  3   force =   -52.38334384    0.07191973   -0.28148071
     atom    9 type  3   force =    51.43206692    0.07329448   -2.44817865
     atom   10 type  3   force =   -36.08838108   -2.11607817  -23.04421446
     atom   11 type  3   force =   -35.25480824   -0.94584373   22.12213672
     atom   12 type  3   force =   -35.27240910    0.81844831  -22.09708339
     atom   13 type  3   force =   -36.15559987    2.28032868   23.10048015
     atom   14 type  3   force =    36.01385022   -2.14424691  -23.06549223
     atom   15 type  3   force =    35.01661556   -1.22865881   22.27741497
     atom   16 type  3   force =    35.19836846    0.84635075  -22.11763671
     atom   17 type  3   force =    35.91469912    2.56562922   23.25604422
     atom   18 type  4   force =    -0.15840107    4.44950366  -14.06201829
     atom   19 type  4   force =   -35.94418859    0.95661810  -25.50406170
     atom   20 type  4   force =   -36.18237651   -0.95177889   25.64151042
     atom   21 type  4   force =    35.84508204    0.95611968  -25.54970752
     atom   22 type  4   force =    34.95183736   -0.92645303   28.20183210
     atom   23 type  5   force =     5.31437116   -0.08140175    0.51848904
     The local contribution  to forces
     atom    1 type  1   force =     0.80316001    5.18068541  -13.93223715
     atom    2 type  1   force =    39.92461008    6.35679244   -0.73402080
     atom    3 type  1   force =    39.89314828   -6.34556125    0.81018409
     atom    4 type  1   force =   -39.74547767    6.57381430   -0.59902796
     atom    5 type  1   force =   -39.70803584   -6.56296208    0.94481167
     atom    6 type  2   force =     0.16198169    3.68282257   14.15784380
     atom    7 type  2   force =     0.87267865   -4.29894420  -13.89543182
     atom    8 type  3   force =    52.57622417   -0.06712600    0.23310072
     atom    9 type  3   force =   -51.59311287   -0.06610208    2.34363056
     atom   10 type  3   force =    36.30263544    2.07982996   23.20624499
     atom   11 type  3   force =    35.49157990    0.89729637  -22.26507894
     atom   12 type  3   force =    35.48484472   -0.76638562   22.23407507
     atom   13 type  3   force =    36.38089428   -2.24870335  -23.24828136
     atom   14 type  3   force =   -36.23257730    2.09883238   23.24104509
     atom   15 type  3   force =   -35.26043876    1.18286692  -22.40413068
     atom   16 type  3   force =   -35.41159812   -0.78424578   22.26508168
     atom   17 type  3   force =   -36.14410823   -2.53683534  -23.38342997
     atom   18 type  4   force =     0.14534542   -4.47777670   14.08356717
     atom   19 type  4   force =    35.77611735   -0.96657826   25.32239909
     atom   20 type  4   force =    36.03877959    0.97421023  -25.43267469
     atom   21 type  4   force =   -35.65553741   -0.96458594   25.36719659
     atom   22 type  4   force =   -34.88801651    0.95094568  -27.80347214
     atom   23 type  5   force =    -5.16173332    0.07631583   -0.69768800
     The core correction contribution to forces
     atom    1 type  1   force =     0.00117446    0.00407319    0.00010118
     atom    2 type  1   force =    -0.01144821   -0.00151777    0.00085684
     atom    3 type  1   force =    -0.01184479    0.00228122   -0.00132158
     atom    4 type  1   force =     0.01405699   -0.00206536    0.00074181
     atom    5 type  1   force =     0.01409524    0.00191473   -0.00120531
     atom    6 type  2   force =    -0.00059126    0.00204907    0.00258716
     atom    7 type  2   force =     0.00045593   -0.00384054   -0.00176115
     atom    8 type  3   force =    -0.03195755    0.00025095   -0.00040998
     atom    9 type  3   force =     0.02558049    0.00005149   -0.00465721
     atom   10 type  3   force =    -0.02139578    0.00879781   -0.01527152
     atom   11 type  3   force =    -0.02347351    0.00992242    0.01729411
     atom   12 type  3   force =    -0.02136603   -0.00914275   -0.01484878
     atom   13 type  3   force =    -0.02142607   -0.00934671    0.01671415
     atom   14 type  3   force =     0.02144110    0.00842356   -0.01637429
     atom   15 type  3   force =     0.02556120    0.01069559    0.01570491
     atom   16 type  3   force =     0.02101504   -0.00873257   -0.01551561
     atom   17 type  3   force =     0.02283425   -0.00952126    0.01568929
     atom   18 type  4   force =    -0.00065301   -0.00268465    0.00301587
     atom   19 type  4   force =    -0.00941124    0.00004510   -0.00980707
     atom   20 type  4   force =    -0.00882606    0.00029325    0.00996375
     atom   21 type  4   force =     0.01018397    0.00017245   -0.00965289
     atom   22 type  4   force =     0.00627492    0.00016948    0.01125119
     atom   23 type  5   force =     0.00000000    0.00000000    0.00000000
     The Hubbard contrib.    to forces
     atom    1 type  1   force =     0.00000000    0.00000000    0.00000000
     atom    2 type  1   force =     0.00000000    0.00000000    0.00000000
     atom    3 type  1   force =     0.00000000    0.00000000    0.00000000
     atom    4 type  1   force =     0.00000000    0.00000000    0.00000000
     atom    5 type  1   force =     0.00000000    0.00000000    0.00000000
     atom    6 type  2   force =     0.00000000    0.00000000    0.00000000
     atom    7 type  2   force =     0.00000000    0.00000000    0.00000000
     atom    8 type  3   force =     0.00000000    0.00000000    0.00000000
     atom    9 type  3   force =     0.00000000    0.00000000    0.00000000
     atom   10 type  3   force =     0.00000000    0.00000000    0.00000000
     atom   11 type  3   force =     0.00000000    0.00000000    0.00000000
     atom   12 type  3   force =     0.00000000    0.00000000    0.00000000
     atom   13 type  3   force =     0.00000000    0.00000000    0.00000000
     atom   14 type  3   force =     0.00000000    0.00000000    0.00000000
     atom   15 type  3   force =     0.00000000    0.00000000    0.00000000
     atom   16 type  3   force =     0.00000000    0.00000000    0.00000000
     atom   17 type  3   force =     0.00000000    0.00000000    0.00000000
     atom   18 type  4   force =     0.00000000    0.00000000    0.00000000
     atom   19 type  4   force =     0.00000000    0.00000000    0.00000000
     atom   20 type  4   force =     0.00000000    0.00000000    0.00000000
     atom   21 type  4   force =     0.00000000    0.00000000    0.00000000
     atom   22 type  4   force =     0.00000000    0.00000000    0.00000000
     atom   23 type  5   force =     0.00000000    0.00000000    0.00000000
     The SCF correction term to forces
     atom    1 type  1   force =    -0.01087467   -0.00724409    0.00774739
     atom    2 type  1   force =    -0.00902355    0.00012640    0.02892646
     atom    3 type  1   force =    -0.00791343    0.00174074    0.02866239
     atom    4 type  1   force =     0.00683080   -0.00202863    0.02788620
     atom    5 type  1   force =     0.00596241    0.00334657    0.02782686
     atom    6 type  2   force =    -0.00271259   -0.00726393    0.02729787
     atom    7 type  2   force =    -0.01296931    0.00714342    0.00573073
     atom    8 type  3   force =    -0.00623647   -0.00215551    0.03937344
     atom    9 type  3   force =    -0.00471843   -0.00150887    0.01714278
     atom   10 type  3   force =    -0.00750821   -0.00839437   -0.00610146
     atom   11 type  3   force =    -0.01135948   -0.00410077   -0.01344868
     atom   12 type  3   force =    -0.00917088    0.01260526   -0.00485169
     atom   13 type  3   force =    -0.01226674    0.00996220   -0.01540140
     atom   14 type  3   force =     0.00352913   -0.00531478   -0.00564974
     atom   15 type  3   force =     0.00566319   -0.01511880   -0.01464504
     atom   16 type  3   force =     0.00465778    0.01000110   -0.00385651
     atom   17 type  3   force =     0.00665775    0.02077396   -0.01718881
     atom   18 type  4   force =    -0.00240593    0.00448525    0.02778776
     atom   19 type  4   force =    -0.00911007   -0.00343366    0.00003658
     atom   20 type  4   force =    -0.02163998   -0.00444245   -0.02188727
     atom   21 type  4   force =     0.00482937   -0.00369311    0.00469555
     atom   22 type  4   force =     0.01331968   -0.00426522   -0.02655645
     atom   23 type  5   force =     0.00217496   -0.00021696    0.00251104

     Total force =     0.608991     Total SCF correction =     0.110390
     SCF correction compared to forces is large: reduce conv_thr to get better values


     Computing stress (Cartesian axis) and pressure


     negative rho (up, down):  9.088E-01 9.088E-01
          total   stress  (Ry/bohr**3)                   (kbar)     P=       94.13
   0.00067055  -0.00000203  -0.00002648           98.64       -0.30       -3.90
  -0.00000203   0.00068929  -0.00001048           -0.30      101.40       -1.54
  -0.00002648  -0.00001048   0.00055989           -3.90       -1.54       82.36


     Entering Dynamics:    iteration =     3
                           time      =   0.0006 pico-seconds


ATOMIC_POSITIONS (angstrom)
Hf            2.6700657624        2.8271151357        6.6042236050
[...]
     4.7535   5.0125   5.0665   5.1065   5.2035   5.2833   5.3045   5.3197
     5.4083   5.5791   5.5930   5.7225   5.7519   5.7684   5.8022   5.9046
     5.9489   6.0748   6.1577   6.2388   6.3018   6.3646   6.3859   6.3994
     6.5017   6.6462   6.6806   6.6906   6.8732   7.0140   7.0515   7.0888
     7.1391   7.1639   7.2656   7.3322   7.4124   7.4449   7.5393   7.6053
     7.6700   7.7120   7.9150   8.0105   8.0624   8.1249   8.1509   8.1572
     8.2708   8.3256   8.3440   8.3806   8.5244   8.5398   8.6166   8.7829
     8.8404   8.9344   8.9892   9.0772   9.2046   9.2903   9.3062

     the Fermi energy is     7.2712 ev

!    total energy              =   -2943.04567233 Ry
     estimated scf accuracy    <       0.00028178 Ry
     smearing contrib. (-TS)   =      -0.10164406 Ry
     internal energy E=F+TS    =   -2942.94402827 Ry

     total magnetization       =     0.00 Bohr mag/cell
     absolute magnetization    =     0.00 Bohr mag/cell

     convergence has been achieved in   5 iterations

     negative rho (up, down):  9.088E-01 9.088E-01

     Forces acting on atoms (cartesian axes, Ry/au):

     atom    1 type  1   force =    -0.01126276   -0.02594484    0.00385241
     atom    2 type  1   force =    -0.11434518   -0.01164510    0.00082465
     atom    3 type  1   force =    -0.11233139    0.00720164    0.00691920
     atom    4 type  1   force =     0.11438644   -0.02126832   -0.00403381
     atom    5 type  1   force =     0.11463694    0.01716957    0.00164125
     atom    6 type  2   force =    -0.00712963   -0.01851479    0.00346103
     atom    7 type  2   force =    -0.01312199    0.02138250   -0.01040700
     atom    8 type  3   force =    -0.10812114    0.00247415   -0.00334166
     atom    9 type  3   force =     0.08311101    0.00330708   -0.05579990
     atom   10 type  3   force =    -0.02441586   -0.03044723   -0.06102135
     atom   11 type  3   force =    -0.01619731   -0.03535825    0.05592102
     atom   12 type  3   force =    -0.01886589    0.03559710   -0.05605691
     atom   13 type  3   force =    -0.01566730    0.02868025    0.05881035
     atom   14 type  3   force =     0.02252438   -0.02932624   -0.05765210
     atom   15 type  3   force =     0.01520854   -0.04262223    0.05457179
     atom   16 type  3   force =     0.01811674    0.03490850   -0.05280583
     atom   17 type  3   force =     0.01312326    0.03555612    0.05768083
     atom   18 type  4   force =    -0.01133377    0.02862797   -0.01391635
     atom   19 type  4   force =    -0.12858563   -0.00486214   -0.11457320
     atom   20 type  4   force =    -0.12828270    0.00565303    0.11232269
     atom   21 type  4   force =     0.13245339   -0.00549900   -0.12171638
     atom   22 type  4   force =     0.10197520    0.01060318    0.17896868
     atom   23 type  5   force =     0.09412464   -0.00567294    0.01635057
     The non-local contrib.  to forces
     atom    1 type  1   force =     0.01451174   -0.00685780    0.02806811
     atom    2 type  1   force =    -0.24465444   -0.16158710    0.01961849
     atom    3 type  1   force =    -0.23884022    0.15577136   -0.02205134
     atom    4 type  1   force =     0.25759940   -0.16092436    0.03467879
     atom    5 type  1   force =     0.24946410    0.15354818   -0.00930972
     atom    6 type  2   force =     0.00972768   -0.04529013   -0.05871520
     atom    7 type  2   force =     0.00047670    0.07479417    0.05331141
     atom    8 type  3   force =    -0.26098631   -0.00061314    0.00733095
     atom    9 type  3   force =     0.21710460   -0.00069424    0.00308885
     atom   10 type  3   force =    -0.21203477    0.00467464   -0.20293035
     atom   11 type  3   force =    -0.21581289    0.00589422    0.19620225
     atom   12 type  3   force =    -0.20306695   -0.01933124   -0.17471349
     atom   13 type  3   force =    -0.20404609   -0.00286350    0.20689039
     atom   14 type  3   force =     0.21495974    0.01137250   -0.21614591
     atom   15 type  3   force =     0.22812404    0.00859781    0.17719554
     atom   16 type  3   force =     0.20404320   -0.02731588   -0.18475310
     atom   17 type  3   force =     0.21315754   -0.00624574    0.18399182
     atom   18 type  4   force =     0.00868547    0.05239419   -0.05723996
     atom   19 type  4   force =     0.05619393    0.00863439    0.07482450
     atom   20 type  4   force =     0.04673855   -0.01271548   -0.07359654
     atom   21 type  4   force =    -0.06538678    0.00664713    0.06947457
     atom   22 type  4   force =    -0.03311718   -0.00896866   -0.06618025
     atom   23 type  5   force =    -0.04185103    0.00004831   -0.00962690
     The ionic contribution  to forces
     atom    1 type  1   force =    -0.60959114   -4.93945155   13.98147824
     atom    2 type  1   force =   -39.74485081   -6.18884278    0.72237158
     atom    3 type  1   force =   -39.71864386    6.17716419   -0.77146373
     atom    4 type  1   force =    39.55301981   -6.41563988    0.62567081
     atom    5 type  1   force =    39.52710308    6.40054554   -0.86324418
     atom    6 type  2   force =    -0.31562667   -3.77658047  -14.16006674
     atom    7 type  2   force =    -0.63816044    3.95914312   13.91530180
     atom    8 type  3   force =   -52.36263165    0.07201446   -0.15134217
     atom    9 type  3   force =    50.99706170    0.11580810   -2.09764987
     atom   10 type  3   force =   -36.07313033   -2.10613289  -23.02988872
     atom   11 type  3   force =   -35.19699705   -0.90107278   22.07491277
     atom   12 type  3   force =   -35.26064913    0.81055035  -22.08518778
     atom   13 type  3   force =   -36.09570987    2.23561082   23.05411673
     atom   14 type  3   force =    35.98507665   -2.15906830  -23.07251474
     atom   15 type  3   force =    34.97788742   -1.13299055   22.20719413
     atom   16 type  3   force =    35.17371139    0.86184721  -22.12640031
     atom   17 type  3   force =    35.87727886    2.46236058   23.18159182
     atom   18 type  4   force =    -0.29701653    4.56751386  -14.10269915
     atom   19 type  4   force =   -35.92603867    0.95381522  -25.46702235
     atom   20 type  4   force =   -36.02904235   -0.94999707   25.51093777
     atom   21 type  4   force =    35.79463158    0.95289411  -25.65879284
     atom   22 type  4   force =    34.92682312   -0.91728289   27.21863885
     atom   23 type  5   force =     5.45549491   -0.08220837    1.09405808
     The local contribution  to forces
     atom    1 type  1   force =     0.58451704    4.91449401  -13.99393400
     atom    2 type  1   force =    39.88459502    6.34106417   -0.72699051
     atom    3 type  1   force =    39.85578073   -6.33007325    0.81720423
     atom    4 type  1   force =   -39.70795160    6.55525060   -0.65165740
     atom    5 type  1   force =   -39.67446329   -6.53792968    0.88905276
     atom    6 type  2   force =     0.29702960    3.80067338   14.23432261
     atom    7 type  2   force =     0.62629136   -4.00566776  -13.96350952
     atom    8 type  3   force =    52.54072367   -0.06748932    0.15596309
     atom    9 type  3   force =   -51.14829940   -0.11055254    2.06594171
     atom   10 type  3   force =    36.28183615    2.06531431   23.18970061
     atom   11 type  3   force =    35.41780630    0.84432236  -22.23988558
     atom   12 type  3   force =    35.46668423   -0.75016946   22.22130574
     atom   13 type  3   force =    36.30435362   -2.19053894  -23.22722099
     atom   14 type  3   force =   -36.19668634    2.11423682   23.24878042
     atom   15 type  3   force =   -35.21275655    1.07030478  -22.34985254
     atom   16 type  3   force =   -35.37879867   -0.79630061   22.27537832
     atom   17 type  3   force =   -36.09738967   -2.41188692  -23.32899728
     atom   18 type  4   force =     0.27564352   -4.58777629   14.15679652
     atom   19 type  4   force =    35.75055316   -0.96684305   25.28970270
     atom   20 type  4   force =    35.86068794    0.96923346  -25.34178628
     atom   21 type  4   force =   -35.60460938   -0.96430419   25.47560143
     atom   22 type  4   force =   -34.79173386    0.93790153  -26.99235431
     atom   23 type  5   force =    -5.31841012    0.07656408   -1.06517629
     The core correction contribution to forces
     atom    1 type  1   force =     0.00107156    0.00373854   -0.00063502
     atom    2 type  1   force =    -0.01177406   -0.00159995    0.00081671
     atom    3 type  1   force =    -0.01213709    0.00237308   -0.00132868
     atom    4 type  1   force =     0.01440680   -0.00218254    0.00192108
     atom    5 type  1   force =     0.01448285    0.00196559   -0.00001110
     atom    6 type  2   force =    -0.00062295    0.00202844    0.00235378
     atom    7 type  2   force =     0.00039593   -0.00377606   -0.00200860
     atom    8 type  3   force =    -0.03161039    0.00016190   -0.00027951
     atom    9 type  3   force =     0.02296122    0.00017608   -0.00636149
     atom   10 type  3   force =    -0.02164113    0.00925367   -0.01568387
     atom   11 type  3   force =    -0.02318461    0.00991651    0.01733496
     atom   12 type  3   force =    -0.02163865   -0.00954502   -0.01518738
     atom   13 type  3   force =    -0.02133222   -0.00939448    0.01675819
     atom   14 type  3   force =     0.02153962    0.00831119   -0.01686102
     atom   15 type  3   force =     0.02585661    0.01074062    0.01499545
     atom   16 type  3   force =     0.02118655   -0.00864854   -0.01607712
     atom   17 type  3   force =     0.02305937   -0.00946777    0.01520665
     atom   18 type  4   force =    -0.00058754   -0.00274370    0.00282168
     atom   19 type  4   force =    -0.00939102    0.00006265   -0.00971550
     atom   20 type  4   force =    -0.00889379    0.00032339    0.00957853
     atom   21 type  4   force =     0.00992351    0.00015484   -0.00974055
     atom   22 type  4   force =     0.00692516    0.00017273    0.01114189
     atom   23 type  5   force =     0.00000000    0.00000000    0.00000000
     The Hubbard contrib.    to forces
     atom    1 type  1   force =     0.00000000    0.00000000    0.00000000
     atom    2 type  1   force =     0.00000000    0.00000000    0.00000000
     atom    3 type  1   force =     0.00000000    0.00000000    0.00000000
     atom    4 type  1   force =     0.00000000    0.00000000    0.00000000
     atom    5 type  1   force =     0.00000000    0.00000000    0.00000000
     atom    6 type  2   force =     0.00000000    0.00000000    0.00000000
     atom    7 type  2   force =     0.00000000    0.00000000    0.00000000
     atom    8 type  3   force =     0.00000000    0.00000000    0.00000000
     atom    9 type  3   force =     0.00000000    0.00000000    0.00000000
     atom   10 type  3   force =     0.00000000    0.00000000    0.00000000
     atom   11 type  3   force =     0.00000000    0.00000000    0.00000000
     atom   12 type  3   force =     0.00000000    0.00000000    0.00000000
     atom   13 type  3   force =     0.00000000    0.00000000    0.00000000
     atom   14 type  3   force =     0.00000000    0.00000000    0.00000000
     atom   15 type  3   force =     0.00000000    0.00000000    0.00000000
     atom   16 type  3   force =     0.00000000    0.00000000    0.00000000
     atom   17 type  3   force =     0.00000000    0.00000000    0.00000000
     atom   18 type  4   force =     0.00000000    0.00000000    0.00000000
     atom   19 type  4   force =     0.00000000    0.00000000    0.00000000
     atom   20 type  4   force =     0.00000000    0.00000000    0.00000000
     atom   21 type  4   force =     0.00000000    0.00000000    0.00000000
     atom   22 type  4   force =     0.00000000    0.00000000    0.00000000
     atom   23 type  5   force =     0.00000000    0.00000000    0.00000000
     The SCF correction term to forces
     atom    1 type  1   force =    -0.00160525    0.00210088   -0.01003703
     atom    2 type  1   force =     0.00250581   -0.00071051   -0.01390374
     atom    3 type  1   force =     0.00167576    0.00193517   -0.01435340
     atom    4 type  1   force =    -0.00252126    0.00219676   -0.01355921
     atom    5 type  1   force =    -0.00178309   -0.00099114   -0.01375862
     atom    6 type  2   force =     0.00252942    0.00062290   -0.01334552
     atom    7 type  2   force =    -0.00195883   -0.00314205   -0.01241421
     atom    8 type  3   force =     0.00655026   -0.00163083   -0.01392614
     atom    9 type  3   force =    -0.00555040   -0.00146141   -0.01973121
     atom   10 type  3   force =     0.00072093   -0.00358804   -0.00113115
     atom   11 type  3   force =     0.00215765    0.00555035    0.00844451
     atom   12 type  3   force =    -0.00002868    0.00406139   -0.00118612
     atom   13 type  3   force =     0.00123397   -0.00416474    0.00935392
     atom   14 type  3   force =    -0.00219857   -0.00420953    0.00017703
     atom   15 type  3   force =    -0.00373627    0.00069403    0.00612710
     atom   16 type  3   force =    -0.00185901    0.00529522    0.00013427
     atom   17 type  3   force =    -0.00281614    0.00076488    0.00697571
     atom   18 type  4   force =     0.00210802   -0.00079118   -0.01250756
     atom   19 type  4   force =     0.00026368   -0.00056245   -0.00127467
     atom   20 type  4   force =     0.00239367   -0.00122236    0.00827709
     atom   21 type  4   force =    -0.00193883   -0.00092198    0.00282890
     atom   22 type  4   force =    -0.00675534   -0.00125061    0.00881039
     atom   23 type  5   force =    -0.00094242   -0.00010805   -0.00181643

     Total force =     0.508561     Total SCF correction =     0.052089
     SCF correction compared to forces is large: reduce conv_thr to get better values


     Computing stress (Cartesian axis) and pressure


     negative rho (up, down):  9.088E-01 9.088E-01
          total   stress  (Ry/bohr**3)                   (kbar)     P=       89.37
   0.00065717  -0.00000155   0.00001134           96.67       -0.23        1.67
  -0.00000155   0.00068013  -0.00001089           -0.23      100.05       -1.60
   0.00001134  -0.00001089   0.00048520            1.67       -1.60       71.37


     Entering Dynamics:    iteration =    20
                           time      =   0.0041 pico-seconds


ATOMIC_POSITIONS (angstrom)
Hf            2.6703425151        2.8267919323        6.6057226967
Hf            1.2521402222        1.2861532903        5.0601165476
Hf            1.2546417946        7.3898969143        5.0898030628
Hf            4.0888004382        1.2861179001        5.0601096114
Hf            4.0863083778        7.3899321305        5.0897770066
Nb            2.6704703759        2.7965991117        3.5175277577
Nb            2.6702436522        5.8768822917        6.6364901080
Ta            1.2085600259        4.3409604640        5.0728169639
Ta            4.1222831175        4.3411025676        5.0435332998
Ta            1.3074392146        1.3137442793        2.0598302466
Ta            1.3030520150        1.3079839708        8.0969433113
Ta            1.3042491363        7.3762554885        2.0473348060
Ta            1.3079946651        7.3654207535        8.0884041097
Ta            4.0334317407        1.3138032516        2.0598275288
Ta            4.0378526651        1.3079845144        8.0969280974
Ta            4.0366277652        7.3762122662        2.0473407099
Ta            4.0329004990        7.3654170023        8.0883962729
Zr            2.6704404129        5.8668076430        3.5289191618
Zr            1.2413941716        4.3219715267        1.9991121243
Zr            1.2379540865        4.3542420324        8.1540954114
Zr            4.0996313055        4.3219411330        1.9989402557
Zr            4.1022245872        4.3543225338        8.1561526875
H             4.8467899399        4.3247177289        6.7112071223


     kinetic energy (Ekin) =           4.29876340 Ry
     temperature           =       20567.30483346 K 
     Ekin + Etot (const)   =       -2938.74690894 Ry
     Ions kinetic stress =           75.92 (kbar)
                                     41.66          -1.07          87.56
                                     -1.07           0.04          -2.25
                                     87.56          -2.25         186.06



     Linear momentum :   -0.0000000000    0.0000000000   -0.0000000000

     The maximum number of steps has been reached.

     End of molecular dynamics calculation

     diffusion coefficients :
     atom     1   D =       0.00000001 cm^2/s
     atom     2   D =       0.00000001 cm^2/s
     atom     3   D =       0.00000002 cm^2/s
     atom     4   D =       0.00000002 cm^2/s
     atom     5   D =       0.00000003 cm^2/s
     atom     6   D =       0.00000002 cm^2/s
     atom     7   D =       0.00000001 cm^2/s
     atom     8   D =       0.00000001 cm^2/s
     atom     9   D =       0.00000341 cm^2/s
     atom    10   D =       0.00000001 cm^2/s
     atom    11   D =       0.00000002 cm^2/s
     atom    12   D =       0.00000001 cm^2/s
     atom    13   D =       0.00000002 cm^2/s
     atom    14   D =       0.00000001 cm^2/s
     atom    15   D =       0.00000002 cm^2/s
     atom    16   D =       0.00000001 cm^2/s
     atom    17   D =       0.00000003 cm^2/s
     atom    18   D =       0.00000001 cm^2/s
     atom    19   D =       0.00000003 cm^2/s
     atom    20   D =       0.00000010 cm^2/s
     atom    21   D =       0.00000005 cm^2/s
     atom    22   D =       0.00000020 cm^2/s
     atom    23   D =       0.00051427 cm^2/s

     < D > =       0.00002254 cm^2/s

     Writing all to output data dir outdir/pwscf.save/

     init_run     :     10.87s CPU     11.99s WALL (       1 calls)
     electrons    :   2514.35s CPU   3006.89s WALL (      20 calls)
     update_pot   :     19.81s CPU     21.98s WALL (      19 calls)
     forces       :    221.43s CPU    252.83s WALL (      20 calls)
     stress       :    336.73s CPU    385.83s WALL (      20 calls)

     Called by init_run:
     wfcinit      :      8.23s CPU      9.01s WALL (       1 calls)
     potinit      :      0.46s CPU      0.52s WALL (       1 calls)
     hinit0       :      0.98s CPU      1.07s WALL (       1 calls)

     Called by electrons:
     c_bands      :   2020.98s CPU   2431.46s WALL (     102 calls)
     sum_band     :    325.57s CPU    381.72s WALL (     102 calls)
     v_of_rho     :     11.02s CPU     12.90s WALL (     122 calls)
     newd         :    185.89s CPU    215.10s WALL (     122 calls)
     mix_rho      :      1.03s CPU      1.32s WALL (     102 calls)

     Called by c_bands:
     init_us_2    :      3.91s CPU      4.01s WALL (     490 calls)
     init_us_2:cp :      3.90s CPU      4.01s WALL (     490 calls)
     regterg      :   2006.49s CPU   2413.35s WALL (     204 calls)

     Called by *egterg:
     rdiaghg      :     69.91s CPU     88.19s WALL (    1664 calls)
     h_psi        :   1046.56s CPU   1168.04s WALL (    1704 calls)
     s_psi        :    357.80s CPU    358.61s WALL (    1704 calls)
     g_psi        :      0.77s CPU      0.82s WALL (    1498 calls)

     Called by h_psi:
     h_psi:calbec :    508.65s CPU    592.77s WALL (    1704 calls)
     vloc_psi     :    106.76s CPU    142.79s WALL (    1704 calls)
     add_vuspsi   :    429.81s CPU    431.07s WALL (    1704 calls)

     General routines
     calbec       :    848.93s CPU   1002.77s WALL (    2108 calls)
     fft          :      9.22s CPU     26.10s WALL (    2529 calls)
     ffts         :      0.22s CPU      0.29s WALL (     102 calls)
     fftw         :    116.48s CPU    156.69s WALL (  107616 calls)

     Parallel routines

     PWSCF        :  52m13.34s CPU      1h 1m WALL


   This run was terminated on:  20:40:49  15Jun2023            

=------------------------------------------------------------------------------=
   JOB DONE.
=------------------------------------------------------------------------------=
