
     Program PWSCF v.7.2 starts on 15Jun2023 at 23:11:11 

     This program is part of the open-source Quantum ESPRESSO suite
     for quantum simulation of materials; please cite
         "P. Giannozzi et al., J. Phys.:Condens. Matter 21 395502 (2009);
         "P. Giannozzi et al., J. Phys.:Condens. Matter 29 465901 (2017);
         "P. Giannozzi et al., J. Chem. Phys. 152 154105 (2020);
          URL http://www.quantum-espresso.org", 
     in publications or presentations arising from this work. More details at
     http://www.quantum-espresso.org/quote

     Parallel version (MPI), running on    42 processors

     MPI processes distributed on     1 nodes
     173192 MiB available memory on the printing compute node when the environment starts

     Reading input from md_data/md_Hf5Nb2Ta10Zr5H_20steps_50eV_incident60_polar60.in
Warning: card &CELL ignored
Warning: card / ignored

     Current dimensions of program PWSCF are:
     Max number of different atomic species (ntypx) = 10
     Max number of k-points (npk) =  40000
     Max angular momentum in pseudopotentials (lmaxx) =  4

     File outdir/pwscf.md deleted, as requested

     gamma-point specific algorithms are used

     R & G space division:  proc/nbgrp/npool/nimage =      42
     Subspace diagonalization in iterative solution of the eigenvalue problem:
     one sub-group per band group will be used
     custom distributed-memory algorithm (size of sub-group:  2*  2 procs)


     Parallelization info
     --------------------
     sticks:   dense  smooth     PW     G-vecs:    dense   smooth      PW
     Min         262     262     63                23470    23470    2920
     Max         265     265     66                23484    23484    2942
     Sum       11057   11057   2753               986005   986005  123175

     Using Slab Decomposition



     bravais-lattice index     =            0
     lattice parameter (alat)  =      17.6500  a.u.
     unit-cell volume          =    5552.8853 (a.u.)^3
     number of atoms/cell      =           23
     number of atomic types    =            5
     number of electrons       =       277.00
     number of Kohn-Sham states=          167
     kinetic-energy cutoff     =     120.0000  Ry
     charge density cutoff     =     480.0000  Ry
     scf convergence threshold =      1.0E-03
     mixing beta               =       0.7000
     number of iterations used =            8  TF        mixing
     energy convergence thresh.=      0.0E+00
     force convergence thresh. =      0.0E+00
     Exchange-correlation=  SLA  PW   PBX  PBC
                           (   1   4   3   4   0   0   0)
     nstep                     =           20


     celldm(1)=  17.650041  celldm(2)=   0.000000  celldm(3)=   0.000000
     celldm(4)=   0.000000  celldm(5)=   0.000000  celldm(6)=   0.000000

     crystal axes: (cart. coord. in units of alat)
               a(1) = (   1.000000   0.000000   0.000000 )  
               a(2) = (   0.000000   0.929336   0.000000 )  
               a(3) = (   0.000000   0.000000   1.086698 )  

     reciprocal axes: (cart. coord. in units 2 pi/alat)
               b(1) = (  1.000000  0.000000  0.000000 )  
               b(2) = (  0.000000  1.076037  0.000000 )  
               b(3) = (  0.000000  0.000000  0.920219 )  


     PseudoPot. # 1 for Hf read from file:
     q-e/pseudo/hf_pbe_v1.uspp.F.UPF
     MD5 check sum: 8ee9378dfe14276e333edf04c5e4aa26
     Pseudo is Ultrasoft + core correction, Zval = 12.0
     Generated by new atomic code, or converted to UPF format
     Using radial grid of  921 points,  8 beta functions with: 
                l(1) =   0
                l(2) =   0
                l(3) =   0
                l(4) =   1
                l(5) =   1
                l(6) =   2
                l(7) =   2
                l(8) =   3
     Q(r) pseudized with  6 coefficients,  rinner =    1.200   1.200   1.200
                                                       1.200   1.200   1.200
                                                       1.200

     PseudoPot. # 2 for Nb read from file:
     q-e/pseudo/nb_pbe_v1.uspp.F.UPF
     MD5 check sum: 573aab8a2fa660278ed4a62cd769473f
     Pseudo is Ultrasoft + core correction, Zval = 13.0
     Generated by new atomic code, or converted to UPF format
     Using radial grid of  887 points,  6 beta functions with: 
                l(1) =   0
                l(2) =   0
                l(3) =   1
                l(4) =   1
                l(5) =   2
                l(6) =   2
     Q(r) pseudized with  6 coefficients,  rinner =    1.000   1.000   1.000
                                                       1.000   1.000

     PseudoPot. # 3 for Ta read from file:
     q-e/pseudo/ta_pbe_v1.uspp.F.UPF
     MD5 check sum: f8bbe9446314a3b8ea5d9f3e3836c939
     Pseudo is Ultrasoft + core correction, Zval = 13.0
     Generated by new atomic code, or converted to UPF format
     Using radial grid of  921 points,  7 beta functions with: 
                l(1) =   0
                l(2) =   0
                l(3) =   1
                l(4) =   1
                l(5) =   2
                l(6) =   2
                l(7) =   3
     Q(r) pseudized with  6 coefficients,  rinner =    1.300   1.300   1.300
                                                       1.300   1.300   1.300
                                                       1.300

     PseudoPot. # 4 for Zr read from file:
     q-e/pseudo/zr_pbe_v1.uspp.F.UPF
     MD5 check sum: 5db81b1e868ab7776c4564c113de050b
     Pseudo is Ultrasoft + core correction, Zval = 12.0
     Generated by new atomic code, or converted to UPF format
     Using radial grid of  887 points,  6 beta functions with: 
                l(1) =   0
                l(2) =   0
                l(3) =   1
                l(4) =   1
                l(5) =   2
                l(6) =   2
     Q(r) pseudized with  6 coefficients,  rinner =    1.200   1.200   1.200
                                                       1.200   1.200

     PseudoPot. # 5 for H  read from file:
     q-e/pseudo/h_pbe_v1.4.uspp.F.UPF
     MD5 check sum: 761ae9a214b05c3daf00ab9f6b793d6f
     Pseudo is Ultrasoft, Zval =  1.0
     Generated by new atomic code, or converted to UPF format
     Using radial grid of  615 points,  2 beta functions with: 
                l(1) =   0
                l(2) =   0
     Q(r) pseudized with  8 coefficients,  rinner =    0.700

     atomic species   valence    mass     pseudopotential
        Hf            12.00   178.49000     Hf( 1.00)
        Nb            13.00    92.90637     Nb( 1.00)
        Ta            13.00   180.94788     Ta( 1.00)
        Zr            12.00    91.22400     Zr( 1.00)
        H              1.00     2.01400     H ( 1.00)

     Starting magnetic structure 
     atomic species   magnetization
        Hf           0.000
        Nb           0.000
        Ta           0.000
        Zr           0.000
        H            0.000

     No symmetry found



   Cartesian axes

     site n.     atom                  positions (alat units)
         1           Hf  tau(   1) = (   0.2858672   0.3026898   0.7070626  )
         2           Hf  tau(   2) = (   0.1341532   0.1377178   0.5415917  )
         3           Hf  tau(   3) = (   0.1344204   0.7911996   0.5447610  )
         4           Hf  tau(   4) = (   0.4375813   0.1377178   0.5415917  )
         5           Hf  tau(   5) = (   0.4373140   0.7911996   0.5447610  )
         6           Nb  tau(   6) = (   0.2858672   0.2994572   0.3764008  )
         7           Nb  tau(   7) = (   0.2858672   0.6291626   0.7103852  )
         8           Ta  tau(   8) = (   0.1294832   0.4647675   0.5429471  )
         9           Ta  tau(   9) = (   0.4422513   0.4647675   0.5429471  )
        10           Ta  tau(  10) = (   0.1399628   0.1406984   0.2204260  )
        11           Ta  tau(  11) = (   0.1394848   0.1400847   0.8666573  )
        12           Ta  tau(  12) = (   0.1396156   0.7897030   0.2190832  )
        13           Ta  tau(  13) = (   0.1400119   0.7885528   0.8657390  )
        14           Ta  tau(  14) = (   0.4317717   0.1406984   0.2204260  )
        15           Ta  tau(  15) = (   0.4322496   0.1400847   0.8666573  )
        16           Ta  tau(  16) = (   0.4321189   0.7897030   0.2190832  )
        17           Ta  tau(  17) = (   0.4317226   0.7885528   0.8657390  )
        18           Zr  tau(  18) = (   0.2858672   0.6280820   0.3776642  )
        19           Zr  tau(  19) = (   0.1331729   0.4627493   0.2141328  )
        20           Zr  tau(  20) = (   0.1328036   0.4661802   0.8725649  )
        21           Zr  tau(  21) = (   0.4385616   0.4627493   0.2141328  )
        22           Zr  tau(  22) = (   0.4389309   0.4661802   0.8725649  )
        23           H   tau(  23) = (   0.5493177   0.5573903   0.7036595  )

     number of k points=     1  Gaussian smearing, width (Ry)=  0.0220
                       cart. coord. in units 2pi/alat
        k(    1) = (   0.0000000   0.0000000   0.0000000), wk =   1.0000000

     Dense  grid:   493003 G-vectors     FFT dimensions: ( 125, 120, 135)

     Estimated max dynamical RAM per process >     133.03 MB

     Estimated total dynamical RAM >       5.46 GB

     Check: negative core charge=   -0.000002
     Generating pointlists ...
     new r_m :   0.1117 (alat units)  1.9717 (a.u.) for type    1
     new r_m :   0.1098 (alat units)  1.9374 (a.u.) for type    2
     new r_m :   0.0883 (alat units)  1.5593 (a.u.) for type    3
     new r_m :   0.0913 (alat units)  1.6122 (a.u.) for type    4
     new r_m :   0.0883 (alat units)  1.5593 (a.u.) for type    5

     Initial potential from superposition of free atoms

     starting charge     266.9726, renormalised to     277.0000

     negative rho (up, down):  9.216E-01 9.216E-01
     Starting wfcs are  287 randomized atomic wfcs

     total cpu time spent up to now is       12.2 secs

     Self-consistent Calculation

     iteration #  1     ecut=   120.00 Ry     beta= 0.70
     Davidson diagonalization with overlap
     ethr =  1.00E-02,  avg # of iterations =  2.0

     negative rho (up, down):  9.968E-01 9.965E-01

     total cpu time spent up to now is       49.1 secs

     total energy              =   -2930.55643073 Ry
     estimated scf accuracy    <     276.66563015 Ry

     total magnetization       =    -0.00 Bohr mag/cell
     absolute magnetization    =     0.09 Bohr mag/cell

     iteration #  2     ecut=   120.00 Ry     beta= 0.70
     Davidson diagonalization with overlap
     ethr =  1.00E-02,  avg # of iterations =  5.0

     negative rho (up, down):  9.678E-01 9.679E-01

     total cpu time spent up to now is       93.8 secs

     total energy              =   -2942.26506274 Ry
     estimated scf accuracy    <      29.78674296 Ry

     total magnetization       =    -0.14 Bohr mag/cell
     absolute magnetization    =     0.42 Bohr mag/cell

     iteration #  3     ecut=   120.00 Ry     beta= 0.70
     Davidson diagonalization with overlap
     ethr =  1.00E-02,  avg # of iterations =  2.0

     negative rho (up, down):  1.001E+00 1.004E+00

     total cpu time spent up to now is      113.0 secs

     total energy              =   -2942.70742727 Ry
     estimated scf accuracy    <      12.68416279 Ry

     total magnetization       =    -0.13 Bohr mag/cell
     absolute magnetization    =     0.52 Bohr mag/cell

     iteration #  4     ecut=   120.00 Ry     beta= 0.70
     Davidson diagonalization with overlap
     ethr =  4.58E-03,  avg # of iterations =  3.0

     negative rho (up, down):  1.008E+00 1.009E+00

     total cpu time spent up to now is      131.1 secs

     total energy              =   -2942.93172370 Ry
     estimated scf accuracy    <       3.07539187 Ry

     total magnetization       =    -0.15 Bohr mag/cell
     absolute magnetization    =     0.50 Bohr mag/cell

     iteration #  5     ecut=   120.00 Ry     beta= 0.70
     Davidson diagonalization with overlap
     ethr =  1.11E-03,  avg # of iterations =  7.5

     negative rho (up, down):  9.845E-01 9.855E-01

     total cpu time spent up to now is      154.6 secs

     total energy              =   -2943.09756823 Ry
     estimated scf accuracy    <       1.71903089 Ry

     total magnetization       =    -0.10 Bohr mag/cell
     absolute magnetization    =     0.26 Bohr mag/cell

     iteration #  6     ecut=   120.00 Ry     beta= 0.70
     Davidson diagonalization with overlap
     ethr =  6.21E-04,  avg # of iterations =  2.0

     negative rho (up, down):  9.704E-01 9.710E-01

     total cpu time spent up to now is      171.5 secs

     total energy              =   -2943.13715260 Ry
     estimated scf accuracy    <       0.93446855 Ry

     total magnetization       =    -0.07 Bohr mag/cell
     absolute magnetization    =     0.19 Bohr mag/cell

     iteration #  7     ecut=   120.00 Ry     beta= 0.70
     Davidson diagonalization with overlap
     ethr =  3.37E-04,  avg # of iterations =  2.0

     negative rho (up, down):  9.428E-01 9.433E-01

     total cpu time spent up to now is      201.7 secs

     total energy              =   -2943.08936574 Ry
     estimated scf accuracy    <       0.37375253 Ry

     total magnetization       =    -0.07 Bohr mag/cell
     absolute magnetization    =     0.16 Bohr mag/cell

     iteration #  8     ecut=   120.00 Ry     beta= 0.70
     Davidson diagonalization with overlap
     ethr =  1.35E-04,  avg # of iterations =  3.0

     negative rho (up, down):  9.188E-01 9.190E-01

     total cpu time spent up to now is      239.1 secs

     total energy              =   -2943.08859986 Ry
     estimated scf accuracy    <       0.17393915 Ry

     total magnetization       =    -0.06 Bohr mag/cell
     absolute magnetization    =     0.12 Bohr mag/cell

     iteration #  9     ecut=   120.00 Ry     beta= 0.70
     Davidson diagonalization with overlap
     ethr =  6.28E-05,  avg # of iterations = 12.0

     negative rho (up, down):  9.076E-01 9.076E-01

     total cpu time spent up to now is      268.2 secs

     total energy              =   -2943.08574256 Ry
     estimated scf accuracy    <       0.05493802 Ry

     total magnetization       =    -0.05 Bohr mag/cell
     absolute magnetization    =     0.08 Bohr mag/cell

     iteration # 10     ecut=   120.00 Ry     beta= 0.70
     Davidson diagonalization with overlap
     ethr =  1.98E-05,  avg # of iterations =  5.0

     negative rho (up, down):  9.085E-01 9.085E-01

     total cpu time spent up to now is      287.6 secs

     total energy              =   -2943.08828703 Ry
     estimated scf accuracy    <       0.03605194 Ry

     total magnetization       =    -0.04 Bohr mag/cell
     absolute magnetization    =     0.06 Bohr mag/cell

     iteration # 11     ecut=   120.00 Ry     beta= 0.70
     Davidson diagonalization with overlap
     ethr =  1.30E-05,  avg # of iterations =  5.0

     negative rho (up, down):  9.090E-01 9.090E-01

     total cpu time spent up to now is      305.3 secs

     total energy              =   -2943.09271327 Ry
     estimated scf accuracy    <       0.00615486 Ry

     total magnetization       =    -0.04 Bohr mag/cell
     absolute magnetization    =     0.05 Bohr mag/cell

     iteration # 12     ecut=   120.00 Ry     beta= 0.70
     Davidson diagonalization with overlap
     c_bands:  1 eigenvalues not converged
     c_bands:  1 eigenvalues not converged
     ethr =  2.22E-06,  avg # of iterations = 20.0

     negative rho (up, down):  9.091E-01 9.091E-01

     total cpu time spent up to now is      331.5 secs

     total energy              =   -2943.09490536 Ry
     estimated scf accuracy    <       0.00200725 Ry

     total magnetization       =    -0.04 Bohr mag/cell
     absolute magnetization    =     0.05 Bohr mag/cell

     iteration # 13     ecut=   120.00 Ry     beta= 0.70
     Davidson diagonalization with overlap
     ethr =  7.25E-07,  avg # of iterations =  3.0

     negative rho (up, down):  9.088E-01 9.088E-01

     Magnetic moment per site  (integrated on atomic sphere of radius R)
     atom   1 (R=0.112)  charge=  9.4636  magn= -0.0002
     atom   2 (R=0.112)  charge=  9.0581  magn=  0.0001
     atom   3 (R=0.112)  charge=  9.0568  magn= -0.0001
     atom   4 (R=0.112)  charge=  9.0584  magn= -0.0000
     atom   5 (R=0.112)  charge=  9.0669  magn= -0.0002
     atom   6 (R=0.110)  charge= 10.3486  magn=  0.0000
     atom   7 (R=0.110)  charge= 10.3554  magn= -0.0001
     atom   8 (R=0.088)  charge=  8.1283  magn= -0.0001
     atom   9 (R=0.088)  charge=  8.1312  magn= -0.0001
     atom  10 (R=0.088)  charge=  8.1074  magn= -0.0004
     atom  11 (R=0.088)  charge=  8.1060  magn= -0.0002
     atom  12 (R=0.088)  charge=  8.1088  magn= -0.0007
     atom  13 (R=0.088)  charge=  8.1054  magn=  0.0000
     atom  14 (R=0.088)  charge=  8.1071  magn= -0.0005
     atom  15 (R=0.088)  charge=  8.1027  magn= -0.0003
     atom  16 (R=0.088)  charge=  8.1058  magn= -0.0013
     atom  17 (R=0.088)  charge=  8.1123  magn= -0.0009
     atom  18 (R=0.091)  charge=  7.7809  magn=  0.0001
     atom  19 (R=0.091)  charge=  7.5871  magn= -0.0008
     atom  20 (R=0.091)  charge=  7.5854  magn=  0.0000
     atom  21 (R=0.091)  charge=  7.5842  magn= -0.0011
     atom  22 (R=0.091)  charge=  7.5910  magn= -0.0002
     atom  23 (R=0.088)  charge=  1.0963  magn=  0.0000

     total cpu time spent up to now is      362.2 secs

     End of self-consistent calculation

 ------ SPIN UP ------------


          k = 0.0000 0.0000 0.0000 ( 61588 PWs)   bands (ev):

   -60.7848 -60.7637 -60.7373 -60.7194 -60.6872 -60.6841 -60.6408 -60.6405
   -60.5387 -60.5038 -54.3908 -54.3412 -54.2535 -54.2078 -52.6832 -46.3320
   -46.2461 -41.5980 -41.5881 -41.4841 -41.4788 -39.7917 -27.7810 -27.7604
   -27.6911 -27.6761 -27.5969 -27.5735 -27.4528 -27.4422 -27.4180 -27.3377
   -27.3124 -27.2706 -27.2556 -27.2377 -27.2173 -27.1712 -27.1636 -27.1506
   -27.1212 -27.1133 -27.0770 -27.0328 -26.9595 -26.9438 -26.9390 -26.9188
   -26.8822 -26.8638 -26.8382 -26.8374 -24.1708 -23.9640 -23.6595 -23.5733
   -23.3113 -23.2076 -23.1719 -23.0681 -22.9307 -22.8713 -22.8415 -22.6223
   -22.5403 -22.4611 -22.4082 -22.4038 -22.2691 -22.2414 -21.7456 -21.6813
   -21.6125 -20.1607 -19.8821 -19.7997 -19.7781 -19.5992 -19.5648 -19.5591
   -19.5385 -19.5271 -19.4867 -19.3287 -19.2998 -18.1352 -17.9339 -17.8011
     1.1355   2.0991   2.9542   3.1396   3.3132   3.3578   3.4897   3.6321
     3.6888   3.7504   3.9229   4.0244   4.2125   4.5064   4.5713   4.7163
     4.7639   4.9220   5.0604   5.1249   5.1634   5.2711   5.3031   5.3225
     5.4022   5.5501   5.5712   5.7147   5.7349   5.7595   5.7854   5.8260
     5.9596   6.0689   6.1583   6.2139   6.2807   6.3416   6.3679   6.3916
     6.4556   6.5905   6.6748   6.7078   6.9238   6.9857   7.0397   7.1014
     7.1220   7.1616   7.2784   7.3147   7.3941   7.5121   7.5198   7.6022
     7.6424   7.7714   7.9033   7.9970   8.0750   8.1061   8.1339   8.1679
     8.2525   8.3068   8.3396   8.3735   8.5039   8.5296   8.6199   8.7451
     8.8238   8.9294   8.9811   9.0730   9.1826   9.2627   9.2846

 ------ SPIN DOWN ----------


          k = 0.0000 0.0000 0.0000 ( 61588 PWs)   bands (ev):

   -60.7850 -60.7644 -60.7378 -60.7201 -60.6880 -60.6844 -60.6415 -60.6407
   -60.5388 -60.5040 -54.3908 -54.3412 -54.2535 -54.2078 -52.6834 -46.3321
   -46.2462 -41.5980 -41.5894 -41.4854 -41.4790 -39.7917 -27.7815 -27.7615
   -27.6915 -27.6773 -27.5974 -27.5745 -27.4533 -27.4433 -27.4182 -27.3381
   -27.3130 -27.2710 -27.2564 -27.2379 -27.2178 -27.1715 -27.1640 -27.1510
   -27.1214 -27.1137 -27.0773 -27.0329 -26.9601 -26.9443 -26.9400 -26.9200
   -26.8827 -26.8651 -26.8389 -26.8381 -24.1709 -23.9641 -23.6596 -23.5733
   -23.3113 -23.2078 -23.1720 -23.0682 -22.9308 -22.8713 -22.8415 -22.6223
   -22.5402 -22.4612 -22.4084 -22.4040 -22.2692 -22.2415 -21.7458 -21.6815
   -21.6126 -20.1620 -19.8818 -19.8009 -19.7794 -19.5992 -19.5653 -19.5598
   -19.5389 -19.5284 -19.4870 -19.3305 -19.2998 -18.1353 -17.9340 -17.8012
     1.1350   2.0986   2.9529   3.1393   3.3127   3.3571   3.4886   3.6317
     3.6884   3.7497   3.9215   4.0236   4.2117   4.5060   4.5708   4.7152
     4.7632   4.9214   5.0591   5.1244   5.1625   5.2704   5.3024   5.3218
     5.4010   5.5496   5.5705   5.7140   5.7345   5.7585   5.7847   5.8252
     5.9592   6.0682   6.1573   6.2132   6.2803   6.3410   6.3671   6.3907
     6.4545   6.5899   6.6740   6.7073   6.9227   6.9844   7.0368   7.0999
     7.1183   7.1601   7.2758   7.3139   7.3900   7.5088   7.5181   7.6010
     7.6410   7.7706   7.9025   7.9959   8.0735   8.1043   8.1330   8.1665
     8.2491   8.3060   8.3385   8.3717   8.5026   8.5286   8.6189   8.7441
     8.8229   8.9269   8.9797   9.0726   9.1819   9.2622   9.2847

     the Fermi energy is     7.2697 ev

!    total energy              =   -2943.09602298 Ry
     estimated scf accuracy    <       0.00045696 Ry
     smearing contrib. (-TS)   =      -0.10032792 Ry
     internal energy E=F+TS    =   -2942.99569506 Ry

     total magnetization       =    -0.03 Bohr mag/cell
     absolute magnetization    =     0.04 Bohr mag/cell

     convergence has been achieved in  13 iterations

     negative rho (up, down):  9.088E-01 9.088E-01

     Forces acting on atoms (cartesian axes, Ry/au):

     atom    1 type  1   force =    -0.00252785   -0.02685111   -0.00235200
     atom    2 type  1   force =    -0.11482854   -0.01398327   -0.00302794
     atom    3 type  1   force =    -0.10817639    0.01218952    0.00192986
     atom    4 type  1   force =     0.11388346   -0.01433172   -0.00812692
     atom    5 type  1   force =     0.10988997    0.01619100   -0.00327833
     atom    6 type  2   force =    -0.00726206   -0.01896197    0.00599853
     atom    7 type  2   force =    -0.01881397    0.00819796   -0.01380730
     atom    8 type  3   force =    -0.10481670    0.00519849   -0.00458597
     atom    9 type  3   force =     0.11735301   -0.00773223    0.00489844
     atom   10 type  3   force =    -0.02171647   -0.03264258   -0.05838806
     atom   11 type  3   force =    -0.01994952   -0.03426208    0.05567130
     atom   12 type  3   force =    -0.02028710    0.03701529   -0.05412032
     atom   13 type  3   force =    -0.00597615    0.03007519    0.06289171
     atom   14 type  3   force =     0.02272451   -0.03070354   -0.05675967
     atom   15 type  3   force =     0.02082812   -0.03904720    0.05936537
     atom   16 type  3   force =     0.01901185    0.03756428   -0.05037513
     atom   17 type  3   force =     0.01028433    0.04386167    0.06240525
     atom   18 type  4   force =    -0.00045354    0.02813231   -0.00602512
     atom   19 type  4   force =    -0.13084363   -0.00519661   -0.11594354
     atom   20 type  4   force =    -0.12874055    0.00791725    0.11656827
     atom   21 type  4   force =     0.13075237   -0.00795577   -0.11371276
     atom   22 type  4   force =     0.13652450   -0.00346167    0.11821208
     atom   23 type  5   force =     0.00314034    0.00878678    0.00256227
     The non-local contrib.  to forces
     atom    1 type  1   force =     0.00317468   -0.01359911    0.02571305
     atom    2 type  1   force =    -0.24582488   -0.16417717    0.01376586
     atom    3 type  1   force =    -0.23835215    0.15588547   -0.01915003
     atom    4 type  1   force =     0.24454109   -0.16028267    0.02583677
     atom    5 type  1   force =     0.26607150    0.12313291    0.01429454
     atom    6 type  2   force =     0.00723309   -0.04807996   -0.05996954
     atom    7 type  2   force =    -0.00616998    0.08192176    0.05848841
     atom    8 type  3   force =    -0.25794078    0.00762947    0.00387643
     atom    9 type  3   force =     0.22536894    0.01183156    0.00536523
     atom   10 type  3   force =    -0.21068740    0.00541882   -0.20400978
     atom   11 type  3   force =    -0.21485643    0.00388768    0.19521099
     atom   12 type  3   force =    -0.20691965   -0.02103888   -0.17399645
     atom   13 type  3   force =    -0.20450316   -0.00500551    0.20107858
     atom   14 type  3   force =     0.21435137    0.00534523   -0.21378436
     atom   15 type  3   force =     0.22441369    0.00553402    0.18147900
     atom   16 type  3   force =     0.19911140   -0.01824122   -0.18437394
     atom   17 type  3   force =     0.24875500   -0.04265126    0.14209845
     atom   18 type  4   force =    -0.00094238    0.05657984   -0.05934042
     atom   19 type  4   force =     0.05768513    0.00906509    0.07598503
     atom   20 type  4   force =     0.04868096   -0.02078872   -0.06441953
     atom   21 type  4   force =    -0.05863483    0.02168785    0.07463277
     atom   22 type  4   force =    -0.04944244   -0.01643461   -0.07288435
     atom   23 type  5   force =    -0.03189867   -0.01962074   -0.00393566
     The ionic contribution  to forces
     atom    1 type  1   force =    -0.34101311   -4.86780434   13.95545786
     atom    2 type  1   force =   -39.71472047   -6.14001249    0.70899070
     atom    3 type  1   force =   -39.73514284    6.20092903   -0.81617103
     atom    4 type  1   force =    39.56230227   -6.20522005    0.63293309
     atom    5 type  1   force =    39.34505122    6.63985664   -1.12937929
     atom    6 type  2   force =    -0.13096895   -3.62869221  -14.01612728
     atom    7 type  2   force =    -0.97077854    3.82582847   13.90115045
     atom    8 type  3   force =   -52.23767004    0.00239857   -0.20931297
     atom    9 type  3   force =    51.19728256   -0.67638903   -1.39490870
     atom   10 type  3   force =   -36.06842608   -2.09268583  -23.04651854
     atom   11 type  3   force =   -35.17993693   -0.86430730   22.09978026
     atom   12 type  3   force =   -35.26211437    0.82364233  -22.10841743
     atom   13 type  3   force =   -36.13545394    2.27817407   23.11360046
     atom   14 type  3   force =    35.99798961   -2.10380935  -23.06732446
     atom   15 type  3   force =    35.00699583   -0.93649438   22.18098716
     atom   16 type  3   force =    35.16653217    0.86309557  -22.15015663
     atom   17 type  3   force =    35.69622241    2.73472393   23.44933682
     atom   18 type  4   force =    -0.19907272    4.38756524  -14.06652931
     atom   19 type  4   force =   -35.91889525    0.93446198  -25.50949633
     atom   20 type  4   force =   -36.01464077   -1.01627023   25.58793850
     atom   21 type  4   force =    35.81524221    0.91002962  -25.56631556
     atom   22 type  4   force =    35.10879240   -1.56601143   26.61308252
     atom   23 type  5   force =     5.01242332    0.49699116    0.83739971
     The local contribution  to forces
     atom    1 type  1   force =     0.33178264    4.85127660  -13.99003150
     atom    2 type  1   force =    39.86744886    6.28890781   -0.72583588
     atom    3 type  1   force =    39.88699927   -6.34253473    0.83698396
     atom    4 type  1   force =   -39.71764103    6.35030780   -0.67185415
     atom    5 type  1   force =   -39.52675785   -6.74364605    1.10759961
     atom    6 type  2   force =     0.11519068    3.64923190   14.08879408
     atom    7 type  2   force =     0.95489583   -3.89548734  -13.98212507
     atom    8 type  3   force =    52.42526641   -0.00657600    0.19936486
     atom    9 type  3   force =   -51.33397877    0.65775009    1.39766633
     atom   10 type  3   force =    36.27950105    2.04182407   23.21415013
     atom   11 type  3   force =    35.39953947    0.81695740  -22.26389279
     atom   12 type  3   force =    35.46997154   -0.74991078   22.25026955
     atom   13 type  3   force =    36.35563900   -2.22844091  -23.27367378
     atom   14 type  3   force =   -36.21505197    2.05483924   23.24765318
     atom   15 type  3   force =   -35.24422491    0.88376603  -22.32562164
     atom   16 type  3   force =   -35.37231246   -0.79024882   22.30850929
     atom   17 type  3   force =   -35.96490830   -2.63757179  -23.54704576
     atom   18 type  4   force =     0.19725740   -4.41011689   14.12744621
     atom   19 type  4   force =    35.73292489   -0.95082455   25.33669667
     atom   20 type  4   force =    35.84275406    1.04050310  -25.42381123
     atom   21 type  4   force =   -35.63222260   -0.94223005   25.39918070
     atom   22 type  4   force =   -34.93141420    1.57605748  -26.44297664
     atom   23 type  5   force =    -4.97773611   -0.46891222   -0.83191110
     The core correction contribution to forces
     atom    1 type  1   force =     0.00097894    0.00138844   -0.00054111
     atom    2 type  1   force =    -0.01192881   -0.00189765    0.00009441
     atom    3 type  1   force =    -0.01245078    0.00221818   -0.00125600
     atom    4 type  1   force =     0.01288302   -0.00134656    0.00267199
     atom    5 type  1   force =     0.01497525    0.00005051    0.00147559
     atom    6 type  2   force =    -0.00046670    0.00223307    0.00246169
     atom    7 type  2   force =     0.00123841   -0.00431878   -0.00233675
     atom    8 type  3   force =    -0.03167938    0.00107755    0.00026826
     atom    9 type  3   force =     0.02489237   -0.00175549   -0.00318098
     atom   10 type  3   force =    -0.02207566    0.00942168   -0.01609142
     atom   11 type  3   force =    -0.02326740    0.00897125    0.01771804
     atom   12 type  3   force =    -0.02136701   -0.00961332   -0.01531345
     atom   13 type  3   force =    -0.02123738   -0.00974866    0.01599610
     atom   14 type  3   force =     0.02137760    0.00949704   -0.01609550
     atom   15 type  3   force =     0.02481538    0.00914725    0.01588090
     atom   16 type  3   force =     0.02139158   -0.00942366   -0.01645144
     atom   17 type  3   force =     0.02468849   -0.00901422    0.01233379
     atom   18 type  4   force =     0.00008533   -0.00290395    0.00291125
     atom   19 type  4   force =    -0.00958425    0.00002446   -0.00969778
     atom   20 type  4   force =    -0.00905736    0.00077911    0.00907993
     atom   21 type  4   force =     0.00956619   -0.00062900   -0.00966472
     atom   22 type  4   force =     0.00835060    0.00034249    0.01006346
     atom   23 type  5   force =     0.00000000    0.00000000    0.00000000
     The Hubbard contrib.    to forces
     atom    1 type  1   force =     0.00000000    0.00000000    0.00000000
     atom    2 type  1   force =     0.00000000    0.00000000    0.00000000
     atom    3 type  1   force =     0.00000000    0.00000000    0.00000000
     atom    4 type  1   force =     0.00000000    0.00000000    0.00000000
     atom    5 type  1   force =     0.00000000    0.00000000    0.00000000
     atom    6 type  2   force =     0.00000000    0.00000000    0.00000000
     atom    7 type  2   force =     0.00000000    0.00000000    0.00000000
     atom    8 type  3   force =     0.00000000    0.00000000    0.00000000
     atom    9 type  3   force =     0.00000000    0.00000000    0.00000000
     atom   10 type  3   force =     0.00000000    0.00000000    0.00000000
     atom   11 type  3   force =     0.00000000    0.00000000    0.00000000
     atom   12 type  3   force =     0.00000000    0.00000000    0.00000000
     atom   13 type  3   force =     0.00000000    0.00000000    0.00000000
     atom   14 type  3   force =     0.00000000    0.00000000    0.00000000
     atom   15 type  3   force =     0.00000000    0.00000000    0.00000000
     atom   16 type  3   force =     0.00000000    0.00000000    0.00000000
     atom   17 type  3   force =     0.00000000    0.00000000    0.00000000
     atom   18 type  4   force =     0.00000000    0.00000000    0.00000000
     atom   19 type  4   force =     0.00000000    0.00000000    0.00000000
     atom   20 type  4   force =     0.00000000    0.00000000    0.00000000
     atom   21 type  4   force =     0.00000000    0.00000000    0.00000000
     atom   22 type  4   force =     0.00000000    0.00000000    0.00000000
     atom   23 type  5   force =     0.00000000    0.00000000    0.00000000
     The SCF correction term to forces
     atom    1 type  1   force =     0.00238120    0.00189130    0.00690520
     atom    2 type  1   force =    -0.00997104    0.00320022   -0.00018751
     atom    3 type  1   force =    -0.00939768   -0.00430444    0.00137848
     atom    4 type  1   force =     0.01163029    0.00221374    0.00214089
     atom    5 type  1   force =     0.01038205   -0.00319901    0.00258675
     atom    6 type  2   force =     0.00158202    0.00634922   -0.00930490
     atom    7 type  2   force =     0.00183251    0.00025785    0.01087119
     atom    8 type  3   force =    -0.00296070    0.00067290    0.00107298
     atom    9 type  3   force =     0.00362012    0.00083462   -0.00018792
     atom   10 type  3   force =    -0.00019618    0.00338268   -0.00606293
     atom   11 type  3   force =    -0.00159602    0.00023287    0.00671032
     atom   12 type  3   force =    -0.00002541   -0.00606007   -0.00680704
     atom   13 type  3   force =    -0.00058847   -0.00489980    0.00574587
     atom   14 type  3   force =     0.00389011    0.00342829   -0.00735301
     atom   15 type  3   force =     0.00866034   -0.00099613    0.00649547
     atom   16 type  3   force =     0.00412137   -0.00761360   -0.00804688
     atom   17 type  3   force =     0.00535894   -0.00162100    0.00553747
     atom   18 type  4   force =     0.00205103   -0.00298793   -0.01065733
     atom   19 type  4   force =     0.00685806    0.00208039   -0.00957561
     atom   20 type  4   force =     0.00335476    0.00369799    0.00763612
     atom   21 type  4   force =    -0.00336640    0.00318980   -0.01169044
     atom   22 type  4   force =     0.00007034    0.00258840    0.01078261
     atom   23 type  5   force =     0.00018400    0.00033258    0.00086485

     Total force =     0.491519     Total SCF correction =     0.045741


     Computing stress (Cartesian axis) and pressure


     negative rho (up, down):  9.088E-01 9.088E-01
          total   stress  (Ry/bohr**3)                   (kbar)     P=       82.96
   0.00063978   0.00000085   0.00000748           94.12        0.12        1.10
   0.00000085   0.00065931  -0.00000644            0.12       96.99       -0.95
   0.00000748  -0.00000644   0.00039269            1.10       -0.95       57.77


     Molecular Dynamics Calculation

     Starting temperature  =   300.00 K

     temperature is set once at start

     mass Hf               =   178.49
     mass Nb               =    92.91
     mass Ta               =   180.95
     mass Zr               =    91.22
     mass H                =     2.01
     Time step             =     4.20 a.u.,  0.2032 femto-seconds

     Entering Dynamics:    iteration =     1
                           time      =   0.0002 pico-seconds


ATOMIC_POSITIONS (angstrom)
Hf            2.6700443271        2.8271607481        6.6040308151
Hf            1.2530318284        1.2863222695        5.0585328032
Hf            1.2555282377        7.3898431338        5.0881344867
Hf            4.0870569437        1.2863222595        5.0585326569
Hf            4.0845606107        7.3898432486        5.0881343373
Nb            2.6700439994        2.7969680496        3.5156502113
Nb            2.6700433626        5.8764176175        6.6350638461
Ta            1.2094145323        4.3409664880        5.0711923665
Ta            4.1306746217        4.3409661221        5.0711926349
Ta            1.3072965122        1.3141601549        2.0588441217
Ta            1.3028321923        1.3084286557        8.0946474418
Ta            1.3040534906        7.3758656609        2.0463023121
Ta            1.3077550719        7.3651222888        8.0860706646
Ta            4.0327923156        1.3141602098        2.0588441677
Ta            4.0372566319        1.3084285203        8.0946475464
Ta            4.0360352726        7.3758656765        2.0463024181
Ta            4.0323338493        7.3651226790        8.0860706508
Zr            2.6700443742        5.8663259119        3.5274502561
Zr            1.2438717168        4.3221161621        2.0000601555
Zr            1.2404226285        4.3541622182        8.1498287568
Zr            4.0962170774        4.3221160072        2.0000602807
Zr            4.0996666077        4.3541615795        8.1498288490
H             5.0568463641        5.1421435856        6.4615035918


     kinetic energy (Ekin) =           4.04912263 Ry
     temperature           =       19372.90602187 K 
     Ekin + Etot (const)   =       -2939.04690035 Ry
     Ions kinetic stress =           71.51 (kbar)
                                     53.63          46.45          80.45
                                     46.45          40.23          69.67
                                     80.45          69.67         120.68



     Linear momentum :   -0.0000000000    0.0000000000    0.0000000000

     File outdir/pwscf.msd.dat deleted, as requested

     Writing config-only to output data dir outdir/pwscf.save/
     NEW-OLD atomic charge density approx. for the potential

     Check: negative core charge=   -0.000002

     negative rho (up, down):  9.088E-01 9.088E-01
     Generating pointlists ...
     new r_m :   0.0818 (alat units)  1.4442 (a.u.) for type    3
     new r_m :   0.0818 (alat units)  1.4442 (a.u.) for type    5

     total cpu time spent up to now is      422.2 secs

     Self-consistent Calculation

     iteration #  1     ecut=   120.00 Ry     beta= 0.70
     Davidson diagonalization with overlap
     ethr =  1.00E-06,  avg # of iterations = 16.0

     negative rho (up, down):  9.087E-01 9.087E-01

     total cpu time spent up to now is      453.7 secs

     total energy              =   -2943.08896027 Ry
     estimated scf accuracy    <       0.01606672 Ry

     total magnetization       =    -0.03 Bohr mag/cell
     absolute magnetization    =     0.04 Bohr mag/cell

     iteration #  2     ecut=   120.00 Ry     beta= 0.70
     Davidson diagonalization with overlap
     ethr =  5.80E-06,  avg # of iterations =  2.0

     negative rho (up, down):  9.088E-01 9.088E-01

     total cpu time spent up to now is      471.1 secs

     total energy              =   -2943.09005137 Ry
     estimated scf accuracy    <       0.00379826 Ry

     total magnetization       =    -0.03 Bohr mag/cell
     absolute magnetization    =     0.04 Bohr mag/cell

     iteration #  3     ecut=   120.00 Ry     beta= 0.70
     Davidson diagonalization with overlap
     ethr =  1.37E-06,  avg # of iterations =  1.5

     negative rho (up, down):  9.089E-01 9.089E-01

     Magnetic moment per site  (integrated on atomic sphere of radius R)
     atom   1 (R=0.112)  charge=  9.4636  magn= -0.0001
     atom   2 (R=0.112)  charge=  9.0560  magn=  0.0000
     atom   3 (R=0.112)  charge=  9.0558  magn= -0.0001
     atom   4 (R=0.112)  charge=  9.0581  magn=  0.0000
     atom   5 (R=0.112)  charge=  9.0652  magn= -0.0003
     atom   6 (R=0.110)  charge= 10.3489  magn= -0.0000
     atom   7 (R=0.110)  charge= 10.3554  magn= -0.0001
     atom   8 (R=0.082)  charge=  7.4405  magn= -0.0001
     atom   9 (R=0.082)  charge=  7.4446  magn= -0.0001
     atom  10 (R=0.082)  charge=  7.4190  magn= -0.0003
     atom  11 (R=0.082)  charge=  7.4206  magn= -0.0002
     atom  12 (R=0.082)  charge=  7.4192  magn= -0.0006
     atom  13 (R=0.082)  charge=  7.4208  magn= -0.0001
     atom  14 (R=0.082)  charge=  7.4199  magn= -0.0004
     atom  15 (R=0.082)  charge=  7.4219  magn= -0.0003
     atom  16 (R=0.082)  charge=  7.4190  magn= -0.0010
     atom  17 (R=0.082)  charge=  7.4292  magn= -0.0006
     atom  18 (R=0.091)  charge=  7.7810  magn=  0.0000
     atom  19 (R=0.091)  charge=  7.5875  magn= -0.0007
     atom  20 (R=0.091)  charge=  7.5839  magn=  0.0001
     atom  21 (R=0.091)  charge=  7.5851  magn= -0.0008
     atom  22 (R=0.091)  charge=  7.5911  magn= -0.0002
     atom  23 (R=0.082)  charge=  1.0267  magn= -0.0000

     total cpu time spent up to now is      487.2 secs

     End of self-consistent calculation

 ------ SPIN UP ------------


          k = 0.0000 0.0000 0.0000 ( 61588 PWs)   bands (ev):

   -60.7692 -60.7377 -60.7240 -60.6924 -60.6726 -60.6614 -60.6244 -60.6128
   -60.5180 -60.4078 -54.3766 -54.3304 -54.2418 -54.1966 -52.6747 -46.3184
   -46.2342 -41.5813 -41.5792 -41.4907 -41.4737 -39.7819 -27.7678 -27.7354
   -27.6762 -27.6500 -27.5813 -27.5473 -27.4358 -27.4175 -27.3829 -27.3203
   -27.2874 -27.2575 -27.2300 -27.2201 -27.1955 -27.1477 -27.1321 -27.1269
   -27.0864 -27.0608 -27.0196 -26.9766 -26.9453 -26.9317 -26.9128 -26.8938
   -26.8665 -26.8373 -26.8248 -26.8118 -24.1572 -23.9497 -23.6476 -23.5603
   -23.2992 -23.1933 -23.1597 -23.0558 -22.9178 -22.8593 -22.8278 -22.6098
   -22.5276 -22.4498 -22.3952 -22.3913 -22.2574 -22.2276 -21.7359 -21.6707
   -21.6039 -20.1508 -19.8776 -19.7916 -19.7655 -19.5756 -19.5723 -19.5513
   -19.5285 -19.5137 -19.4930 -19.3190 -19.3006 -18.1247 -17.9227 -17.7921
     1.0471   2.0344   2.9665   3.1566   3.3360   3.3819   3.5017   3.6501
     3.7046   3.7676   3.9393   4.0377   4.2334   4.5243   4.5911   4.7301
     4.7759   4.9405   5.0732   5.1358   5.1905   5.2848   5.3159   5.3331
     5.4145   5.5678   5.5864   5.7313   5.7509   5.7760   5.7990   5.8485
     5.9741   6.0836   6.1751   6.2318   6.2947   6.3627   6.3811   6.4024
     6.4703   6.6087   6.6905   6.7218   6.9378   7.0021   7.0509   7.1113
     7.1332   7.1730   7.2895   7.3258   7.4069   7.5216   7.5334   7.6076
     7.6519   7.7662   7.9163   8.0072   8.0742   8.1193   8.1455   8.1795
     8.2679   8.3264   8.3571   8.3866   8.5175   8.5482   8.6290   8.7594
     8.8373   8.9361   8.9838   9.0860   9.1956   9.2855   9.3074

 ------ SPIN DOWN ----------


          k = 0.0000 0.0000 0.0000 ( 61588 PWs)   bands (ev):

   -60.7695 -60.7384 -60.7244 -60.6930 -60.6730 -60.6622 -60.6246 -60.6135
   -60.5181 -60.4079 -54.3766 -54.3305 -54.2418 -54.1967 -52.6748 -46.3184
   -46.2342 -41.5814 -41.5801 -41.4909 -41.4748 -39.7819 -27.7684 -27.7365
   -27.6766 -27.6511 -27.5818 -27.5482 -27.4362 -27.4187 -27.3830 -27.3207
   -27.2881 -27.2579 -27.2308 -27.2205 -27.1961 -27.1479 -27.1324 -27.1277
   -27.0866 -27.0609 -27.0198 -26.9767 -26.9459 -26.9323 -26.9136 -26.8950
   -26.8669 -26.8384 -26.8251 -26.8128 -24.1573 -23.9497 -23.6477 -23.5603
   -23.2993 -23.1935 -23.1598 -23.0558 -22.9179 -22.8593 -22.8278 -22.6098
   -22.5276 -22.4498 -22.3953 -22.3914 -22.2576 -22.2276 -21.7360 -21.6708
   -21.6040 -20.1519 -19.8775 -19.7926 -19.7666 -19.5758 -19.5723 -19.5522
   -19.5289 -19.5147 -19.4935 -19.3204 -19.3007 -18.1246 -17.9227 -17.7922
     1.0468   2.0339   2.9654   3.1563   3.3357   3.3813   3.5008   3.6498
     3.7043   3.7671   3.9381   4.0369   4.2327   4.5239   4.5907   4.7292
     4.7753   4.9399   5.0720   5.1353   5.1897   5.2842   5.3152   5.3325
     5.4133   5.5673   5.5859   5.7307   5.7506   5.7752   5.7984   5.8478
     5.9736   6.0829   6.1742   6.2311   6.2942   6.3620   6.3804   6.4017
     6.4694   6.6081   6.6898   6.7212   6.9367   7.0010   7.0483   7.1093
     7.1306   7.1717   7.2870   7.3249   7.4034   7.5188   7.5319   7.6064
     7.6505   7.7654   7.9156   8.0062   8.0729   8.1176   8.1448   8.1781
     8.2649   8.3258   8.3561   8.3847   8.5165   8.5472   8.6281   8.7585
     8.8365   8.9337   8.9828   9.0854   9.1951   9.2848   9.3060

     the Fermi energy is     7.2811 ev

!    total energy              =   -2943.08995538 Ry
     estimated scf accuracy    <       0.00065790 Ry
     smearing contrib. (-TS)   =      -0.10083948 Ry
     internal energy E=F+TS    =   -2942.98911590 Ry

     total magnetization       =    -0.03 Bohr mag/cell
     absolute magnetization    =     0.03 Bohr mag/cell

     convergence has been achieved in   3 iterations

     negative rho (up, down):  9.089E-01 9.089E-01

     Forces acting on atoms (cartesian axes, Ry/au):

     atom    1 type  1   force =     0.00003785   -0.02700102    0.00605217
     atom    2 type  1   force =    -0.12076697   -0.01167536    0.00027965
     atom    3 type  1   force =    -0.11411655    0.00922394    0.00587572
     atom    4 type  1   force =     0.12049852   -0.01312070   -0.00245900
     atom    5 type  1   force =     0.11701490    0.01393309    0.00278504
     atom    6 type  2   force =    -0.00912222   -0.02016850    0.00317323
     atom    7 type  2   force =    -0.02010728    0.00913668   -0.01418588
     atom    8 type  3   force =    -0.10842779    0.00635656   -0.00337558
     atom    9 type  3   force =     0.10828087   -0.01997474   -0.01224654
     atom   10 type  3   force =    -0.02371382   -0.02820948   -0.06136895
     atom   11 type  3   force =    -0.02175349   -0.03344243    0.05619539
     atom   12 type  3   force =    -0.02283316    0.03295002   -0.05837017
     atom   13 type  3   force =    -0.00483902    0.02892897    0.06362956
     atom   14 type  3   force =     0.02430883   -0.02767019   -0.06122652
     atom   15 type  3   force =     0.02193775   -0.03909952    0.05979299
     atom   16 type  3   force =     0.02114414    0.03369298   -0.05499280
     atom   17 type  3   force =     0.00844786    0.04499564    0.06318457
     atom   18 type  4   force =    -0.00197403    0.02783889   -0.01061564
     atom   19 type  4   force =    -0.12965297   -0.00466388   -0.11982869
     atom   20 type  4   force =    -0.12828551    0.00816982    0.11764506
     atom   21 type  4   force =     0.12946996   -0.00663112   -0.12208536
     atom   22 type  4   force =     0.13612688   -0.00229178    0.11583378
     atom   23 type  5   force =     0.01832526    0.01872212    0.02630798
     The non-local contrib.  to forces
     atom    1 type  1   force =     0.00458728   -0.01509115    0.03081373
     atom    2 type  1   force =    -0.24803885   -0.16195012    0.01661682
     atom    3 type  1   force =    -0.24156573    0.15337979   -0.01658176
     atom    4 type  1   force =     0.24878502   -0.15927593    0.02969806
     atom    5 type  1   force =     0.26901395    0.12302203    0.01526808
     atom    6 type  2   force =     0.00842268   -0.04947136   -0.06188826
     atom    7 type  2   force =    -0.00126304    0.08527444    0.06185496
     atom    8 type  3   force =    -0.25758713    0.00757361    0.00554696
     atom    9 type  3   force =     0.21183326    0.00296783   -0.00688447
     atom   10 type  3   force =    -0.21047667    0.00702496   -0.20703349
     atom   11 type  3   force =    -0.21379017    0.00524066    0.19632928
     atom   12 type  3   force =    -0.20609050   -0.02399446   -0.17689263
     atom   13 type  3   force =    -0.20025031   -0.00716203    0.20260448
     atom   14 type  3   force =     0.21484342    0.00711904   -0.21737618
     atom   15 type  3   force =     0.22343138    0.00441135    0.18205688
     atom   16 type  3   force =     0.19918037   -0.02139868   -0.18802569
     atom   17 type  3   force =     0.24293008   -0.03818874    0.14802578
     atom   18 type  4   force =    -0.00092511    0.05676336   -0.06028305
     atom   19 type  4   force =     0.05924660    0.00993903    0.07296522
     atom   20 type  4   force =     0.05131646   -0.02014598   -0.06327358
     atom   21 type  4   force =    -0.05953006    0.02286972    0.06854442
     atom   22 type  4   force =    -0.04914837   -0.01525499   -0.06779563
     atom   23 type  5   force =    -0.03520497   -0.02358273   -0.01316971
     The ionic contribution  to forces
     atom    1 type  1   force =    -0.36543816   -4.89257347   13.97548114
     atom    2 type  1   force =   -39.72194282   -6.14561745    0.71112292
     atom    3 type  1   force =   -39.74564608    6.20641230   -0.81205888
     atom    4 type  1   force =    39.56301154   -6.22630811    0.63475515
     atom    5 type  1   force =    39.35447288    6.67556328   -1.11371275
     atom    6 type  2   force =    -0.14339849   -3.64077329  -14.03214573
     atom    7 type  2   force =    -1.00465186    3.86950156   13.95263658
     atom    8 type  3   force =   -52.26411220    0.00205739   -0.20895224
     atom    9 type  3   force =    51.04443893   -0.80894233   -1.62381353
     atom   10 type  3   force =   -36.07142886   -2.09487135  -23.05260983
     atom   11 type  3   force =   -35.18430742   -0.86860804   22.10478321
     atom   12 type  3   force =   -35.26564378    0.82495409  -22.11588505
     atom   13 type  3   force =   -36.13818158    2.27759478   23.11881807
     atom   14 type  3   force =    35.99909287   -2.10827950  -23.07805401
     atom   15 type  3   force =    35.01361760   -0.94863910   22.19153980
     atom   16 type  3   force =    35.16861208    0.86678772  -22.16548067
     atom   17 type  3   force =    35.74198784    2.69550209   23.44110568
     atom   18 type  4   force =    -0.21647384    4.39928769  -14.08808955
     atom   19 type  4   force =   -35.92382216    0.93512861  -25.51867225
     atom   20 type  4   force =   -36.02461317   -1.01239447   25.59779443
     atom   21 type  4   force =    35.81587017    0.91043933  -25.59075606
     atom   22 type  4   force =    35.18923268   -1.49801796   26.64525089
     atom   23 type  5   force =     5.17932383    0.58179622    1.02694268
     The local contribution  to forces
     atom    1 type  1   force =     0.36819182    4.87588468  -13.98058984
     atom    2 type  1   force =    39.85561498    6.30080293   -0.71373227
     atom    3 type  1   force =    39.88066956   -6.35603347    0.85084107
     atom    4 type  1   force =   -39.69280676    6.37406090   -0.65024119
     atom    5 type  1   force =   -39.50765011   -6.78875444    1.12100300
     atom    6 type  2   force =     0.12495846    3.67152260   14.09599060
     atom    7 type  2   force =     0.99759221   -3.93568313  -14.00288768
     atom    8 type  3   force =    52.43976805   -0.00366582    0.21094881
     atom    9 type  3   force =   -51.14649541    0.80263314    1.66021213
     atom   10 type  3   force =    36.27448949    2.06791244   23.20617186
     atom   11 type  3   force =    35.40525017    0.82012463  -22.25732419
     atom   12 type  3   force =    35.46370193   -0.77451113   22.23933777
     atom   13 type  3   force =    36.36126572   -2.23314651  -23.26773527
     atom   14 type  3   force =   -36.19387827    2.07576897   23.23524816
     atom   15 type  3   force =   -35.22445952    0.89150367  -22.31994194
     atom   16 type  3   force =   -35.34795790   -0.81597396   22.30017631
     atom   17 type  3   force =   -35.98870952   -2.59951014  -23.52990272
     atom   18 type  4   force =     0.21769682   -4.43089773   14.13832795
     atom   19 type  4   force =    35.74643558   -0.94973589   25.32498491
     atom   20 type  4   force =    35.86338297    1.04132840  -25.41704874
     atom   21 type  4   force =   -35.63051098   -0.93754032   25.38816460
     atom   22 type  4   force =   -35.01696168    1.50627568  -26.45466965
     atom   23 type  5   force =    -5.12634631   -0.54007827   -0.98809222
     The core correction contribution to forces
     atom    1 type  1   force =     0.00100842    0.00115351   -0.00043259
     atom    2 type  1   force =    -0.01184333   -0.00174161    0.00017456
     atom    3 type  1   force =    -0.01250290    0.00212652   -0.00114731
     atom    4 type  1   force =     0.01295670   -0.00132097    0.00265544
     atom    5 type  1   force =     0.01489333   -0.00006801    0.00110691
     atom    6 type  2   force =    -0.00048075    0.00236289    0.00261101
     atom    7 type  2   force =     0.00100038   -0.00445100   -0.00247272
     atom    8 type  3   force =    -0.03123997    0.00100682    0.00029931
     atom    9 type  3   force =     0.02288136   -0.00267511   -0.00497996
     atom   10 type  3   force =    -0.02200454    0.00932720   -0.01612738
     atom   11 type  3   force =    -0.02352919    0.00909079    0.01784836
     atom   12 type  3   force =    -0.02146626   -0.00969326   -0.01529088
     atom   13 type  3   force =    -0.02084410   -0.01002435    0.01593518
     atom   14 type  3   force =     0.02130168    0.00921429   -0.01628107
     atom   15 type  3   force =     0.02443470    0.00927040    0.01543329
     atom   16 type  3   force =     0.02118223   -0.00918762   -0.01654264
     atom   17 type  3   force =     0.02445276   -0.00937343    0.01264769
     atom   18 type  4   force =     0.00010828   -0.00292874    0.00287829
     atom   19 type  4   force =    -0.00957843    0.00000349   -0.00970156
     atom   20 type  4   force =    -0.00913255    0.00078096    0.00914946
     atom   21 type  4   force =     0.00958407   -0.00064063   -0.00959835
     atom   22 type  4   force =     0.00854866    0.00044021    0.00980676
     atom   23 type  5   force =     0.00000000    0.00000000    0.00000000
     The Hubbard contrib.    to forces
     atom    1 type  1   force =     0.00000000    0.00000000    0.00000000
     atom    2 type  1   force =     0.00000000    0.00000000    0.00000000
     atom    3 type  1   force =     0.00000000    0.00000000    0.00000000
     atom    4 type  1   force =     0.00000000    0.00000000    0.00000000
     atom    5 type  1   force =     0.00000000    0.00000000    0.00000000
     atom    6 type  2   force =     0.00000000    0.00000000    0.00000000
     atom    7 type  2   force =     0.00000000    0.00000000    0.00000000
     atom    8 type  3   force =     0.00000000    0.00000000    0.00000000
     atom    9 type  3   force =     0.00000000    0.00000000    0.00000000
     atom   10 type  3   force =     0.00000000    0.00000000    0.00000000
     atom   11 type  3   force =     0.00000000    0.00000000    0.00000000
     atom   12 type  3   force =     0.00000000    0.00000000    0.00000000
     atom   13 type  3   force =     0.00000000    0.00000000    0.00000000
     atom   14 type  3   force =     0.00000000    0.00000000    0.00000000
     atom   15 type  3   force =     0.00000000    0.00000000    0.00000000
     atom   16 type  3   force =     0.00000000    0.00000000    0.00000000
     atom   17 type  3   force =     0.00000000    0.00000000    0.00000000
     atom   18 type  4   force =     0.00000000    0.00000000    0.00000000
     atom   19 type  4   force =     0.00000000    0.00000000    0.00000000
     atom   20 type  4   force =     0.00000000    0.00000000    0.00000000
     atom   21 type  4   force =     0.00000000    0.00000000    0.00000000
     atom   22 type  4   force =     0.00000000    0.00000000    0.00000000
     atom   23 type  5   force =     0.00000000    0.00000000    0.00000000
     The SCF correction term to forces
     atom    1 type  1   force =    -0.00747355    0.00358222   -0.01793096
     atom    2 type  1   force =     0.00628100   -0.00321230   -0.01261308
     atom    3 type  1   force =     0.00576656    0.00329561   -0.01388809
     atom    4 type  1   force =    -0.01061002   -0.00031977   -0.01803714
     atom    5 type  1   force =    -0.01287719    0.00412704   -0.01959089
     atom    6 type  2   force =     0.00221385   -0.00385253   -0.00010508
     atom    7 type  2   force =    -0.01194702   -0.00554839   -0.02202770
     atom    8 type  3   force =     0.00558142   -0.00065863   -0.00992911
     atom    9 type  3   force =    -0.02353933   -0.01400146   -0.03549139
     atom   10 type  3   force =     0.00654473   -0.01764592    0.00951921
     atom   11 type  3   force =    -0.00453892    0.00066634   -0.00415197
     atom   12 type  3   force =     0.00750340    0.01615160    0.01164993
     atom   13 type  3   force =    -0.00599079    0.00162390   -0.00470359
     atom   14 type  3   force =    -0.01621291   -0.01153618    0.01652589
     atom   15 type  3   force =    -0.01424845    0.00431098   -0.00800573
     atom   16 type  3   force =    -0.01903467    0.01342233    0.01616919
     atom   17 type  3   force =    -0.01137535   -0.00347733   -0.00740256
     atom   18 type  4   force =    -0.00154222    0.00557113   -0.00215997
     atom   19 type  4   force =    -0.00109659   -0.00004232    0.01188430
     atom   20 type  4   force =    -0.00840126   -0.00144226   -0.00768720
     atom   21 type  4   force =    -0.00510529   -0.00180240    0.02284934
     atom   22 type  4   force =     0.00529355    0.00422209   -0.01546929
     atom   23 type  5   force =     0.00139067    0.00054371    0.00191654

     Total force =     0.501163     Total SCF correction =     0.093624
     SCF correction compared to forces is large: reduce conv_thr to get better values


     Computing stress (Cartesian axis) and pressure


     negative rho (up, down):  9.089E-01 9.089E-01
          total   stress  (Ry/bohr**3)                   (kbar)     P=       83.96
   0.00063651   0.00000221   0.00001055           93.63        0.33        1.55
   0.00000221   0.00068058  -0.00000043            0.33      100.12       -0.06
   0.00001055  -0.00000043   0.00039523            1.55       -0.06       58.14


     Entering Dynamics:    iteration =     2
                           time      =   0.0004 pico-seconds


ATOMIC_POSITIONS (angstrom)
Hf            2.6700886994        2.8271969178        6.6040977588
Hf            1.2530660471        1.2863596877        5.0585993963
Hf            1.2555630288        7.3898825021        5.0882015432
Hf            4.0871115677        1.2863595848        5.0585989466
Hf            4.0846149203        7.3898830019        5.0882010670
Nb            2.6700870361        2.7970032705        3.5157175556
Nb            2.6700845517        5.8764575658        6.6351281852
Ta            1.2094498716        4.3410054842        5.0712587096
Ta            4.1307285141        4.3410032620        5.0712587443
Ta            1.3073389980        1.3141961238        2.0589056597
Ta            1.3028748391        1.3084642825        8.0947188619
Ta            1.3040960668        7.3759070627        2.0463641407
Ta            1.3077990715        7.3651632666        8.0861427098
Ta            4.0328387772        1.3141962640        2.0589057600
Ta            4.0373029056        1.3084636915        8.0947192746
Ta            4.0360814500        7.3759071359        2.0463645439
Ta            4.0323790611        7.3651649563        8.0861426571
Zr            2.6700885697        5.8663691058        3.5275153900
Zr            1.2438942585        4.3221538361        2.0001068579
Zr            1.2404454419        4.3542020692        8.1499151721
Zr            4.0962833952        4.3221533054        2.0001068550
Zr            4.0997339969        4.3541996172        8.1499151533
H             4.9831590583        5.0783570233        6.3509611709


     kinetic energy (Ekin) =           4.04296433 Ry
     temperature           =       19343.44185951 K 
     Ekin + Etot (const)   =       -2939.04699104 Ry
     Ions kinetic stress =           71.40 (kbar)
                                     53.55          46.36          80.34
                                     46.36          40.14          69.55
                                     80.34          69.55         120.52



     Linear momentum :   -0.0000000000    0.0000000000    0.0000000000

     Writing config-only to output data dir outdir/pwscf.save/
     NEW-OLD atomic charge density approx. for the potential

     Check: negative core charge=   -0.000002

     negative rho (up, down):  9.088E-01 9.088E-01
     Generating pointlists ...
     new r_m :   0.0753 (alat units)  1.3293 (a.u.) for type    3
     new r_m :   0.0753 (alat units)  1.3293 (a.u.) for type    5

     total cpu time spent up to now is      529.6 secs

     Self-consistent Calculation

     iteration #  1     ecut=   120.00 Ry     beta= 0.70
     Davidson diagonalization with overlap
     c_bands:  2 eigenvalues not converged
     c_bands:  2 eigenvalues not converged
     ethr =  1.00E-06,  avg # of iterations = 20.0

     negative rho (up, down):  9.091E-01 9.091E-01

     total cpu time spent up to now is      592.3 secs

     total energy              =   -2943.05540851 Ry
     estimated scf accuracy    <       0.15366471 Ry

     total magnetization       =    -0.03 Bohr mag/cell
     absolute magnetization    =     0.03 Bohr mag/cell

     iteration #  2     ecut=   120.00 Ry     beta= 0.70
     Davidson diagonalization with overlap
     ethr =  5.55E-05,  avg # of iterations =  2.0

     negative rho (up, down):  9.090E-01 9.090E-01

     total cpu time spent up to now is      609.9 secs

     total energy              =   -2943.06588503 Ry
     estimated scf accuracy    <       0.10037954 Ry

     total magnetization       =    -0.03 Bohr mag/cell
     absolute magnetization    =     0.03 Bohr mag/cell

     iteration #  3     ecut=   120.00 Ry     beta= 0.70
     Davidson diagonalization with overlap
     ethr =  3.62E-05,  avg # of iterations =  1.0

     negative rho (up, down):  9.089E-01 9.089E-01

     total cpu time spent up to now is      625.4 secs

     total energy              =   -2943.07147351 Ry
     estimated scf accuracy    <       0.00256673 Ry

     total magnetization       =    -0.03 Bohr mag/cell
     absolute magnetization    =     0.03 Bohr mag/cell

     iteration #  4     ecut=   120.00 Ry     beta= 0.70
     Davidson diagonalization with overlap
     ethr =  9.27E-07,  avg # of iterations =  2.0

     negative rho (up, down):  9.088E-01 9.088E-01

     total cpu time spent up to now is      643.5 secs

     total energy              =   -2943.07159997 Ry
     estimated scf accuracy    <       0.00109421 Ry

     total magnetization       =    -0.03 Bohr mag/cell
     absolute magnetization    =     0.03 Bohr mag/cell

     iteration #  5     ecut=   120.00 Ry     beta= 0.70
     Davidson diagonalization with overlap
     ethr =  3.95E-07,  avg # of iterations =  2.0

     negative rho (up, down):  9.088E-01 9.088E-01

     Magnetic moment per site  (integrated on atomic sphere of radius R)
     atom   1 (R=0.112)  charge=  9.4636  magn= -0.0000
     atom   2 (R=0.112)  charge=  9.0569  magn= -0.0000
     atom   3 (R=0.112)  charge=  9.0565  magn= -0.0001
     atom   4 (R=0.112)  charge=  9.0593  magn= -0.0000
     atom   5 (R=0.112)  charge=  9.0649  magn= -0.0002
     atom   6 (R=0.110)  charge= 10.3488  magn= -0.0000
     atom   7 (R=0.110)  charge= 10.3551  magn= -0.0001
     atom   8 (R=0.075)  charge=  6.6210  magn= -0.0000
     atom   9 (R=0.075)  charge=  6.6356  magn= -0.0000
     atom  10 (R=0.075)  charge=  6.6059  magn= -0.0002
     atom  11 (R=0.075)  charge=  6.6029  magn= -0.0002
     atom  12 (R=0.075)  charge=  6.6057  magn= -0.0004
     atom  13 (R=0.075)  charge=  6.6037  magn= -0.0001
     atom  14 (R=0.075)  charge=  6.6051  magn= -0.0003
     atom  15 (R=0.075)  charge=  6.6018  magn= -0.0002
     atom  16 (R=0.075)  charge=  6.6051  magn= -0.0007
     atom  17 (R=0.075)  charge=  6.6059  magn= -0.0004
     atom  18 (R=0.091)  charge=  7.7803  magn=  0.0000
     atom  19 (R=0.091)  charge=  7.5885  magn= -0.0005
     atom  20 (R=0.091)  charge=  7.5849  magn=  0.0000
     atom  21 (R=0.091)  charge=  7.5867  magn= -0.0007
     atom  22 (R=0.091)  charge=  7.5876  magn= -0.0002
     atom  23 (R=0.075)  charge=  0.9637  magn= -0.0000

     total cpu time spent up to now is      660.6 secs

     End of self-consistent calculation

 ------ SPIN UP ------------


          k = 0.0000 0.0000 0.0000 ( 61588 PWs)   bands (ev):

   -60.7699 -60.7612 -60.7186 -60.7152 -60.6865 -60.6696 -60.6391 -60.6263
   -60.5245 -60.3574 -54.3776 -54.3304 -54.2410 -54.1959 -52.6809 -46.3254
   -46.2396 -41.6003 -41.5898 -41.5158 -41.4834 -39.7825 -27.7663 -27.7572
   -27.6766 -27.6733 -27.5796 -27.5675 -27.4453 -27.4339 -27.3796 -27.3248
   -27.3028 -27.2555 -27.2514 -27.2254 -27.2107 -27.1565 -27.1491 -27.1343
   -27.0919 -27.0409 -27.0015 -26.9576 -26.9397 -26.9346 -26.9306 -26.9159
   -26.8694 -26.8614 -26.8355 -26.8250 -24.1586 -23.9503 -23.6512 -23.5635
   -23.3013 -23.1949 -23.1622 -23.0578 -22.9194 -22.8614 -22.8299 -22.6117
   -22.5349 -22.4586 -22.4016 -22.3955 -22.2606 -22.2305 -21.7421 -21.6768
   -21.6103 -20.1597 -19.8998 -19.8029 -19.7732 -19.6023 -19.5836 -19.5633
   -19.5469 -19.5233 -19.5102 -19.3290 -19.3230 -18.1279 -17.9250 -17.7946
     0.9444   1.9694   2.9518   3.1458   3.3266   3.3875   3.4904   3.6405
     3.6971   3.7591   3.9289   4.0261   4.2320   4.5117   4.5876   4.7207
     4.7602   4.9352   5.0646   5.1266   5.1926   5.2740   5.3086   5.3197
     5.4048   5.5609   5.5785   5.7209   5.7448   5.7660   5.7889   5.8483
     5.9671   6.0758   6.1661   6.2234   6.2866   6.3556   6.3733   6.3881
     6.4654   6.6037   6.6824   6.7113   6.9287   6.9993   7.0422   7.1038
     7.1293   7.1668   7.2770   7.3142   7.4018   7.5164   7.5290   7.5879
     7.6367   7.7389   7.9094   7.9991   8.0618   8.1096   8.1378   8.1680
     8.2609   8.3214   8.3494   8.3766   8.5106   8.5455   8.6159   8.7494
     8.8290   8.9307   8.9698   9.0781   9.1796   9.2828   9.2999

 ------ SPIN DOWN ----------


          k = 0.0000 0.0000 0.0000 ( 61588 PWs)   bands (ev):

   -60.7702 -60.7618 -60.7190 -60.7157 -60.6871 -60.6699 -60.6397 -60.6266
   -60.5245 -60.3575 -54.3777 -54.3305 -54.2410 -54.1959 -52.6809 -46.3255
   -46.2397 -41.6004 -41.5905 -41.5160 -41.4842 -39.7825 -27.7668 -27.7581
   -27.6771 -27.6742 -27.5801 -27.5682 -27.4462 -27.4343 -27.3798 -27.3252
   -27.3033 -27.2559 -27.2520 -27.2259 -27.2112 -27.1569 -27.1496 -27.1346
   -27.0921 -27.0410 -27.0016 -26.9577 -26.9402 -26.9354 -26.9311 -26.9168
   -26.8699 -26.8623 -26.8363 -26.8253 -24.1586 -23.9503 -23.6513 -23.5635
   -23.3013 -23.1950 -23.1623 -23.0579 -22.9194 -22.8615 -22.8300 -22.6117
   -22.5349 -22.4586 -22.4017 -22.3956 -22.2607 -22.2306 -21.7421 -21.6769
   -21.6103 -20.1605 -19.8998 -19.8036 -19.7740 -19.6025 -19.5837 -19.5640
   -19.5472 -19.5240 -19.5107 -19.3301 -19.3232 -18.1280 -17.9250 -17.7947
     0.9441   1.9690   2.9509   3.1456   3.3263   3.3869   3.4896   3.6403
     3.6969   3.7587   3.9279   4.0255   4.2315   4.5114   4.5872   4.7199
     4.7598   4.9347   5.0636   5.1262   5.1919   5.2735   5.3080   5.3192
     5.4037   5.5605   5.5781   5.7204   5.7444   5.7654   5.7884   5.8478
     5.9666   6.0752   6.1654   6.2228   6.2861   6.3549   6.3727   6.3875
     6.4647   6.6032   6.6819   6.7108   6.9278   6.9984   7.0401   7.1019
     7.1273   7.1658   7.2749   7.3133   7.3989   7.5141   7.5277   7.5870
     7.6355   7.7381   7.9088   7.9983   8.0607   8.1082   8.1372   8.1669
     8.2585   8.3209   8.3485   8.3749   8.5098   8.5446   8.6151   8.7486
     8.8283   8.9287   8.9690   9.0776   9.1791   9.2822   9.2994

     the Fermi energy is     7.2729 ev

!    total energy              =   -2943.07147093 Ry
     estimated scf accuracy    <       0.00022481 Ry
     smearing contrib. (-TS)   =      -0.10158779 Ry
     internal energy E=F+TS    =   -2942.96988314 Ry

     total magnetization       =    -0.03 Bohr mag/cell
     absolute magnetization    =     0.03 Bohr mag/cell

     convergence has been achieved in   5 iterations

     negative rho (up, down):  9.088E-01 9.088E-01

     Forces acting on atoms (cartesian axes, Ry/au):

     atom    1 type  1   force =    -0.00110752   -0.02501871   -0.00304974
     atom    2 type  1   force =    -0.11662195   -0.01269510   -0.00669748
     atom    3 type  1   force =    -0.11053432    0.01015799   -0.00158175
     atom    4 type  1   force =     0.11596720   -0.01222733   -0.01124695
     atom    5 type  1   force =     0.11240519    0.01528241   -0.00653590
     atom    6 type  2   force =    -0.00684457   -0.02091917    0.00696493
     atom    7 type  2   force =    -0.02073980    0.01034862   -0.01348143
     atom    8 type  3   force =    -0.10726159    0.00697232   -0.00230646
     atom    9 type  3   force =     0.07426158   -0.05103172   -0.06316653
     atom   10 type  3   force =    -0.02101345   -0.03216047   -0.05568839
     atom   11 type  3   force =    -0.02188643   -0.03277823    0.05762092
     atom   12 type  3   force =    -0.01901984    0.03697953   -0.05286322
     atom   13 type  3   force =    -0.00425254    0.02882405    0.06515608
     atom   14 type  3   force =     0.02156117   -0.03040757   -0.05480459
     atom   15 type  3   force =     0.02002279   -0.03822637    0.05999407
     atom   16 type  3   force =     0.01804482    0.03667133   -0.04866375
     atom   17 type  3   force =     0.00650059    0.04453940    0.06422880
     atom   18 type  4   force =    -0.00018948    0.02854170   -0.00835022
     atom   19 type  4   force =    -0.12950351   -0.00469208   -0.11451620
     atom   20 type  4   force =    -0.12843324    0.00716678    0.11657328
     atom   21 type  4   force =     0.13036935   -0.00658481   -0.11549646
     atom   22 type  4   force =     0.13774262   -0.00024106    0.10966163
     atom   23 type  5   force =     0.05053295    0.04149849    0.07824935
     The non-local contrib.  to forces
     atom    1 type  1   force =     0.00327132   -0.01353833    0.02480245
     atom    2 type  1   force =    -0.24633686   -0.16289922    0.01316975
     atom    3 type  1   force =    -0.24051221    0.15423871   -0.02073376
     atom    4 type  1   force =     0.24584971   -0.16016181    0.02456632
     atom    5 type  1   force =     0.26347307    0.12694329    0.00615556
     atom    6 type  2   force =     0.00881051   -0.05031875   -0.06253588
     atom    7 type  2   force =     0.00164183    0.08594847    0.06421039
     atom    8 type  3   force =    -0.25520179    0.00699443    0.00269172
     atom    9 type  3   force =     0.18406981   -0.01443748   -0.03907925
     atom   10 type  3   force =    -0.20965494    0.00309134   -0.20590814
     atom   11 type  3   force =    -0.21662791    0.00700550    0.19515487
     atom   12 type  3   force =    -0.20321400   -0.02096992   -0.17442278
     atom   13 type  3   force =    -0.20132502   -0.00743112    0.20220402
     atom   14 type  3   force =     0.21233557    0.00639296   -0.21516508
     atom   15 type  3   force =     0.22193486    0.00461950    0.18142146
     atom   16 type  3   force =     0.19583077   -0.01990182   -0.18589819
     atom   17 type  3   force =     0.23616527   -0.03087789    0.15512641
     atom   18 type  4   force =    -0.00233872    0.05860972   -0.06056196
     atom   19 type  4   force =     0.05897307    0.01020014    0.07590422
     atom   20 type  4   force =     0.05072338   -0.01996423   -0.06566176
     atom   21 type  4   force =    -0.06136405    0.02270887    0.07273745
     atom   22 type  4   force =    -0.04892525   -0.01349671   -0.07082066
     atom   23 type  5   force =    -0.03961413   -0.02880751   -0.02438498
     The ionic contribution  to forces
     atom    1 type  1   force =    -0.39014907   -4.91767797   13.99875835
     atom    2 type  1   force =   -39.72938240   -6.15160037    0.71357421
     atom    3 type  1   force =   -39.75570747    6.21188566   -0.80739408
     atom    4 type  1   force =    39.56398543   -6.24934373    0.63733005
     atom    5 type  1   force =    39.36709964    6.70754370   -1.09305881
     atom    6 type  2   force =    -0.15726321   -3.65411463  -14.04938266
     atom    7 type  2   force =    -1.02846803    3.91386868   14.00880856
     atom    8 type  3   force =   -52.29249177    0.00199369   -0.20794548
     atom    9 type  3   force =    50.85064090   -0.97667428   -1.91363392
     atom   10 type  3   force =   -36.07445755   -2.09712485  -23.05861326
     atom   11 type  3   force =   -35.18824007   -0.87267747   22.10945531
     atom   12 type  3   force =   -35.26916123    0.82631059  -22.12309048
     atom   13 type  3   force =   -36.13964743    2.27650947   23.12323237
     atom   14 type  3   force =    36.00006610   -2.11309482  -23.08886261
     atom   15 type  3   force =    35.02029670   -0.95944344   22.20140955
     atom   16 type  3   force =    35.17059470    0.87078678  -22.18021487
     atom   17 type  3   force =    35.78272569    2.65615945   23.42936636
     atom   18 type  4   force =    -0.23513699    4.41272313  -14.11048845
     atom   19 type  4   force =   -35.92885967    0.93579448  -25.52773451
     atom   20 type  4   force =   -36.03292213   -1.00829044   25.60689276
     atom   21 type  4   force =    35.81612596    0.91080151  -25.61618456
     atom   22 type  4   force =    35.27252044   -1.42760442   26.65532158
     atom   23 type  5   force =     5.37783144    0.70326928    1.29245459
     The local contribution  to forces
     atom    1 type  1   force =     0.38295907    4.90836006  -14.04111278
     atom    2 type  1   force =    39.87232837    6.30414219   -0.74713583
     atom    3 type  1   force =    39.89962891   -6.35798923    0.81486318
     atom    4 type  1   force =   -39.71141838    6.40027775   -0.68934817
     atom    5 type  1   force =   -39.53738791   -6.81951995    1.06549208
     atom    6 type  2   force =     0.14088530    3.67904653   14.11257011
     atom    7 type  2   force =     1.00116959   -3.98905628  -14.10267800
     atom    8 type  3   force =    52.47465434   -0.00362551    0.19145168
     atom    9 type  3   force =   -50.98825158    0.94295321    1.88250434
     atom   10 type  3   force =    36.28732811    2.04747380   23.23218967
     atom   11 type  3   force =    35.40725305    0.82782098  -22.26716159
     atom   12 type  3   force =    35.47705737   -0.75244974   22.26625338
     atom   13 type  3   force =    36.35671210   -2.23411683  -23.27862348
     atom   14 type  3   force =   -36.21822389    2.06124275   23.27404221
     atom   15 type  3   force =   -35.25288498    0.91036998  -22.34215485
     atom   16 type  3   force =   -35.37520715   -0.79971198   22.34224007
     atom   17 type  3   force =   -36.04226139   -2.57324899  -23.53760431
     atom   18 type  4   force =     0.23718742   -4.43825739   14.15603849
     atom   19 type  4   force =    35.74923740   -0.95136565   25.35533071
     atom   20 type  4   force =    35.86252496    1.03445901  -25.43917721
     atom   21 type  4   force =   -35.63671671   -0.93936180   25.44842152
     atom   22 type  4   force =   -35.10394134    1.43827194  -26.48790623
     atom   23 type  5   force =    -5.28919855   -0.63325422   -1.19316983
     The core correction contribution to forces
     atom    1 type  1   force =     0.00117584    0.00101604   -0.00059106
     atom    2 type  1   force =    -0.01181783   -0.00186366    0.00024670
     atom    3 type  1   force =    -0.01251215    0.00220830   -0.00105352
     atom    4 type  1   force =     0.01282128   -0.00150971    0.00249382
     atom    5 type  1   force =     0.01452070    0.00001611    0.00070192
     atom    6 type  2   force =    -0.00041062    0.00258484    0.00276360
     atom    7 type  2   force =     0.00084145   -0.00448167   -0.00261578
     atom    8 type  3   force =    -0.03087049    0.00088102    0.00028778
     atom    9 type  3   force =     0.02059129   -0.00370397   -0.00721609
     atom   10 type  3   force =    -0.02184083    0.00933382   -0.01602922
     atom   11 type  3   force =    -0.02393219    0.00913652    0.01799050
     atom   12 type  3   force =    -0.02131051   -0.00988722   -0.01519323
     atom   13 type  3   force =    -0.02073131   -0.01013208    0.01592317
     atom   14 type  3   force =     0.02123953    0.00915802   -0.01648548
     atom   15 type  3   force =     0.02444761    0.00920992    0.01530203
     atom   16 type  3   force =     0.02105953   -0.00913988   -0.01661759
     atom   17 type  3   force =     0.02446093   -0.00931318    0.01343652
     atom   18 type  4   force =     0.00020085   -0.00304914    0.00290430
     atom   19 type  4   force =    -0.00959661   -0.00001556   -0.00974920
     atom   20 type  4   force =    -0.00919230    0.00076285    0.00917581
     atom   21 type  4   force =     0.00966120   -0.00064067   -0.00961206
     atom   22 type  4   force =     0.00876595    0.00049757    0.00958624
     atom   23 type  5   force =     0.00000000    0.00000000    0.00000000
     The Hubbard contrib.    to forces
     atom    1 type  1   force =     0.00000000    0.00000000    0.00000000
     atom    2 type  1   force =     0.00000000    0.00000000    0.00000000
     atom    3 type  1   force =     0.00000000    0.00000000    0.00000000
     atom    4 type  1   force =     0.00000000    0.00000000    0.00000000
     atom    5 type  1   force =     0.00000000    0.00000000    0.00000000
     atom    6 type  2   force =     0.00000000    0.00000000    0.00000000
     atom    7 type  2   force =     0.00000000    0.00000000    0.00000000
     atom    8 type  3   force =     0.00000000    0.00000000    0.00000000
     atom    9 type  3   force =     0.00000000    0.00000000    0.00000000
     atom   10 type  3   force =     0.00000000    0.00000000    0.00000000
     atom   11 type  3   force =     0.00000000    0.00000000    0.00000000
     atom   12 type  3   force =     0.00000000    0.00000000    0.00000000
     atom   13 type  3   force =     0.00000000    0.00000000    0.00000000
     atom   14 type  3   force =     0.00000000    0.00000000    0.00000000
     atom   15 type  3   force =     0.00000000    0.00000000    0.00000000
     atom   16 type  3   force =     0.00000000    0.00000000    0.00000000
     atom   17 type  3   force =     0.00000000    0.00000000    0.00000000
     atom   18 type  4   force =     0.00000000    0.00000000    0.00000000
     atom   19 type  4   force =     0.00000000    0.00000000    0.00000000
     atom   20 type  4   force =     0.00000000    0.00000000    0.00000000
     atom   21 type  4   force =     0.00000000    0.00000000    0.00000000
     atom   22 type  4   force =     0.00000000    0.00000000    0.00000000
     atom   23 type  5   force =     0.00000000    0.00000000    0.00000000
     The SCF correction term to forces
     atom    1 type  1   force =     0.00132519   -0.00314323    0.01413482
     atom    2 type  1   force =    -0.00172336   -0.00043876    0.01248921
     atom    3 type  1   force =    -0.00174152   -0.00015019    0.01177796
     atom    4 type  1   force =     0.00441903   -0.00145456    0.01275255
     atom    5 type  1   force =     0.00438957    0.00033452    0.01321489
     atom    6 type  2   force =     0.00082332    0.00191811    0.00259129
     atom    7 type  2   force =     0.00376524    0.00410469    0.01783492
     atom    8 type  3   force =    -0.00366200    0.00076396    0.01024935
     atom    9 type  3   force =     0.00690103    0.00086607    0.01329992
     atom   10 type  3   force =    -0.00269836    0.00510071   -0.00828591
     atom   11 type  3   force =    -0.00064943   -0.00402848    0.00122335
     atom   12 type  3   force =    -0.00270160   -0.00598890   -0.00736858
     atom   13 type  3   force =     0.00042900    0.00402988    0.00146154
     atom   14 type  3   force =     0.00583373    0.00592879   -0.00929209
     atom   15 type  3   force =     0.00591848   -0.00294704    0.00305741
     atom   16 type  3   force =     0.00545684   -0.00532650   -0.00913165
     atom   17 type  3   force =     0.00509996    0.00185527    0.00294535
     atom   18 type  4   force =    -0.00041217   -0.00144935    0.00279893
     atom   19 type  4   force =     0.00043216    0.00072978   -0.00922588
     atom   20 type  4   force =     0.00012273    0.00023485    0.00438521
     atom   21 type  4   force =     0.00235282   -0.00005744   -0.01181728
     atom   22 type  4   force =     0.00901269    0.00212582    0.00252222
     atom   23 type  5   force =     0.00120406    0.00032621    0.00239110

     Total force =     0.500139     Total SCF correction =     0.050787
     SCF correction compared to forces is large: reduce conv_thr to get better values


     Computing stress (Cartesian axis) and pressure


     negative rho (up, down):  9.088E-01 9.088E-01
          total   stress  (Ry/bohr**3)                   (kbar)     P=       85.78
[...]
     4.7596   4.9470   5.0674   5.1327   5.2055   5.2776   5.3092   5.3219
     5.4057   5.5654   5.5904   5.7242   5.7464   5.7745   5.7929   5.8603
     5.9694   6.0756   6.1676   6.2318   6.2953   6.3613   6.3792   6.3895
     6.4710   6.6091   6.6861   6.7177   6.9298   7.0025   7.0419   7.1028
     7.1333   7.1685   7.2688   7.3104   7.4067   7.5138   7.5325   7.5794
     7.6363   7.7298   7.9128   8.0038   8.0621   8.1153   8.1440   8.1682
     8.2650   8.3328   8.3569   8.3806   8.5183   8.5486   8.6178   8.7498
     8.8302   8.9292   8.9600   9.0814   9.1701   9.2870   9.2978

     the Fermi energy is     7.2731 ev

!    total energy              =   -2943.04786913 Ry
     estimated scf accuracy    <       0.00061408 Ry
     smearing contrib. (-TS)   =      -0.10212239 Ry
     internal energy E=F+TS    =   -2942.94574674 Ry

     total magnetization       =    -0.00 Bohr mag/cell
     absolute magnetization    =     0.00 Bohr mag/cell

     convergence has been achieved in   4 iterations

     negative rho (up, down):  9.088E-01 9.088E-01

     Forces acting on atoms (cartesian axes, Ry/au):

     atom    1 type  1   force =    -0.00102654   -0.02559936    0.00531025
     atom    2 type  1   force =    -0.11636343   -0.01181267    0.00542196
     atom    3 type  1   force =    -0.11098416    0.00856361    0.01065214
     atom    4 type  1   force =     0.11584624   -0.01127941    0.00131106
     atom    5 type  1   force =     0.11188792    0.01477832    0.00578369
     atom    6 type  2   force =    -0.01039772   -0.02322234    0.00040214
     atom    7 type  2   force =    -0.01998598    0.01018217   -0.01522464
     atom    8 type  3   force =    -0.10865222    0.00805923    0.00113251
     atom    9 type  3   force =     0.04506248   -0.07906703   -0.10697512
     atom   10 type  3   force =    -0.02181705   -0.02905832   -0.06213639
     atom   11 type  3   force =    -0.02227194   -0.03352411    0.05508924
     atom   12 type  3   force =    -0.01966859    0.03489155   -0.05999165
     atom   13 type  3   force =    -0.00425400    0.03047356    0.06266915
     atom   14 type  3   force =     0.02209909   -0.02772876   -0.06153610
     atom   15 type  3   force =     0.01968294   -0.03838973    0.05740700
     atom   16 type  3   force =     0.01876095    0.03483206   -0.05535182
     atom   17 type  3   force =     0.00555046    0.04501406    0.06178401
     atom   18 type  4   force =    -0.00245022    0.02704070   -0.01086887
     atom   19 type  4   force =    -0.12756875   -0.00446952   -0.11882066
     atom   20 type  4   force =    -0.12734281    0.00667234    0.11360336
     atom   21 type  4   force =     0.12828278   -0.00655470   -0.12278516
     atom   22 type  4   force =     0.13881979    0.00126894    0.10065318
     atom   23 type  5   force =     0.08679077    0.06892939    0.13247071
     The non-local contrib.  to forces
     atom    1 type  1   force =     0.00351033   -0.01453046    0.02791608
     atom    2 type  1   force =    -0.24598171   -0.16276100    0.02127188
     atom    3 type  1   force =    -0.24156453    0.15370609   -0.01348673
     atom    4 type  1   force =     0.24572955   -0.16154527    0.03185858
     atom    5 type  1   force =     0.26247871    0.12904904    0.00876813
     atom    6 type  2   force =     0.01026012   -0.04849365   -0.05890428
     atom    7 type  2   force =     0.00423426    0.08956256    0.06807313
     atom    8 type  3   force =    -0.25479475    0.00664777    0.00757232
     atom    9 type  3   force =     0.17017260   -0.02057869   -0.04594897
     atom   10 type  3   force =    -0.21254676    0.00288249   -0.21157665
     atom   11 type  3   force =    -0.21633813    0.00671005    0.19418884
     atom   12 type  3   force =    -0.20419532   -0.02186276   -0.17798674
     atom   13 type  3   force =    -0.19883425   -0.00591782    0.20174423
     atom   14 type  3   force =     0.21377728    0.00852321   -0.21852361
     atom   15 type  3   force =     0.22003904    0.00378584    0.18112068
     atom   16 type  3   force =     0.19628287   -0.02068720   -0.18905479
     atom   17 type  3   force =     0.22551375   -0.02031995    0.16508923
     atom   18 type  4   force =    -0.00312639    0.05864245   -0.05617270
     atom   19 type  4   force =     0.05873918    0.01058783    0.07215164
     atom   20 type  4   force =     0.05072885   -0.01967582   -0.06615202
     atom   21 type  4   force =    -0.06226887    0.02190928    0.07014738
     atom   22 type  4   force =    -0.04688324   -0.01377067   -0.07359485
     atom   23 type  5   force =    -0.04358510   -0.03296171   -0.03522612
     The ionic contribution  to forces
     atom    1 type  1   force =    -0.37571404   -4.86644661   14.12797464
     atom    2 type  1   force =   -39.73985488   -6.16735713    0.73948172
     atom    3 type  1   force =   -39.73750673    6.19659059   -0.77890975
     atom    4 type  1   force =    39.57696917   -6.34049554    0.70144250
     atom    5 type  1   force =    39.40061181    6.61304045   -1.00282176
     atom    6 type  2   force =    -0.32919553   -3.79821036  -14.20354945
     atom    7 type  2   force =    -0.88099636    3.85656800   14.04364516
     atom    8 type  3   force =   -52.37954626    0.03959470   -0.13754222
     atom    9 type  3   force =    50.61396783   -0.86851884   -1.92858114
     atom   10 type  3   force =   -36.06806365   -2.09334159  -23.04629681
     atom   11 type  3   force =   -35.16519796   -0.85615469   22.07879562
     atom   12 type  3   force =   -35.25846604    0.81319191  -22.10569832
     atom   13 type  3   force =   -36.10147954    2.24431114   23.08446094
     atom   14 type  3   force =    35.98406618   -2.13929056  -23.10240521
     atom   15 type  3   force =    35.01361065   -0.93843431   22.16679037
     atom   16 type  3   force =    35.16277513    0.86489309  -22.16619360
     atom   17 type  3   force =    35.80389624    2.55232865   23.33591522
     atom   18 type  4   force =    -0.29057079    4.52501553  -14.13715328
     atom   19 type  4   force =   -35.91658794    0.94262459  -25.48943568
     atom   20 type  4   force =   -35.96681697   -0.99336612   25.52407477
     atom   21 type  4   force =    35.79173615    0.93993818  -25.68649093
     atom   22 type  4   force =    35.32040732   -1.32796966   26.44160295
     atom   23 type  5   force =     5.54195621    0.80148856    1.54089426
     The local contribution  to forces
     atom    1 type  1   force =     0.36896786    4.85407268  -14.13359790
     atom    2 type  1   force =    39.88254045    6.32286245   -0.72624921
     atom    3 type  1   force =    39.88084010   -6.34654650    0.83398881
     atom    4 type  1   force =   -39.72250923    6.49643730   -0.70491983
     atom    5 type  1   force =   -39.57063588   -6.72817300    1.02518380
     atom    6 type  2   force =     0.30903372    3.83094779   14.28168799
     atom    7 type  2   force =     0.84770625   -3.93384490  -14.10715219
     atom    8 type  3   force =    52.56156507   -0.03924512    0.16096323
     atom    9 type  3   force =   -50.77015655    0.80524538    1.89371501
     atom   10 type  3   force =    36.28130753    2.05637720   23.19443185
     atom   11 type  3   force =    35.38443338    0.80193939  -22.23594266
     atom   12 type  3   force =    35.46271897   -0.74927698   22.22227708
     atom   13 type  3   force =    36.31324104   -2.19233096  -23.24054176
     atom   14 type  3   force =   -36.20231779    2.10113883   23.26101497
     atom   15 type  3   force =   -35.24269959    0.88750718  -22.30712007
     atom   16 type  3   force =   -35.36651714   -0.80348240   22.30282985
     atom   17 type  3   force =   -36.05563416   -2.46835713  -23.45263172
     atom   18 type  4   force =     0.28846083   -4.56321211   14.20029456
     atom   19 type  4   force =    35.74153570   -0.95871223   25.29697486
     atom   20 type  4   force =    35.79490842    1.01872645  -25.35629258
     atom   21 type  4   force =   -35.61690074   -0.97063021   25.49651721
     atom   22 type  4   force =   -35.14001904    1.33861641  -26.28600643
     atom   23 type  5   force =    -5.41071913   -0.69990476   -1.36825202
     The core correction contribution to forces
     atom    1 type  1   force =     0.00112509    0.00095241   -0.00101388
     atom    2 type  1   force =    -0.01177358   -0.00189047    0.00041657
     atom    3 type  1   force =    -0.01255024    0.00220480   -0.00093446
     atom    4 type  1   force =     0.01275314   -0.00153125    0.00230848
     atom    5 type  1   force =     0.01435445    0.00018429    0.00039024
     atom    6 type  2   force =    -0.00043480    0.00257296    0.00267241
     atom    7 type  2   force =     0.00073466   -0.00468284   -0.00280251
     atom    8 type  3   force =    -0.03066998    0.00073429    0.00021539
     atom    9 type  3   force =     0.01911194   -0.00411703   -0.00828803
     atom   10 type  3   force =    -0.02199601    0.00922131   -0.01623163
     atom   11 type  3   force =    -0.02405648    0.00920172    0.01797928
     atom   12 type  3   force =    -0.02141131   -0.00996633   -0.01528491
     atom   13 type  3   force =    -0.02032405   -0.01030809    0.01573405
     atom   14 type  3   force =     0.02132570    0.00899546   -0.01666338
     atom   15 type  3   force =     0.02418933    0.00925687    0.01513582
     atom   16 type  3   force =     0.02110587   -0.00899056   -0.01672036
     atom   17 type  3   force =     0.02382099   -0.00939834    0.01415522
     atom   18 type  4   force =     0.00023294   -0.00309306    0.00282107
     atom   19 type  4   force =    -0.00955900   -0.00004506   -0.00968679
     atom   20 type  4   force =    -0.00923044    0.00074124    0.00920105
     atom   21 type  4   force =     0.00967083   -0.00060926   -0.00964452
     atom   22 type  4   force =     0.00894510    0.00059213    0.00941990
     atom   23 type  5   force =     0.00000000    0.00000000    0.00000000
     The Hubbard contrib.    to forces
     atom    1 type  1   force =     0.00000000    0.00000000    0.00000000
     atom    2 type  1   force =     0.00000000    0.00000000    0.00000000
     atom    3 type  1   force =     0.00000000    0.00000000    0.00000000
     atom    4 type  1   force =     0.00000000    0.00000000    0.00000000
     atom    5 type  1   force =     0.00000000    0.00000000    0.00000000
     atom    6 type  2   force =     0.00000000    0.00000000    0.00000000
     atom    7 type  2   force =     0.00000000    0.00000000    0.00000000
     atom    8 type  3   force =     0.00000000    0.00000000    0.00000000
     atom    9 type  3   force =     0.00000000    0.00000000    0.00000000
     atom   10 type  3   force =     0.00000000    0.00000000    0.00000000
     atom   11 type  3   force =     0.00000000    0.00000000    0.00000000
     atom   12 type  3   force =     0.00000000    0.00000000    0.00000000
     atom   13 type  3   force =     0.00000000    0.00000000    0.00000000
     atom   14 type  3   force =     0.00000000    0.00000000    0.00000000
     atom   15 type  3   force =     0.00000000    0.00000000    0.00000000
     atom   16 type  3   force =     0.00000000    0.00000000    0.00000000
     atom   17 type  3   force =     0.00000000    0.00000000    0.00000000
     atom   18 type  4   force =     0.00000000    0.00000000    0.00000000
     atom   19 type  4   force =     0.00000000    0.00000000    0.00000000
     atom   20 type  4   force =     0.00000000    0.00000000    0.00000000
     atom   21 type  4   force =     0.00000000    0.00000000    0.00000000
     atom   22 type  4   force =     0.00000000    0.00000000    0.00000000
     atom   23 type  5   force =     0.00000000    0.00000000    0.00000000
     The SCF correction term to forces
     atom    1 type  1   force =     0.00090901    0.00033680   -0.01452459
     atom    2 type  1   force =    -0.00146892   -0.00268233   -0.02805491
     atom    3 type  1   force =    -0.00037798    0.00259281   -0.02856164
     atom    4 type  1   force =     0.00272840   -0.00416047   -0.02793457
     atom    5 type  1   force =     0.00490363    0.00066174   -0.02429263
     atom    6 type  2   force =    -0.00023644   -0.01005490   -0.02006043
     atom    7 type  2   force =     0.00816000    0.00256353   -0.01554414
     atom    8 type  3   force =    -0.00538151    0.00031178   -0.02863212
     atom    9 type  3   force =     0.01179144    0.00888634   -0.01642790
     atom   10 type  3   force =    -0.00069338   -0.00421355    0.01898095
     atom   11 type  3   force =    -0.00128796    0.00476361    0.00151226
     atom   12 type  3   force =     0.00150990    0.00278989    0.01814533
     atom   13 type  3   force =     0.00296759   -0.00529653    0.00271579
     atom   14 type  3   force =     0.00507250   -0.00711152    0.01648522
     atom   15 type  3   force =     0.00436829   -0.00052113    0.00292429
     atom   16 type  3   force =     0.00493901    0.00308331    0.01523118
     atom   17 type  3   force =     0.00777843   -0.00925498    0.00070016
     atom   18 type  4   force =     0.00237796    0.00967208   -0.01921442
     atom   19 type  4   force =    -0.00187191    0.00105953    0.01261940
     atom   20 type  4   force =     0.00289212    0.00023076    0.00421623
     atom   21 type  4   force =     0.00587021    0.00282149    0.00812979
     atom   22 type  4   force =    -0.00380556    0.00378491    0.01067571
     atom   23 type  5   force =    -0.00103643    0.00029148   -0.00350131

     Total force =     0.527315     Total SCF correction =     0.088917
     SCF correction compared to forces is large: reduce conv_thr to get better values


     Computing stress (Cartesian axis) and pressure


     negative rho (up, down):  9.088E-01 9.088E-01
          total   stress  (Ry/bohr**3)                   (kbar)     P=       87.06
   0.00066047   0.00001478   0.00004050           97.16        2.17        5.96
   0.00001478   0.00068556   0.00002526            2.17      100.85        3.72
   0.00004050   0.00002526   0.00042945            5.96        3.72       63.17


     Entering Dynamics:    iteration =    20
                           time      =   0.0041 pico-seconds


ATOMIC_POSITIONS (angstrom)
Hf            2.6709644567        2.8276636463        6.6053181245
Hf            1.2525201090        1.2868941023        5.0597518493
Hf            1.2550704065        7.3906842036        5.0894273751
Hf            4.0892498271        1.2869029543        5.0597528945
Hf            4.0867293741        7.3907489883        5.0894124870
Nb            2.6711308734        2.7974816328        3.5172864440
Nb            2.6704612589        5.8774409606        6.6360622931
Ta            1.2089509609        4.3418308111        5.0724907332
Ta            4.1179421869        4.3287554137        5.0501208252
Ta            1.3078327104        1.3145105929        2.0594668830
Ta            1.3034153444        1.3087629808        8.0965504308
Ta            1.3046801699        7.3770151391        2.0469399541
Ta            1.3085274806        7.3661919701        8.0880488385
Ta            4.0338728159        1.3145929543        2.0594587505
Ta            4.0383262385        1.3087570279        8.0965731602
Ta            4.0370841623        7.3769755354        2.0469821597
Ta            4.0332735966        7.3662653102        8.0880097186
Zr            2.6709284049        5.8676312565        3.5285133669
Zr            1.2418050915        4.3227562214        1.9987040613
Zr            1.2383661798        4.3550053681        8.1536809303
Zr            4.0999892801        4.3227408563        1.9985620585
Zr            4.1035510250        4.3549522253        8.1535570730
H             4.9926484454        5.0670443447        6.3707091078


     kinetic energy (Ekin) =           4.00147045 Ry
     temperature           =       19144.91563508 K 
     Ekin + Etot (const)   =       -2939.04639867 Ry
     Ions kinetic stress =           70.67 (kbar)
                                     53.20          44.40          80.20
                                     44.40          37.24          67.23
                                     80.20          67.23         121.57



     Linear momentum :    0.0000000000    0.0000000000   -0.0000000000

     The maximum number of steps has been reached.

     End of molecular dynamics calculation

     diffusion coefficients :
     atom     1   D =       0.00000001 cm^2/s
     atom     2   D =       0.00000001 cm^2/s
     atom     3   D =       0.00000001 cm^2/s
     atom     4   D =       0.00000003 cm^2/s
     atom     5   D =       0.00000003 cm^2/s
     atom     6   D =       0.00000002 cm^2/s
     atom     7   D =       0.00000001 cm^2/s
     atom     8   D =       0.00000001 cm^2/s
     atom     9   D =       0.00000308 cm^2/s
     atom    10   D =       0.00000000 cm^2/s
     atom    11   D =       0.00000002 cm^2/s
     atom    12   D =       0.00000001 cm^2/s
     atom    13   D =       0.00000002 cm^2/s
     atom    14   D =       0.00000001 cm^2/s
     atom    15   D =       0.00000002 cm^2/s
     atom    16   D =       0.00000001 cm^2/s
     atom    17   D =       0.00000003 cm^2/s
     atom    18   D =       0.00000002 cm^2/s
     atom    19   D =       0.00000003 cm^2/s
     atom    20   D =       0.00000008 cm^2/s
     atom    21   D =       0.00000007 cm^2/s
     atom    22   D =       0.00000013 cm^2/s
     atom    23   D =       0.00032378 cm^2/s

     < D > =       0.00001424 cm^2/s

     Writing all to output data dir outdir/pwscf.save/

     init_run     :      8.93s CPU     11.74s WALL (       1 calls)
     electrons    :   2301.84s CPU   2914.32s WALL (      20 calls)
     update_pot   :     17.88s CPU     20.37s WALL (      19 calls)
     forces       :    150.27s CPU    203.83s WALL (      20 calls)
     stress       :    301.07s CPU    352.81s WALL (      20 calls)

     Called by init_run:
     wfcinit      :      6.53s CPU      8.88s WALL (       1 calls)
     potinit      :      0.44s CPU      0.49s WALL (       1 calls)
     hinit0       :      0.92s CPU      1.08s WALL (       1 calls)

     Called by electrons:
     c_bands      :   1832.48s CPU   2340.33s WALL (     100 calls)
     sum_band     :    312.57s CPU    383.40s WALL (     100 calls)
     v_of_rho     :     10.22s CPU     12.54s WALL (     120 calls)
     newd         :    169.86s CPU    208.12s WALL (     120 calls)
     mix_rho      :      0.86s CPU      1.27s WALL (     100 calls)

     Called by c_bands:
     init_us_2    :      3.61s CPU      3.67s WALL (     482 calls)
     init_us_2:cp :      3.60s CPU      3.67s WALL (     482 calls)
     regterg      :   1818.63s CPU   2322.81s WALL (     200 calls)

     Called by *egterg:
     rdiaghg      :     63.87s CPU     80.08s WALL (    1560 calls)
     h_psi        :    925.02s CPU   1078.17s WALL (    1600 calls)
     s_psi        :    308.99s CPU    309.54s WALL (    1600 calls)
     g_psi        :      0.70s CPU      0.76s WALL (    1398 calls)

     Called by h_psi:
     h_psi:calbec :    461.17s CPU    575.25s WALL (    1600 calls)
     vloc_psi     :     96.89s CPU    134.82s WALL (    1600 calls)
     add_vuspsi   :    365.77s CPU    366.84s WALL (    1600 calls)

     General routines
     calbec       :    747.37s CPU    960.25s WALL (    2000 calls)
     fft          :      9.63s CPU     31.33s WALL (    2499 calls)
     ffts         :      0.19s CPU      0.28s WALL (     100 calls)
     fftw         :    106.24s CPU    148.19s WALL (  104792 calls)

     Parallel routines

     PWSCF        :  46m44.14s CPU  58m55.38s WALL


   This run was terminated on:   0:10: 6  16Jun2023            

=------------------------------------------------------------------------------=
   JOB DONE.
=------------------------------------------------------------------------------=
