
     Program PWSCF v.7.2 starts on 16Jun2023 at  0:10: 7 

     This program is part of the open-source Quantum ESPRESSO suite
     for quantum simulation of materials; please cite
         "P. Giannozzi et al., J. Phys.:Condens. Matter 21 395502 (2009);
         "P. Giannozzi et al., J. Phys.:Condens. Matter 29 465901 (2017);
         "P. Giannozzi et al., J. Chem. Phys. 152 154105 (2020);
          URL http://www.quantum-espresso.org", 
     in publications or presentations arising from this work. More details at
     http://www.quantum-espresso.org/quote

     Parallel version (MPI), running on    42 processors

     MPI processes distributed on     1 nodes
     173176 MiB available memory on the printing compute node when the environment starts

     Reading input from md_data/md_Hf5Nb2Ta10Zr5H_20steps_50eV_incident60_polar90.in
Warning: card &CELL ignored
Warning: card / ignored

     Current dimensions of program PWSCF are:
     Max number of different atomic species (ntypx) = 10
     Max number of k-points (npk) =  40000
     Max angular momentum in pseudopotentials (lmaxx) =  4

     File outdir/pwscf.md deleted, as requested

     gamma-point specific algorithms are used

     R & G space division:  proc/nbgrp/npool/nimage =      42
     Subspace diagonalization in iterative solution of the eigenvalue problem:
     one sub-group per band group will be used
     custom distributed-memory algorithm (size of sub-group:  2*  2 procs)


     Parallelization info
     --------------------
     sticks:   dense  smooth     PW     G-vecs:    dense   smooth      PW
     Min         262     262     63                23470    23470    2920
     Max         265     265     66                23484    23484    2942
     Sum       11057   11057   2753               986005   986005  123175

     Using Slab Decomposition



     bravais-lattice index     =            0
     lattice parameter (alat)  =      17.6500  a.u.
     unit-cell volume          =    5552.8853 (a.u.)^3
     number of atoms/cell      =           23
     number of atomic types    =            5
     number of electrons       =       277.00
     number of Kohn-Sham states=          167
     kinetic-energy cutoff     =     120.0000  Ry
     charge density cutoff     =     480.0000  Ry
     scf convergence threshold =      1.0E-03
     mixing beta               =       0.7000
     number of iterations used =            8  TF        mixing
     energy convergence thresh.=      0.0E+00
     force convergence thresh. =      0.0E+00
     Exchange-correlation=  SLA  PW   PBX  PBC
                           (   1   4   3   4   0   0   0)
     nstep                     =           20


     celldm(1)=  17.650041  celldm(2)=   0.000000  celldm(3)=   0.000000
     celldm(4)=   0.000000  celldm(5)=   0.000000  celldm(6)=   0.000000

     crystal axes: (cart. coord. in units of alat)
               a(1) = (   1.000000   0.000000   0.000000 )  
               a(2) = (   0.000000   0.929336   0.000000 )  
               a(3) = (   0.000000   0.000000   1.086698 )  

     reciprocal axes: (cart. coord. in units 2 pi/alat)
               b(1) = (  1.000000  0.000000  0.000000 )  
               b(2) = (  0.000000  1.076037  0.000000 )  
               b(3) = (  0.000000  0.000000  0.920219 )  


     PseudoPot. # 1 for Hf read from file:
     q-e/pseudo/hf_pbe_v1.uspp.F.UPF
     MD5 check sum: 8ee9378dfe14276e333edf04c5e4aa26
     Pseudo is Ultrasoft + core correction, Zval = 12.0
     Generated by new atomic code, or converted to UPF format
     Using radial grid of  921 points,  8 beta functions with: 
                l(1) =   0
                l(2) =   0
                l(3) =   0
                l(4) =   1
                l(5) =   1
                l(6) =   2
                l(7) =   2
                l(8) =   3
     Q(r) pseudized with  6 coefficients,  rinner =    1.200   1.200   1.200
                                                       1.200   1.200   1.200
                                                       1.200

     PseudoPot. # 2 for Nb read from file:
     q-e/pseudo/nb_pbe_v1.uspp.F.UPF
     MD5 check sum: 573aab8a2fa660278ed4a62cd769473f
     Pseudo is Ultrasoft + core correction, Zval = 13.0
     Generated by new atomic code, or converted to UPF format
     Using radial grid of  887 points,  6 beta functions with: 
                l(1) =   0
                l(2) =   0
                l(3) =   1
                l(4) =   1
                l(5) =   2
                l(6) =   2
     Q(r) pseudized with  6 coefficients,  rinner =    1.000   1.000   1.000
                                                       1.000   1.000

     PseudoPot. # 3 for Ta read from file:
     q-e/pseudo/ta_pbe_v1.uspp.F.UPF
     MD5 check sum: f8bbe9446314a3b8ea5d9f3e3836c939
     Pseudo is Ultrasoft + core correction, Zval = 13.0
     Generated by new atomic code, or converted to UPF format
     Using radial grid of  921 points,  7 beta functions with: 
                l(1) =   0
                l(2) =   0
                l(3) =   1
                l(4) =   1
                l(5) =   2
                l(6) =   2
                l(7) =   3
     Q(r) pseudized with  6 coefficients,  rinner =    1.300   1.300   1.300
                                                       1.300   1.300   1.300
                                                       1.300

     PseudoPot. # 4 for Zr read from file:
     q-e/pseudo/zr_pbe_v1.uspp.F.UPF
     MD5 check sum: 5db81b1e868ab7776c4564c113de050b
     Pseudo is Ultrasoft + core correction, Zval = 12.0
     Generated by new atomic code, or converted to UPF format
     Using radial grid of  887 points,  6 beta functions with: 
                l(1) =   0
                l(2) =   0
                l(3) =   1
                l(4) =   1
                l(5) =   2
                l(6) =   2
     Q(r) pseudized with  6 coefficients,  rinner =    1.200   1.200   1.200
                                                       1.200   1.200

     PseudoPot. # 5 for H  read from file:
     q-e/pseudo/h_pbe_v1.4.uspp.F.UPF
     MD5 check sum: 761ae9a214b05c3daf00ab9f6b793d6f
     Pseudo is Ultrasoft, Zval =  1.0
     Generated by new atomic code, or converted to UPF format
     Using radial grid of  615 points,  2 beta functions with: 
                l(1) =   0
                l(2) =   0
     Q(r) pseudized with  8 coefficients,  rinner =    0.700

     atomic species   valence    mass     pseudopotential
        Hf            12.00   178.49000     Hf( 1.00)
        Nb            13.00    92.90637     Nb( 1.00)
        Ta            13.00   180.94788     Ta( 1.00)
        Zr            12.00    91.22400     Zr( 1.00)
        H              1.00     2.01400     H ( 1.00)

     Starting magnetic structure 
     atomic species   magnetization
        Hf           0.000
        Nb           0.000
        Ta           0.000
        Zr           0.000
        H            0.000

     No symmetry found



   Cartesian axes

     site n.     atom                  positions (alat units)
         1           Hf  tau(   1) = (   0.2858672   0.3026898   0.7070626  )
         2           Hf  tau(   2) = (   0.1341532   0.1377178   0.5415917  )
         3           Hf  tau(   3) = (   0.1344204   0.7911996   0.5447610  )
         4           Hf  tau(   4) = (   0.4375813   0.1377178   0.5415917  )
         5           Hf  tau(   5) = (   0.4373140   0.7911996   0.5447610  )
         6           Nb  tau(   6) = (   0.2858672   0.2994572   0.3764008  )
         7           Nb  tau(   7) = (   0.2858672   0.6291626   0.7103852  )
         8           Ta  tau(   8) = (   0.1294832   0.4647675   0.5429471  )
         9           Ta  tau(   9) = (   0.4422513   0.4647675   0.5429471  )
        10           Ta  tau(  10) = (   0.1399628   0.1406984   0.2204260  )
        11           Ta  tau(  11) = (   0.1394848   0.1400847   0.8666573  )
        12           Ta  tau(  12) = (   0.1396156   0.7897030   0.2190832  )
        13           Ta  tau(  13) = (   0.1400119   0.7885528   0.8657390  )
        14           Ta  tau(  14) = (   0.4317717   0.1406984   0.2204260  )
        15           Ta  tau(  15) = (   0.4322496   0.1400847   0.8666573  )
        16           Ta  tau(  16) = (   0.4321189   0.7897030   0.2190832  )
        17           Ta  tau(  17) = (   0.4317226   0.7885528   0.8657390  )
        18           Zr  tau(  18) = (   0.2858672   0.6280820   0.3776642  )
        19           Zr  tau(  19) = (   0.1331729   0.4627493   0.2141328  )
        20           Zr  tau(  20) = (   0.1328036   0.4661802   0.8725649  )
        21           Zr  tau(  21) = (   0.4385616   0.4627493   0.2141328  )
        22           Zr  tau(  22) = (   0.4389309   0.4661802   0.8725649  )
        23           H   tau(  23) = (   0.5493177   0.4646681   0.7285044  )

     number of k points=     1  Gaussian smearing, width (Ry)=  0.0220
                       cart. coord. in units 2pi/alat
        k(    1) = (   0.0000000   0.0000000   0.0000000), wk =   1.0000000

     Dense  grid:   493003 G-vectors     FFT dimensions: ( 125, 120, 135)

     Estimated max dynamical RAM per process >     133.03 MB

     Estimated total dynamical RAM >       5.46 GB

     Check: negative core charge=   -0.000002
     Generating pointlists ...
     new r_m :   0.1117 (alat units)  1.9717 (a.u.) for type    1
     new r_m :   0.1098 (alat units)  1.9374 (a.u.) for type    2
     new r_m :   0.0884 (alat units)  1.5597 (a.u.) for type    3
     new r_m :   0.0749 (alat units)  1.3214 (a.u.) for type    4
     new r_m :   0.0749 (alat units)  1.3214 (a.u.) for type    5

     Initial potential from superposition of free atoms

     starting charge     266.9726, renormalised to     277.0000

     negative rho (up, down):  9.216E-01 9.216E-01
     Starting wfcs are  287 randomized atomic wfcs

     total cpu time spent up to now is       12.2 secs

     Self-consistent Calculation

     iteration #  1     ecut=   120.00 Ry     beta= 0.70
     Davidson diagonalization with overlap
     ethr =  1.00E-02,  avg # of iterations =  2.0

     negative rho (up, down):  9.973E-01 9.968E-01

     total cpu time spent up to now is       32.9 secs

     total energy              =   -2930.56885715 Ry
     estimated scf accuracy    <     276.33954164 Ry

     total magnetization       =    -0.00 Bohr mag/cell
     absolute magnetization    =     0.09 Bohr mag/cell

     iteration #  2     ecut=   120.00 Ry     beta= 0.70
     Davidson diagonalization with overlap
     ethr =  1.00E-02,  avg # of iterations =  5.0

     negative rho (up, down):  9.670E-01 9.691E-01

     total cpu time spent up to now is       77.7 secs

     total energy              =   -2942.26739736 Ry
     estimated scf accuracy    <      29.80125270 Ry

     total magnetization       =    -0.12 Bohr mag/cell
     absolute magnetization    =     0.52 Bohr mag/cell

     iteration #  3     ecut=   120.00 Ry     beta= 0.70
     Davidson diagonalization with overlap
     ethr =  1.00E-02,  avg # of iterations =  2.0

     negative rho (up, down):  9.996E-01 1.004E+00

     total cpu time spent up to now is      113.5 secs

     total energy              =   -2942.69255299 Ry
     estimated scf accuracy    <      12.94947958 Ry

     total magnetization       =    -0.15 Bohr mag/cell
     absolute magnetization    =     0.62 Bohr mag/cell

     iteration #  4     ecut=   120.00 Ry     beta= 0.70
     Davidson diagonalization with overlap
     ethr =  4.67E-03,  avg # of iterations =  3.0

     negative rho (up, down):  1.003E+00 1.015E+00

     total cpu time spent up to now is      130.6 secs

     total energy              =   -2942.89440845 Ry
     estimated scf accuracy    <       3.32864640 Ry

     total magnetization       =    -0.16 Bohr mag/cell
     absolute magnetization    =     0.79 Bohr mag/cell

     iteration #  5     ecut=   120.00 Ry     beta= 0.70
     Davidson diagonalization with overlap
     ethr =  1.20E-03,  avg # of iterations =  8.0

     negative rho (up, down):  9.812E-01 9.892E-01

     total cpu time spent up to now is      152.9 secs

     total energy              =   -2943.06246245 Ry
     estimated scf accuracy    <       1.86874597 Ry

     total magnetization       =    -0.18 Bohr mag/cell
     absolute magnetization    =     0.46 Bohr mag/cell

     iteration #  6     ecut=   120.00 Ry     beta= 0.70
     Davidson diagonalization with overlap
     ethr =  6.75E-04,  avg # of iterations =  2.0

     negative rho (up, down):  9.672E-01 9.723E-01

     total cpu time spent up to now is      169.5 secs

     total energy              =   -2943.11242242 Ry
     estimated scf accuracy    <       0.90308425 Ry

     total magnetization       =    -0.10 Bohr mag/cell
     absolute magnetization    =     0.35 Bohr mag/cell

     iteration #  7     ecut=   120.00 Ry     beta= 0.70
     Davidson diagonalization with overlap
     ethr =  3.26E-04,  avg # of iterations =  2.0

     negative rho (up, down):  9.419E-01 9.433E-01

     total cpu time spent up to now is      185.7 secs

     total energy              =   -2943.06431372 Ry
     estimated scf accuracy    <       0.39045684 Ry

     total magnetization       =    -0.10 Bohr mag/cell
     absolute magnetization    =     0.30 Bohr mag/cell

     iteration #  8     ecut=   120.00 Ry     beta= 0.70
     Davidson diagonalization with overlap
     ethr =  1.41E-04,  avg # of iterations =  7.0

     negative rho (up, down):  9.188E-01 9.184E-01

     total cpu time spent up to now is      216.7 secs

     total energy              =   -2943.06564875 Ry
     estimated scf accuracy    <       0.17274867 Ry

     total magnetization       =    -0.10 Bohr mag/cell
     absolute magnetization    =     0.23 Bohr mag/cell

     iteration #  9     ecut=   120.00 Ry     beta= 0.70
     Davidson diagonalization with overlap
     ethr =  6.24E-05,  avg # of iterations =  9.0

     negative rho (up, down):  9.074E-01 9.072E-01

     total cpu time spent up to now is      256.1 secs

     total energy              =   -2943.06008470 Ry
     estimated scf accuracy    <       0.05702928 Ry

     total magnetization       =    -0.08 Bohr mag/cell
     absolute magnetization    =     0.16 Bohr mag/cell

     iteration # 10     ecut=   120.00 Ry     beta= 0.70
     Davidson diagonalization with overlap
     ethr =  2.06E-05,  avg # of iterations = 11.0

     negative rho (up, down):  9.086E-01 9.086E-01

     total cpu time spent up to now is      283.8 secs

     total energy              =   -2943.06338886 Ry
     estimated scf accuracy    <       0.03607727 Ry

     total magnetization       =    -0.06 Bohr mag/cell
     absolute magnetization    =     0.11 Bohr mag/cell

     iteration # 11     ecut=   120.00 Ry     beta= 0.70
     Davidson diagonalization with overlap
     ethr =  1.30E-05,  avg # of iterations =  3.5

     negative rho (up, down):  9.090E-01 9.090E-01

     total cpu time spent up to now is      301.5 secs

     total energy              =   -2943.06819184 Ry
     estimated scf accuracy    <       0.00665640 Ry

     total magnetization       =    -0.05 Bohr mag/cell
     absolute magnetization    =     0.08 Bohr mag/cell

     iteration # 12     ecut=   120.00 Ry     beta= 0.70
     Davidson diagonalization with overlap
     ethr =  2.40E-06,  avg # of iterations = 14.5

     negative rho (up, down):  9.090E-01 9.090E-01

     total cpu time spent up to now is      323.6 secs

     total energy              =   -2943.07051972 Ry
     estimated scf accuracy    <       0.00170693 Ry

     total magnetization       =    -0.04 Bohr mag/cell
     absolute magnetization    =     0.07 Bohr mag/cell

     iteration # 13     ecut=   120.00 Ry     beta= 0.70
     Davidson diagonalization with overlap
     ethr =  6.16E-07,  avg # of iterations =  5.0

     negative rho (up, down):  9.087E-01 9.087E-01

     Magnetic moment per site  (integrated on atomic sphere of radius R)
     atom   1 (R=0.112)  charge=  9.4654   -0.0002
     atom   2 (R=0.112)  charge=  9.0575   -0.0001
     atom   3 (R=0.112)  charge=  9.0571   -0.0000
     atom   4 (R=0.112)  charge=  9.0619   -0.0003
     atom   5 (R=0.112)  charge=  9.0607   -0.0002
     atom   6 (R=0.110)  charge= 10.3472    0.0005
     atom   7 (R=0.110)  charge= 10.3524   -0.0001
     atom   8 (R=0.088)  charge=  8.1326   -0.0001
     atom   9 (R=0.088)  charge=  8.1278    0.0002
     atom  10 (R=0.088)  charge=  8.1104   -0.0007
     atom  11 (R=0.088)  charge=  8.1069   -0.0001
     atom  12 (R=0.088)  charge=  8.1100   -0.0025
     atom  13 (R=0.088)  charge=  8.1083   -0.0006
     atom  14 (R=0.088)  charge=  8.1078   -0.0007
     atom  15 (R=0.088)  charge=  8.1086    0.0002
     atom  16 (R=0.088)  charge=  8.1073   -0.0007
     atom  17 (R=0.088)  charge=  8.1123   -0.0004
     atom  18 (R=0.075)  charge=  5.8238    0.0000
     atom  19 (R=0.075)  charge=  5.7436   -0.0012
     atom  20 (R=0.075)  charge=  5.7431   -0.0001
     atom  21 (R=0.075)  charge=  5.7422   -0.0007
     atom  22 (R=0.075)  charge=  5.7565    0.0001
     atom  23 (R=0.075)  charge=  0.9831   -0.0000

     total cpu time spent up to now is      341.8 secs

     End of self-consistent calculation

 ------ SPIN UP ------------


          k = 0.0000 0.0000 0.0000 ( 61588 PWs)   bands (ev):

   -60.7735 -60.7694 -60.7256 -60.7240 -60.6909 -60.6902 -60.6471 -60.6409
   -60.5543 -60.5010 -54.3781 -54.3324 -54.2533 -54.2079 -52.7094 -46.2580
   -46.2305 -41.5975 -41.5927 -41.4918 -41.2319 -39.7675 -27.7745 -27.7661
   -27.6836 -27.6828 -27.5893 -27.5776 -27.4597 -27.4464 -27.4255 -27.3302
   -27.3136 -27.2606 -27.2552 -27.2424 -27.2183 -27.1778 -27.1652 -27.1527
   -27.1294 -27.1170 -27.0604 -27.0367 -26.9469 -26.9454 -26.9390 -26.9257
   -26.8795 -26.8702 -26.8445 -26.8433 -24.1628 -23.9552 -23.6482 -23.5682
   -23.3080 -23.1768 -23.1506 -23.0558 -22.9241 -22.8531 -22.8398 -22.6210
   -22.4914 -22.4356 -22.3792 -22.3427 -22.2607 -22.2205 -21.7500 -21.7087
   -21.6297 -20.1660 -19.8369 -19.8076 -19.7789 -19.5866 -19.5700 -19.5468
   -19.5310 -19.3494 -19.3396 -19.3167 -19.1580 -18.1170 -17.9143 -17.7788
     1.3636   2.3334   2.9543   3.1528   3.3233   3.4202   3.4888   3.6466
     3.7002   3.7503   3.9357   4.0084   4.2831   4.4342   4.5644   4.7101
     4.7396   4.9745   5.0244   5.0762   5.1356   5.2717   5.3042   5.3109
     5.3950   5.5689   5.5807   5.7277   5.7393   5.7550   5.7920   5.8707
     5.9410   6.0721   6.1473   6.2360   6.2904   6.3415   6.3835   6.3983
     6.4578   6.6504   6.6606   6.6808   6.8621   6.9991   7.0435   7.0606
     7.1193   7.1522   7.2779   7.3230   7.3700   7.4370   7.5168   7.6147
     7.6615   7.7266   7.9065   8.0029   8.0780   8.1119   8.1414   8.1494
     8.2645   8.3252   8.3321   8.3709   8.5101   8.5254   8.6315   8.7756
     8.8268   8.9264   9.0000   9.0720   9.2182   9.2612   9.2930

 ------ SPIN DOWN ----------


          k = 0.0000 0.0000 0.0000 ( 61588 PWs)   bands (ev):

   -60.7740 -60.7704 -60.7261 -60.7251 -60.6922 -60.6904 -60.6485 -60.6409
   -60.5540 -60.5010 -54.3782 -54.3325 -54.2533 -54.2080 -52.7095 -46.2580
   -46.2299 -41.6000 -41.5926 -41.4940 -41.2316 -39.7674 -27.7752 -27.7677
   -27.6856 -27.6833 -27.5901 -27.5788 -27.4601 -27.4482 -27.4256 -27.3308
   -27.3143 -27.2613 -27.2562 -27.2426 -27.2192 -27.1779 -27.1655 -27.1540
   -27.1291 -27.1170 -27.0606 -27.0365 -26.9477 -26.9466 -26.9395 -26.9275
   -26.8799 -26.8723 -26.8463 -26.8436 -24.1629 -23.9552 -23.6484 -23.5682
   -23.3081 -23.1769 -23.1507 -23.0558 -22.9242 -22.8533 -22.8397 -22.6210
   -22.4911 -22.4352 -22.3792 -22.3426 -22.2606 -22.2203 -21.7503 -21.7090
   -21.6298 -20.1684 -19.8367 -19.8103 -19.7811 -19.5868 -19.5723 -19.5473
   -19.5330 -19.3491 -19.3423 -19.3164 -19.1578 -18.1169 -17.9146 -17.7790
     1.3631   2.3331   2.9526   3.1523   3.3227   3.4200   3.4873   3.6461
     3.6999   3.7497   3.9339   4.0076   4.2825   4.4333   4.5638   4.7089
     4.7390   4.9739   5.0233   5.0751   5.1348   5.2708   5.3033   5.3101
     5.3935   5.5685   5.5800   5.7272   5.7390   5.7535   5.7913   5.8700
     5.9406   6.0710   6.1459   6.2351   6.2896   6.3405   6.3824   6.3974
     6.4566   6.6496   6.6595   6.6798   6.8611   6.9982   7.0404   7.0585
     7.1154   7.1503   7.2746   7.3218   7.3676   7.4325   7.5133   7.6136
     7.6599   7.7257   7.9052   8.0015   8.0759   8.1096   8.1398   8.1470
     8.2609   8.3238   8.3308   8.3680   8.5087   8.5238   8.6299   8.7741
     8.8256   8.9233   8.9990   9.0713   9.2177   9.2596   9.2914

     the Fermi energy is     7.2571 ev

!    total energy              =   -2943.07158714 Ry
     estimated scf accuracy    <       0.00042830 Ry
     smearing contrib. (-TS)   =      -0.10103092 Ry
     internal energy E=F+TS    =   -2942.97055622 Ry

     total magnetization       =    -0.04 Bohr mag/cell
     absolute magnetization    =     0.06 Bohr mag/cell

     convergence has been achieved in  13 iterations

     negative rho (up, down):  9.087E-01 9.087E-01

     Forces acting on atoms (cartesian axes, Ry/au):

     atom    1 type  1   force =    -0.01293900   -0.02396578   -0.00017388
     atom    2 type  1   force =    -0.11311450   -0.01355169   -0.00367788
     atom    3 type  1   force =    -0.11099274    0.01067263    0.00235132
     atom    4 type  1   force =     0.11091946   -0.02500693   -0.00725250
     atom    5 type  1   force =     0.11183315    0.02224804   -0.00012697
     atom    6 type  2   force =    -0.00305790   -0.01596652    0.00850185
     atom    7 type  2   force =    -0.01291577    0.01603994   -0.00946389
     atom    8 type  3   force =    -0.10416167    0.00272298   -0.00565567
     atom    9 type  3   force =     0.12590986    0.00204601    0.02437111
     atom   10 type  3   force =    -0.02499004   -0.03264346   -0.05967565
     atom   11 type  3   force =    -0.01659111   -0.03456936    0.05685094
     atom   12 type  3   force =    -0.01952800    0.03845455   -0.05416210
     atom   13 type  3   force =    -0.01645688    0.02927180    0.06069015
     atom   14 type  3   force =     0.02335163   -0.02986559   -0.05541434
     atom   15 type  3   force =     0.01438373   -0.04417106    0.05452709
     atom   16 type  3   force =     0.01923466    0.03593861   -0.05020527
     atom   17 type  3   force =     0.01280643    0.03690456    0.05702406
     atom   18 type  4   force =    -0.00757579    0.02415907   -0.01137568
     atom   19 type  4   force =    -0.12980969   -0.00564907   -0.11407807
     atom   20 type  4   force =    -0.12948803    0.00557304    0.11447047
     atom   21 type  4   force =     0.13062387   -0.00575447   -0.11083302
     atom   22 type  4   force =     0.07948896    0.00969341    0.18853367
     atom   23 type  5   force =     0.07306935   -0.00258071   -0.08522574
     The non-local contrib.  to forces
     atom    1 type  1   force =     0.00689991   -0.00845908    0.02711547
     atom    2 type  1   force =    -0.24458167   -0.16379360    0.01689176
     atom    3 type  1   force =    -0.23826483    0.15876483   -0.02553953
     atom    4 type  1   force =     0.25420342   -0.16570207    0.03390325
     atom    5 type  1   force =     0.24612337    0.15991362   -0.00891812
     atom    6 type  2   force =     0.00674681   -0.04127784   -0.05818660
     atom    7 type  2   force =    -0.00539405    0.06165903    0.05223292
     atom    8 type  3   force =    -0.26282610    0.00035640    0.00155879
     atom    9 type  3   force =     0.25075929   -0.00318832    0.01608887
     atom   10 type  3   force =    -0.21411681    0.00582484   -0.20511402
     atom   11 type  3   force =    -0.21970541    0.00703300    0.19593943
     atom   12 type  3   force =    -0.20387672   -0.02004025   -0.17557244
     atom   13 type  3   force =    -0.20824118   -0.00312754    0.20727056
     atom   14 type  3   force =     0.21277545    0.00792172   -0.21725169
     atom   15 type  3   force =     0.23450430    0.01141186    0.17527812
     atom   16 type  3   force =     0.20218205   -0.02299498   -0.18657375
     atom   17 type  3   force =     0.22100688   -0.00869785    0.18295339
     atom   18 type  4   force =     0.00805017    0.05033522   -0.05532514
     atom   19 type  4   force =     0.05954003    0.00843941    0.07900222
     atom   20 type  4   force =     0.04526248   -0.01405264   -0.06303742
     atom   21 type  4   force =    -0.05762801    0.00716587    0.07585753
     atom   22 type  4   force =    -0.04663366   -0.00958136   -0.07691031
     atom   23 type  5   force =    -0.04739427   -0.00005004    0.01736074
     The ionic contribution  to forces
     atom    1 type  1   force =    -0.59155748   -4.92877962   13.89673837
     atom    2 type  1   force =   -39.72622737   -6.18392171    0.69122491
     atom    3 type  1   force =   -39.69953250    6.17129128   -0.80313856
     atom    4 type  1   force =    39.52592293   -6.37741369    0.55159817
     atom    5 type  1   force =    39.49616371    6.36865937   -0.94291824
     atom    6 type  2   force =    -0.15297840   -3.61495218  -14.04786268
     atom    7 type  2   force =    -0.63335400    3.95219790   13.82592028
     atom    8 type  3   force =   -52.23731661    0.07188856   -0.22880201
     atom    9 type  3   force =    51.19842319    0.07261683   -1.59530055
     atom   10 type  3   force =   -36.07104284   -2.11191071  -23.03639722
     atom   11 type  3   force =   -35.20374765   -0.92192344   22.10293730
     atom   12 type  3   force =   -35.25506649    0.81430311  -22.08934498
     atom   13 type  3   force =   -36.10433760    2.25605817   23.08114390
     atom   14 type  3   force =    35.99382972   -2.13935862  -23.05304997
     atom   15 type  3   force =    34.93655339   -1.18815188   22.24205371
     atom   16 type  3   force =    35.17832046    0.84154502  -22.10531670
     atom   17 type  3   force =    35.83437154    2.52426116   23.22029131
     atom   18 type  4   force =    -0.14282079    4.41954989  -14.00020660
     atom   19 type  4   force =   -35.91910460    0.95672503  -25.49279200
     atom   20 type  4   force =   -36.04327911   -0.95227781   25.58432871
     atom   21 type  4   force =    35.81544650    0.95623006  -25.52588275
     atom   22 type  4   force =    34.47204303   -0.93458780   27.27536576
     atom   23 type  5   force =     5.32929094   -0.05204892    0.44940985
     The local contribution  to forces
     atom    1 type  1   force =     0.56785994    4.91245319  -13.93260720
     atom    2 type  1   force =    39.87886184    6.33454509   -0.71228614
     atom    3 type  1   force =    39.84860846   -6.32031528    0.83254151
     atom    4 type  1   force =   -39.69377244    6.51970673   -0.59679729
     atom    5 type  1   force =   -39.65476513   -6.50852053    0.95303505
     atom    6 type  2   force =     0.14087218    3.63811598   14.12005261
     atom    7 type  2   force =     0.62767413   -3.99488287  -13.89554057
     atom    8 type  3   force =    52.43204711   -0.07008575    0.22134399
     atom    9 type  3   force =   -51.35370845   -0.06670118    1.60932008
     atom   10 type  3   force =    36.27963952    2.06484895   23.20511364
     atom   11 type  3   force =    35.43322963    0.87034147  -22.26815049
     atom   12 type  3   force =    35.45854082   -0.74250410   22.23429414
     atom   13 type  3   force =    36.32247066   -2.21262098  -23.25315437
     atom   14 type  3   force =   -36.20976816    2.09563586   23.23992481
     atom   15 type  3   force =   -35.19076978    1.11863580  -22.38550898
     atom   16 type  3   force =   -35.38687846   -0.77210225   22.26587929
     atom   17 type  3   force =   -36.07043887   -2.47079863  -23.37064154
     atom   18 type  4   force =     0.12510673   -4.44565740   14.05199310
     atom   19 type  4   force =    35.73528478   -0.97417613   25.32042567
     atom   20 type  4   force =    35.87609977    0.96972486  -25.42629461
     atom   21 type  4   force =   -35.63634961   -0.97251594   25.36122833
     atom   22 type  4   force =   -34.35291564    0.95585958  -27.03526667
     atom   23 type  5   force =    -5.20944906    0.04972996   -0.55301451
     The core correction contribution to forces
     atom    1 type  1   force =     0.00179385    0.00213487   -0.00028613
     atom    2 type  1   force =    -0.01229982   -0.00195179    0.00035770
     atom    3 type  1   force =    -0.01243234    0.00282160   -0.00180945
     atom    4 type  1   force =     0.01428959   -0.00322237    0.00329876
     atom    5 type  1   force =     0.01461062    0.00322094    0.00124810
     atom    6 type  2   force =    -0.00044296    0.00178921    0.00224046
     atom    7 type  2   force =     0.00042377   -0.00303193   -0.00191380
     atom    8 type  3   force =    -0.03298256    0.00023445   -0.00068423
     atom    9 type  3   force =     0.02710777   -0.00009521   -0.00395887
     atom   10 type  3   force =    -0.02166726    0.00918157   -0.01592107
     atom   11 type  3   force =    -0.02368414    0.00980159    0.01734942
     atom   12 type  3   force =    -0.02162547   -0.00965892   -0.01528445
     atom   13 type  3   force =    -0.02209752   -0.00925962    0.01688993
     atom   14 type  3   force =     0.02190806    0.00870754   -0.01669563
     atom   15 type  3   force =     0.02649508    0.01094181    0.01454915
     atom   16 type  3   force =     0.02164357   -0.00894931   -0.01614089
     atom   17 type  3   force =     0.02391576   -0.00972043    0.01482453
     atom   18 type  4   force =    -0.00056798   -0.00261580    0.00258645
     atom   19 type  4   force =    -0.00962016    0.00004544   -0.00981789
     atom   20 type  4   force =    -0.00872127    0.00036701    0.00908617
     atom   21 type  4   force =     0.00950885    0.00011927   -0.00979237
     atom   22 type  4   force =     0.00619966    0.00019005    0.01250736
     atom   23 type  5   force =     0.00000000    0.00000000    0.00000000
     The Hubbard contrib.    to forces
     atom    1 type  1   force =     0.00000000    0.00000000    0.00000000
     atom    2 type  1   force =     0.00000000    0.00000000    0.00000000
     atom    3 type  1   force =     0.00000000    0.00000000    0.00000000
     atom    4 type  1   force =     0.00000000    0.00000000    0.00000000
     atom    5 type  1   force =     0.00000000    0.00000000    0.00000000
     atom    6 type  2   force =     0.00000000    0.00000000    0.00000000
     atom    7 type  2   force =     0.00000000    0.00000000    0.00000000
     atom    8 type  3   force =     0.00000000    0.00000000    0.00000000
     atom    9 type  3   force =     0.00000000    0.00000000    0.00000000
     atom   10 type  3   force =     0.00000000    0.00000000    0.00000000
     atom   11 type  3   force =     0.00000000    0.00000000    0.00000000
     atom   12 type  3   force =     0.00000000    0.00000000    0.00000000
     atom   13 type  3   force =     0.00000000    0.00000000    0.00000000
     atom   14 type  3   force =     0.00000000    0.00000000    0.00000000
     atom   15 type  3   force =     0.00000000    0.00000000    0.00000000
     atom   16 type  3   force =     0.00000000    0.00000000    0.00000000
     atom   17 type  3   force =     0.00000000    0.00000000    0.00000000
     atom   18 type  4   force =     0.00000000    0.00000000    0.00000000
     atom   19 type  4   force =     0.00000000    0.00000000    0.00000000
     atom   20 type  4   force =     0.00000000    0.00000000    0.00000000
     atom   21 type  4   force =     0.00000000    0.00000000    0.00000000
     atom   22 type  4   force =     0.00000000    0.00000000    0.00000000
     atom   23 type  5   force =     0.00000000    0.00000000    0.00000000
     The SCF correction term to forces
     atom    1 type  1   force =     0.00192549   -0.00133813    0.00876995
     atom    2 type  1   force =    -0.00900677    0.00154733    0.00003824
     atom    3 type  1   force =    -0.00951081   -0.00191280    0.00020171
     atom    4 type  1   force =     0.01013667    0.00160149    0.00064898
     atom    5 type  1   force =     0.00956130   -0.00104834   -0.00266940
     atom    6 type  2   force =     0.00260519    0.00033533   -0.00783759
     atom    7 type  2   force =    -0.00240490    0.00007483    0.00974164
     atom    8 type  3   force =    -0.00322280    0.00030632    0.00083215
     atom    9 type  3   force =     0.00318878   -0.00060909   -0.00187406
     atom   10 type  3   force =     0.00205808   -0.00061111   -0.00745262
     atom   11 type  3   force =    -0.00282283    0.00015503    0.00867963
     atom   12 type  3   force =     0.00236058   -0.00366828   -0.00835001
     atom   13 type  3   force =    -0.00439053   -0.00180122    0.00844449
     atom   14 type  3   force =     0.00446728   -0.00279509   -0.00843751
     atom   15 type  3   force =     0.00746145    0.00296837    0.00805945
     atom   16 type  3   force =     0.00382777   -0.00158287   -0.00814887
     atom   17 type  3   force =     0.00381184    0.00183732    0.00950073
     atom   18 type  4   force =     0.00251681    0.00252417   -0.01051914
     atom   19 type  4   force =     0.00395098    0.00329419   -0.01099172
     atom   20 type  4   force =     0.00101081    0.00178863    0.01029198
     atom   21 type  4   force =    -0.00049314    0.00322328   -0.01233941
     atom   22 type  4   force =     0.00065629   -0.00221005    0.01274188
     atom   23 type  5   force =     0.00048246   -0.00023471    0.00092254

     Total force =     0.512853     Total SCF correction =     0.046026


     Computing stress (Cartesian axis) and pressure


     negative rho (up, down):  9.087E-01 9.087E-01
          total   stress  (Ry/bohr**3)                   (kbar)     P=       87.11
   0.00067933  -0.00000164  -0.00002287           99.93       -0.24       -3.36
  -0.00000164   0.00067522  -0.00001094           -0.24       99.33       -1.61
  -0.00002287  -0.00001094   0.00042201           -3.36       -1.61       62.08


     Molecular Dynamics Calculation

     Starting temperature  =   300.00 K

     temperature is set once at start

     mass Hf               =   178.49
     mass Nb               =    92.91
     mass Ta               =   180.95
     mass Zr               =    91.22
     mass H                =     2.01
     Time step             =     4.20 a.u.,  0.2032 femto-seconds

     Entering Dynamics:    iteration =     1
                           time      =   0.0002 pico-seconds


ATOMIC_POSITIONS (angstrom)
Hf            2.6700440284        2.8271223416        6.6040411922
Hf            1.2530318776        1.2862837926        5.0585430992
Hf            1.2555281569        7.3898046010        5.0881448135
Hf            4.0870568587        1.2862834640        5.0585429966
Hf            4.0845606665        7.3898049331        5.0881447423
Nb            2.6700442311        2.7969297255        3.5156606639
Nb            2.6700436877        5.8763795604        6.6350744002
Ta            1.2094145509        4.3409279287        5.0712026508
Ta            4.1306748639        4.3409279095        5.0712035006
Ta            1.3072964195        1.3141216656        2.0588543999
Ta            1.3028322873        1.3083901577        8.0946577899
Ta            1.3040535121        7.3758272124        2.0463126256
Ta            1.3077547753        7.3650837768        8.0860809169
Ta            4.0327923334        1.3141217442        2.0588545205
Ta            4.0372564495        1.3083898860        8.0946577241
Ta            4.0360352789        7.3758271412        2.0463127376
Ta            4.0323339207        7.3650839928        8.0860808132
Zr            2.6700439744        5.8662871996        3.5274602704
Zr            1.2438717748        4.3220776474        2.0000705749
Zr            1.2404225866        4.3541235973        8.1498389536
Zr            4.0962170701        4.3220776415        2.0000707570
Zr            4.0996634060        4.3541238286        8.1498431112
H             5.0570241665        4.3399933884        6.6762056868


     kinetic energy (Ekin) =           4.04922334 Ry
     temperature           =       19373.38789672 K 
     Ekin + Etot (const)   =       -2939.02236380 Ry
     Ions kinetic stress =           71.51 (kbar)
                                     53.63           0.00          92.90
                                      0.00           0.00           0.00
                                     92.90           0.00         160.91



     Linear momentum :   -0.0000000000    0.0000000000    0.0000000000

     File outdir/pwscf.msd.dat deleted, as requested

     Writing config-only to output data dir outdir/pwscf.save/
     NEW-OLD atomic charge density approx. for the potential

     Check: negative core charge=   -0.000002

     negative rho (up, down):  9.087E-01 9.087E-01
     Generating pointlists ...
     new r_m :   0.0818 (alat units)  1.4446 (a.u.) for type    3

     total cpu time spent up to now is      366.3 secs

     Self-consistent Calculation

     iteration #  1     ecut=   120.00 Ry     beta= 0.70
     Davidson diagonalization with overlap
     ethr =  1.00E-06,  avg # of iterations =  7.0

     negative rho (up, down):  9.087E-01 9.087E-01

     total cpu time spent up to now is      396.2 secs

     total energy              =   -2943.07587693 Ry
     estimated scf accuracy    <       0.02046007 Ry

     total magnetization       =    -0.04 Bohr mag/cell
     absolute magnetization    =     0.05 Bohr mag/cell

     iteration #  2     ecut=   120.00 Ry     beta= 0.70
     Davidson diagonalization with overlap
     ethr =  7.39E-06,  avg # of iterations =  2.0

     negative rho (up, down):  9.086E-01 9.086E-01

     total cpu time spent up to now is      413.7 secs

     total energy              =   -2943.07745300 Ry
     estimated scf accuracy    <       0.00393002 Ry

     total magnetization       =    -0.03 Bohr mag/cell
     absolute magnetization    =     0.04 Bohr mag/cell

     iteration #  3     ecut=   120.00 Ry     beta= 0.70
     Davidson diagonalization with overlap
     ethr =  1.42E-06,  avg # of iterations =  2.0

     negative rho (up, down):  9.088E-01 9.088E-01

     Magnetic moment per site  (integrated on atomic sphere of radius R)
     atom   1 (R=0.112)  charge=  9.4644   -0.0001
     atom   2 (R=0.112)  charge=  9.0550   -0.0001
     atom   3 (R=0.112)  charge=  9.0555   -0.0001
     atom   4 (R=0.112)  charge=  9.0607   -0.0001
     atom   5 (R=0.112)  charge=  9.0593   -0.0001
     atom   6 (R=0.110)  charge= 10.3486    0.0001
     atom   7 (R=0.110)  charge= 10.3517   -0.0002
     atom   8 (R=0.082)  charge=  7.4425   -0.0001
     atom   9 (R=0.082)  charge=  7.4430    0.0000
     atom  10 (R=0.082)  charge=  7.4222   -0.0006
     atom  11 (R=0.082)  charge=  7.4213   -0.0002
     atom  12 (R=0.082)  charge=  7.4225   -0.0017
     atom  13 (R=0.082)  charge=  7.4227   -0.0004
     atom  14 (R=0.082)  charge=  7.4234   -0.0005
     atom  15 (R=0.082)  charge=  7.4264    0.0002
     atom  16 (R=0.082)  charge=  7.4256   -0.0006
     atom  17 (R=0.082)  charge=  7.4240   -0.0002
     atom  18 (R=0.075)  charge=  5.8239    0.0000
     atom  19 (R=0.075)  charge=  5.7431   -0.0009
     atom  20 (R=0.075)  charge=  5.7405   -0.0001
     atom  21 (R=0.075)  charge=  5.7422   -0.0004
     atom  22 (R=0.075)  charge=  5.7544    0.0001
     atom  23 (R=0.075)  charge=  0.9934   -0.0000

     total cpu time spent up to now is      430.4 secs

     End of self-consistent calculation

 ------ SPIN UP ------------


          k = 0.0000 0.0000 0.0000 ( 61588 PWs)   bands (ev):

   -60.7513 -60.7504 -60.7027 -60.6992 -60.6751 -60.6712 -60.6265 -60.6244
   -60.4851 -60.4583 -54.3650 -54.3191 -54.2400 -54.1945 -52.7005 -46.2496
   -46.2202 -41.5782 -41.5520 -41.4669 -41.3103 -39.7603 -27.7551 -27.7484
   -27.6636 -27.6624 -27.5657 -27.5555 -27.4414 -27.4284 -27.3833 -27.3102
   -27.2911 -27.2389 -27.2310 -27.2194 -27.2022 -27.1488 -27.1362 -27.1226
   -27.0888 -27.0706 -27.0287 -26.9917 -26.9258 -26.9240 -26.9208 -26.9089
   -26.8612 -26.8485 -26.8266 -26.8250 -24.1480 -23.9394 -23.6359 -23.5542
   -23.2951 -23.1642 -23.1390 -23.0436 -22.9104 -22.8406 -22.8248 -22.6070
   -22.4817 -22.4260 -22.3688 -22.3325 -22.2481 -22.2081 -21.7386 -21.7008
   -21.6213 -20.1458 -19.8194 -19.7918 -19.7523 -19.5577 -19.5449 -19.5147
   -19.5032 -19.4027 -19.3769 -19.3179 -19.1939 -18.1106 -17.9037 -17.7691
     1.2849   2.1609   2.9664   3.1720   3.3366   3.4400   3.5017   3.6582
     3.7165   3.7675   3.9507   4.0236   4.2928   4.4658   4.5905   4.7237
     4.7568   5.0059   5.0540   5.0950   5.1550   5.2840   5.3173   5.3252
     5.4092   5.5858   5.5949   5.7459   5.7566   5.7712   5.8052   5.8831
     5.9540   6.0854   6.1644   6.2505   6.3044   6.3603   6.3964   6.4075
     6.4812   6.6605   6.6829   6.6962   6.8807   7.0151   7.0571   7.0814
     7.1320   7.1645   7.2880   7.3388   7.3984   7.4469   7.5301   7.6223
     7.6745   7.7170   7.9214   8.0157   8.0781   8.1251   8.1550   8.1641
     8.2773   8.3435   8.3513   8.3848   8.5290   8.5422   8.6398   8.7913
     8.8432   8.9338   9.0044   9.0841   9.2358   9.2856   9.3141

 ------ SPIN DOWN ----------


          k = 0.0000 0.0000 0.0000 ( 61588 PWs)   bands (ev):

   -60.7516 -60.7511 -60.7029 -60.7003 -60.6761 -60.6713 -60.6265 -60.6258
   -60.4851 -60.4583 -54.3650 -54.3192 -54.2401 -54.1946 -52.7005 -46.2497
   -46.2200 -41.5801 -41.5522 -41.4682 -41.3101 -39.7603 -27.7557 -27.7495
   -27.6643 -27.6638 -27.5663 -27.5566 -27.4417 -27.4299 -27.3834 -27.3107
   -27.2916 -27.2392 -27.2320 -27.2197 -27.2030 -27.1490 -27.1372 -27.1229
   -27.0889 -27.0707 -27.0289 -26.9916 -26.9263 -26.9252 -26.9211 -26.9101
   -26.8615 -26.8504 -26.8273 -26.8261 -24.1481 -23.9394 -23.6360 -23.5542
   -23.2952 -23.1643 -23.1391 -23.0437 -22.9105 -22.8407 -22.8249 -22.6070
   -22.4817 -22.4259 -22.3689 -22.3326 -22.2482 -22.2081 -21.7387 -21.7009
   -21.6214 -20.1474 -19.8195 -19.7936 -19.7536 -19.5595 -19.5454 -19.5151
   -19.5044 -19.4024 -19.3769 -19.3199 -19.1938 -18.1106 -17.9038 -17.7694
     1.2845   2.1605   2.9650   3.1716   3.3362   3.4398   3.5004   3.6577
     3.7162   3.7670   3.9492   4.0230   4.2923   4.4650   4.5898   4.7228
     4.7562   5.0055   5.0530   5.0938   5.1543   5.2832   5.3165   5.3245
     5.4080   5.5854   5.5943   5.7456   5.7562   5.7699   5.8046   5.8824
     5.9536   6.0845   6.1633   6.2497   6.3037   6.3593   6.3956   6.4068
     6.4803   6.6597   6.6819   6.6954   6.8799   7.0141   7.0544   7.0790
     7.1292   7.1629   7.2851   7.3379   7.3966   7.4430   7.5270   7.6213
     7.6731   7.7160   7.9203   8.0146   8.0766   8.1233   8.1541   8.1627
     8.2743   8.3423   8.3505   8.3822   8.5280   8.5412   8.6385   8.7904
     8.8420   8.9313   9.0034   9.0832   9.2352   9.2848   9.3126

     the Fermi energy is     7.2721 ev

!    total energy              =   -2943.07738991 Ry
     estimated scf accuracy    <       0.00071474 Ry
     smearing contrib. (-TS)   =      -0.10154407 Ry
     internal energy E=F+TS    =   -2942.97584584 Ry

     total magnetization       =    -0.03 Bohr mag/cell
     absolute magnetization    =     0.04 Bohr mag/cell

     convergence has been achieved in   3 iterations

     negative rho (up, down):  9.088E-01 9.088E-01

     Forces acting on atoms (cartesian axes, Ry/au):

     atom    1 type  1   force =    -0.00962074   -0.02703426    0.00850718
     atom    2 type  1   force =    -0.11860509   -0.01356181   -0.00275615
     atom    3 type  1   force =    -0.11695660    0.00992802    0.00194481
     atom    4 type  1   force =     0.11747988   -0.02401609   -0.00736045
     atom    5 type  1   force =     0.11751525    0.02184298   -0.00490735
     atom    6 type  2   force =    -0.00512119   -0.01755115    0.00590671
     atom    7 type  2   force =    -0.01474998    0.01739801   -0.00792321
     atom    8 type  3   force =    -0.10809072    0.00275834   -0.00548817
     atom    9 type  3   force =     0.11708221    0.00219523    0.00780000
     atom   10 type  3   force =    -0.02562835   -0.03130071   -0.06337293
     atom   11 type  3   force =    -0.01699615   -0.03442881    0.06014642
     atom   12 type  3   force =    -0.01911348    0.03569646   -0.05810238
     atom   13 type  3   force =    -0.01833274    0.02844466    0.06356643
     atom   14 type  3   force =     0.02479781   -0.03130226   -0.05952424
     atom   15 type  3   force =     0.01559259   -0.04080961    0.05827915
     atom   16 type  3   force =     0.01956499    0.03550832   -0.05342067
     atom   17 type  3   force =     0.01436389    0.03624081    0.06249654
     atom   18 type  4   force =    -0.00840773    0.02828092   -0.01603550
     atom   19 type  4   force =    -0.12942778   -0.00438633   -0.11812581
     atom   20 type  4   force =    -0.13008244    0.00570011    0.11854812
     atom   21 type  4   force =     0.13138337   -0.00445529   -0.12051681
     atom   22 type  4   force =     0.09982845    0.00758888    0.17039047
     atom   23 type  5   force =     0.06352455   -0.00273640   -0.04005215
     The non-local contrib.  to forces
     atom    1 type  1   force =     0.01028175   -0.01029137    0.03211312
     atom    2 type  1   force =    -0.24675261   -0.16274708    0.01811664
     atom    3 type  1   force =    -0.24121477    0.15740059   -0.02501712
     atom    4 type  1   force =     0.25895030   -0.16331742    0.03469564
     atom    5 type  1   force =     0.25048732    0.15724438   -0.01059547
     atom    6 type  2   force =     0.00841098   -0.04492220   -0.06011994
     atom    7 type  2   force =    -0.00469292    0.06586067    0.05282722
     atom    8 type  3   force =    -0.26200244    0.00047089    0.00298792
     atom    9 type  3   force =     0.23556480   -0.00309363    0.00468238
     atom   10 type  3   force =    -0.21140998    0.00549716   -0.20762051
     atom   11 type  3   force =    -0.21669887    0.00751529    0.19810865
     atom   12 type  3   force =    -0.20087088   -0.02088390   -0.17865282
     atom   13 type  3   force =    -0.20590896   -0.00427069    0.20981785
     atom   14 type  3   force =     0.21276868    0.00716911   -0.22104142
     atom   15 type  3   force =     0.23309771    0.01216151    0.17666671
     atom   16 type  3   force =     0.20126738   -0.02374891   -0.18926423
     atom   17 type  3   force =     0.21997522   -0.00882782    0.18500544
     atom   18 type  4   force =     0.01008144    0.05440719   -0.06126806
     atom   19 type  4   force =     0.05982028    0.00915353    0.07439509
     atom   20 type  4   force =     0.04723421   -0.01350775   -0.06226229
     atom   21 type  4   force =    -0.05816157    0.00868800    0.06897577
     atom   22 type  4   force =    -0.04565678   -0.01157698   -0.06990591
     atom   23 type  5   force =    -0.04608144   -0.00022018    0.00265058
     The ionic contribution  to forces
     atom    1 type  1   force =    -0.62397163   -4.95855286   13.92950732
     atom    2 type  1   force =   -39.73510030   -6.18838940    0.69319796
     atom    3 type  1   force =   -39.70846757    6.17579703   -0.80101569
     atom    4 type  1   force =    39.52582706   -6.40125034    0.55210881
     atom    5 type  1   force =    39.49608492    6.39277377   -0.94197954
     atom    6 type  2   force =    -0.16717046   -3.62573931  -14.06827688
     atom    7 type  2   force =    -0.66663316    3.98362418   13.86173138
     atom    8 type  3   force =   -52.26372393    0.07189289   -0.22890458
     atom    9 type  3   force =    51.04531447    0.07284379   -1.86011530
     atom   10 type  3   force =   -36.07405935   -2.11278331  -23.04415708
     atom   11 type  3   force =   -35.20837020   -0.92188806   22.10997639
     atom   12 type  3   force =   -35.25806823    0.81515826  -22.09709405
     atom   13 type  3   force =   -36.10897057    2.25605367   23.08825113
     atom   14 type  3   force =    35.99534915   -2.14161396  -23.06753407
     atom   15 type  3   force =    34.95213495   -1.17734508   22.25703713
     atom   16 type  3   force =    35.17988013    0.84373266  -22.11975693
     atom   17 type  3   force =    35.85001783    2.51350574   23.23547964
     atom   18 type  4   force =    -0.15615270    4.42956276  -14.01919790
     atom   19 type  4   force =   -35.92344230    0.95670363  -25.50335394
     atom   20 type  4   force =   -36.05264005   -0.95227260   25.59631299
     atom   21 type  4   force =    35.81713905    0.95618233  -25.55319091
     atom   22 type  4   force =    34.70570202   -0.93656846   27.23978439
     atom   23 type  5   force =     5.37932086   -0.05142732    0.74118971
     The local contribution  to forces
     atom    1 type  1   force =     0.61924708    4.93154429  -13.93555029
     atom    2 type  1   force =    39.87135737    6.33754726   -0.71158394
     atom    3 type  1   force =    39.84000204   -6.32516342    0.83071280
     atom    4 type  1   force =   -39.66943660    6.54295221   -0.59358178
     atom    5 type  1   force =   -39.63317504   -6.52813283    0.93875124
     atom    6 type  2   force =     0.16334101    3.64575120   14.11990565
     atom    7 type  2   force =     0.66559784   -4.02673586  -13.90553866
     atom    8 type  3   force =    52.44778723   -0.06892265    0.21806491
     atom    9 type  3   force =   -51.16426354   -0.06939108    1.89044128
     atom   10 type  3   force =    36.28558706    2.06816601   23.18943202
     atom   11 type  3   force =    35.43625245    0.86557081  -22.24982422
     atom   12 type  3   force =    35.46922338   -0.75495835   22.21846579
     atom   13 type  3   force =    36.31507467   -2.20917463  -23.23661121
     atom   14 type  3   force =   -36.18716767    2.08491898   23.22679153
     atom   15 type  3   force =   -35.18092769    1.12495400  -22.37009142
     atom   16 type  3   force =   -35.36644280   -0.77430158   22.25519307
     atom   17 type  3   force =   -36.06718930   -2.45510991  -23.34780456
     atom   18 type  4   force =     0.14835881   -4.44321528   14.04518192
     atom   19 type  4   force =    35.74953671   -0.96688153   25.30662752
     atom   20 type  4   force =    35.89475849    0.97095349  -25.40574424
     atom   21 type  4   force =   -35.62756251   -0.96393383   25.34945166
     atom   22 type  4   force =   -34.58044507    0.94563329  -26.98014429
     atom   23 type  5   force =    -5.27095506    0.04826397   -0.78650296
     The core correction contribution to forces
     atom    1 type  1   force =     0.00154732    0.00252301   -0.00029320
     atom    2 type  1   force =    -0.01222401   -0.00177849    0.00057110
     atom    3 type  1   force =    -0.01243787    0.00263131   -0.00169005
     atom    4 type  1   force =     0.01442279   -0.00288882    0.00303835
     atom    5 type  1   force =     0.01468600    0.00268367    0.00110108
     atom    6 type  2   force =    -0.00051418    0.00195707    0.00233657
     atom    7 type  2   force =     0.00045320   -0.00322178   -0.00191248
     atom    8 type  3   force =    -0.03236309    0.00021231   -0.00037650
     atom    9 type  3   force =     0.02463549    0.00002375   -0.00572749
     atom   10 type  3   force =    -0.02164905    0.00930121   -0.01584265
     atom   11 type  3   force =    -0.02353574    0.00993754    0.01734989
     atom   12 type  3   force =    -0.02163011   -0.00967281   -0.01525324
     atom   13 type  3   force =    -0.02183172   -0.00938696    0.01693096
     atom   14 type  3   force =     0.02169167    0.00858284   -0.01687593
     atom   15 type  3   force =     0.02615778    0.01071244    0.01441475
     atom   16 type  3   force =     0.02123299   -0.00881460   -0.01613837
     atom   17 type  3   force =     0.02368932   -0.00961433    0.01471036
     atom   18 type  4   force =    -0.00060480   -0.00274010    0.00278934
     atom   19 type  4   force =    -0.00955305    0.00006009   -0.00978138
     atom   20 type  4   force =    -0.00877446    0.00035362    0.00923028
     atom   21 type  4   force =     0.00956580    0.00008657   -0.00975902
     atom   22 type  4   force =     0.00684958    0.00024509    0.01193509
     atom   23 type  5   force =     0.00000000    0.00000000    0.00000000
     The Hubbard contrib.    to forces
     atom    1 type  1   force =     0.00000000    0.00000000    0.00000000
     atom    2 type  1   force =     0.00000000    0.00000000    0.00000000
     atom    3 type  1   force =     0.00000000    0.00000000    0.00000000
     atom    4 type  1   force =     0.00000000    0.00000000    0.00000000
     atom    5 type  1   force =     0.00000000    0.00000000    0.00000000
     atom    6 type  2   force =     0.00000000    0.00000000    0.00000000
     atom    7 type  2   force =     0.00000000    0.00000000    0.00000000
     atom    8 type  3   force =     0.00000000    0.00000000    0.00000000
     atom    9 type  3   force =     0.00000000    0.00000000    0.00000000
     atom   10 type  3   force =     0.00000000    0.00000000    0.00000000
     atom   11 type  3   force =     0.00000000    0.00000000    0.00000000
     atom   12 type  3   force =     0.00000000    0.00000000    0.00000000
     atom   13 type  3   force =     0.00000000    0.00000000    0.00000000
     atom   14 type  3   force =     0.00000000    0.00000000    0.00000000
     atom   15 type  3   force =     0.00000000    0.00000000    0.00000000
     atom   16 type  3   force =     0.00000000    0.00000000    0.00000000
     atom   17 type  3   force =     0.00000000    0.00000000    0.00000000
     atom   18 type  4   force =     0.00000000    0.00000000    0.00000000
     atom   19 type  4   force =     0.00000000    0.00000000    0.00000000
     atom   20 type  4   force =     0.00000000    0.00000000    0.00000000
     atom   21 type  4   force =     0.00000000    0.00000000    0.00000000
     atom   22 type  4   force =     0.00000000    0.00000000    0.00000000
     atom   23 type  5   force =     0.00000000    0.00000000    0.00000000
     The SCF correction term to forces
     atom    1 type  1   force =    -0.01573805    0.00773218   -0.01690406
     atom    2 type  1   force =     0.00510167    0.00179539   -0.00269220
     atom    3 type  1   force =     0.00614878   -0.00074798   -0.00067941
     atom    4 type  1   force =    -0.01129647    0.00047778   -0.00325574
     atom    5 type  1   force =    -0.00958075   -0.00273650    0.00818106
     atom    6 type  2   force =    -0.00820134    0.00539160    0.01242703
     atom    7 type  2   force =    -0.00848773   -0.00213969   -0.01466496
     atom    8 type  3   force =     0.00319870   -0.00090559    0.00310579
     atom    9 type  3   force =    -0.02318181    0.00180191   -0.02111516
     atom   10 type  3   force =    -0.00310982   -0.00149227    0.01518102
     atom   11 type  3   force =    -0.00365660    0.00442511   -0.01509858
     atom   12 type  3   force =    -0.00678044    0.00604278    0.01479767
     atom   13 type  3   force =     0.00429105   -0.00478722   -0.01445659
     atom   14 type  3   force =    -0.01685682    0.00963028    0.01950137
     atom   15 type  3   force =    -0.01388296   -0.01130297   -0.01938231
     atom   16 type  3   force =    -0.01538549   -0.00136974    0.01691151
     atom   17 type  3   force =    -0.01114198   -0.00372336   -0.02452861
     atom   18 type  4   force =    -0.00910327   -0.00974415    0.01682492
     atom   19 type  4   force =    -0.00480223   -0.00343255    0.01435262
     atom   20 type  4   force =    -0.00967341    0.00016286   -0.01862290
     atom   21 type  4   force =    -0.00861019   -0.00548884    0.02437141
     atom   22 type  4   force =     0.01436590    0.00984545   -0.03091310
     atom   23 type  5   force =     0.00222739    0.00063663    0.00297624

     Total force =     0.514594     Total SCF correction =     0.097000
     SCF correction compared to forces is large: reduce conv_thr to get better values


     Computing stress (Cartesian axis) and pressure


     negative rho (up, down):  9.088E-01 9.088E-01
          total   stress  (Ry/bohr**3)                   (kbar)     P=       86.51
   0.00066686  -0.00000025  -0.00000851           98.10       -0.04       -1.25
  -0.00000025   0.00068315  -0.00000983           -0.04      100.49       -1.45
  -0.00000851  -0.00000983   0.00041420           -1.25       -1.45       60.93


     Entering Dynamics:    iteration =     2
                           time      =   0.0004 pico-seconds


ATOMIC_POSITIONS (angstrom)
Hf            2.6700875478        2.8271201029        6.6041186539
Hf            1.2530662695        1.2862826256        5.0586198141
Hf            1.2555627043        7.3898054769        5.0882219711
Hf            4.0871112245        1.2862813685        5.0586193448
Hf            4.0846150605        7.3898068247        5.0882214357
Nb            2.6700879406        2.7969269106        3.5157387622
Nb            2.6700857925        5.8763823624        6.6351499837
Ta            1.2094499278        4.3409281618        5.0712791587
Ta            4.1307294966        4.3409280917        5.0712816104
Ta            1.3073387044        1.3141189702        2.0589261027
Ta            1.3028752984        1.3083872307        8.0947397816
Ta            1.3040963203        7.3758303210        2.0463847828
Ta            1.3077977146        7.3650862151        8.0861632109
Ta            4.0328388404        1.3141191273        2.0589265618
Ta            4.0373021817        1.3083863261        8.0947395444
Ta            4.0360813732        7.3758301680        2.0463852718
Ta            4.0323795387        7.3650870884        8.0861629428
Zr            2.6700870478        5.8662917308        3.5275348102
Zr            1.2438943999        4.3220768378        2.0001278878
Zr            1.2404451562        4.3541245501        8.1499356673
Zr            4.0962835956        4.3220768183        2.0001279837
Zr            4.0997235184        4.3541252248        8.1499498026
H             4.9837445116        4.3399729115        6.5479770970


     kinetic energy (Ekin) =           4.05489407 Ry
     temperature           =       19400.51930960 K 
     Ekin + Etot (const)   =       -2939.02249584 Ry
     Ions kinetic stress =           71.61 (kbar)
                                     53.13           0.01          92.69
                                      0.01           0.00           0.02
                                     92.69           0.02         161.71



     Linear momentum :   -0.0000000000    0.0000000000    0.0000000000

     Writing config-only to output data dir outdir/pwscf.save/
     NEW-OLD atomic charge density approx. for the potential

     Check: negative core charge=   -0.000002

     negative rho (up, down):  9.088E-01 9.088E-01
     Generating pointlists ...
     new r_m :   0.0753 (alat units)  1.3294 (a.u.) for type    3

     total cpu time spent up to now is      484.8 secs

     Self-consistent Calculation

     iteration #  1     ecut=   120.00 Ry     beta= 0.70
     Davidson diagonalization with overlap
     ethr =  1.00E-06,  avg # of iterations =  7.0

     negative rho (up, down):  9.090E-01 9.090E-01

     total cpu time spent up to now is      533.6 secs

     total energy              =   -2943.05939544 Ry
     estimated scf accuracy    <       0.08977779 Ry

     total magnetization       =    -0.03 Bohr mag/cell
     absolute magnetization    =     0.04 Bohr mag/cell

     iteration #  2     ecut=   120.00 Ry     beta= 0.70
     Davidson diagonalization with overlap
     ethr =  3.24E-05,  avg # of iterations =  2.0

     negative rho (up, down):  9.090E-01 9.090E-01

     total cpu time spent up to now is      551.3 secs

     total energy              =   -2943.06720580 Ry
     estimated scf accuracy    <       0.02057394 Ry

     total magnetization       =    -0.03 Bohr mag/cell
     absolute magnetization    =     0.04 Bohr mag/cell

     iteration #  3     ecut=   120.00 Ry     beta= 0.70
     Davidson diagonalization with overlap
     ethr =  7.43E-06,  avg # of iterations =  1.0

     negative rho (up, down):  9.088E-01 9.088E-01

     total cpu time spent up to now is      566.5 secs

     total energy              =   -2943.06876028 Ry
     estimated scf accuracy    <       0.00148039 Ry

     total magnetization       =    -0.03 Bohr mag/cell
     absolute magnetization    =     0.04 Bohr mag/cell

     iteration #  4     ecut=   120.00 Ry     beta= 0.70
     Davidson diagonalization with overlap
     ethr =  5.34E-07,  avg # of iterations =  4.0

     negative rho (up, down):  9.087E-01 9.087E-01

     Magnetic moment per site  (integrated on atomic sphere of radius R)
     atom   1 (R=0.112)  charge=  9.4647   -0.0001
     atom   2 (R=0.112)  charge=  9.0565   -0.0000
     atom   3 (R=0.112)  charge=  9.0565   -0.0001
     atom   4 (R=0.112)  charge=  9.0624   -0.0001
     atom   5 (R=0.112)  charge=  9.0615   -0.0001
     atom   6 (R=0.110)  charge= 10.3487   -0.0000
     atom   7 (R=0.110)  charge= 10.3516   -0.0001
     atom   8 (R=0.075)  charge=  6.6219   -0.0000
     atom   9 (R=0.075)  charge=  6.6339    0.0000
     atom  10 (R=0.075)  charge=  6.6061   -0.0004
     atom  11 (R=0.075)  charge=  6.6050   -0.0002
     atom  12 (R=0.075)  charge=  6.6054   -0.0010
     atom  13 (R=0.075)  charge=  6.6059   -0.0003
     atom  14 (R=0.075)  charge=  6.6036   -0.0002
     atom  15 (R=0.075)  charge=  6.6044    0.0001
     atom  16 (R=0.075)  charge=  6.6032   -0.0004
     atom  17 (R=0.075)  charge=  6.6063   -0.0001
     atom  18 (R=0.075)  charge=  5.8235   -0.0000
     atom  19 (R=0.075)  charge=  5.7441   -0.0007
     atom  20 (R=0.075)  charge=  5.7441   -0.0001
     atom  21 (R=0.075)  charge=  5.7428   -0.0003
     atom  22 (R=0.075)  charge=  5.7493    0.0000
     atom  23 (R=0.075)  charge=  1.0346   -0.0000

     total cpu time spent up to now is      584.8 secs

     End of self-consistent calculation

 ------ SPIN UP ------------


          k = 0.0000 0.0000 0.0000 ( 61588 PWs)   bands (ev):

   -60.7664 -60.7581 -60.7192 -60.7129 -60.6838 -60.6790 -60.6355 -60.6349
   -60.4920 -60.4104 -54.3693 -54.3234 -54.2442 -54.1987 -52.7101 -46.2585
   -46.2234 -41.5886 -41.5798 -41.4727 -41.3885 -39.7720 -27.7659 -27.7563
   -27.6760 -27.6735 -27.5788 -27.5676 -27.4492 -27.4350 -27.3797 -27.3230
   -27.2983 -27.2555 -27.2453 -27.2290 -27.2079 -27.1585 -27.1447 -27.1245
   -27.0819 -27.0640 -27.0287 -26.9780 -26.9396 -26.9340 -26.9322 -26.9146
   -26.8745 -26.8600 -26.8355 -26.8322 -24.1532 -23.9446 -23.6421 -23.5618
   -23.3013 -23.1705 -23.1456 -23.0500 -22.9157 -22.8478 -22.8311 -22.6138
   -22.4905 -22.4341 -22.3774 -22.3409 -22.2532 -22.2140 -21.7494 -21.7123
   -21.6312 -20.1545 -19.8544 -19.8048 -19.7568 -19.5777 -19.5655 -19.5404
   -19.5070 -19.4597 -19.4371 -19.3263 -19.2502 -18.1252 -17.9140 -17.7797
     1.1474   2.0115   2.9536   3.1598   3.3189   3.4311   3.4910   3.6425
     3.7059   3.7579   3.9390   4.0085   4.2754   4.4623   4.5841   4.7093
     4.7430   4.9991   5.0556   5.0995   5.1550   5.2750   5.3062   5.3165
     5.4045   5.5739   5.5856   5.7321   5.7445   5.7627   5.7929   5.8771
     5.9434   6.0772   6.1546   6.2389   6.2920   6.3495   6.3827   6.3928
     6.4792   6.6451   6.6759   6.6878   6.8735   7.0089   7.0480   7.0804
     7.1316   7.1614   7.2766   7.3304   7.4087   7.4393   7.5269   7.6027
     7.6620   7.6854   7.9121   8.0101   8.0641   8.1150   8.1471   8.1573
     8.2665   8.3335   8.3418   8.3746   8.5200   8.5361   8.6238   8.7796
     8.8379   8.9307   8.9930   9.0743   9.2216   9.2791   9.3032

 ------ SPIN DOWN ----------


          k = 0.0000 0.0000 0.0000 ( 61588 PWs)   bands (ev):

   -60.7667 -60.7588 -60.7194 -60.7137 -60.6840 -60.6799 -60.6364 -60.6349
   -60.4920 -60.4104 -54.3693 -54.3235 -54.2443 -54.1988 -52.7102 -46.2586
   -46.2234 -41.5899 -41.5801 -41.4736 -41.3884 -39.7720 -27.7662 -27.7574
   -27.6763 -27.6748 -27.5792 -27.5685 -27.4495 -27.4364 -27.3798 -27.3234
   -27.2988 -27.2558 -27.2461 -27.2292 -27.2087 -27.1587 -27.1457 -27.1246
   -27.0820 -27.0641 -27.0288 -26.9780 -26.9399 -26.9350 -26.9325 -26.9157
   -26.8749 -26.8614 -26.8356 -26.8335 -24.1533 -23.9447 -23.6422 -23.5618
   -23.3014 -23.1706 -23.1457 -23.0501 -22.9157 -22.8479 -22.8311 -22.6138
   -22.4905 -22.4341 -22.3775 -22.3410 -22.2533 -22.2141 -21.7494 -21.7124
   -21.6313 -20.1557 -19.8545 -19.8062 -19.7576 -19.5783 -19.5669 -19.5409
   -19.5078 -19.4596 -19.4371 -19.3278 -19.2503 -18.1252 -17.9140 -17.7799
     1.1472   2.0110   2.9525   3.1595   3.3186   3.4309   3.4898   3.6421
     3.7056   3.7575   3.9378   4.0080   4.2751   4.4616   4.5834   4.7085
     4.7425   4.9986   5.0547   5.0986   5.1544   5.2743   5.3055   5.3160
     5.4036   5.5736   5.5851   5.7319   5.7441   5.7617   5.7923   5.8766
     5.9431   6.0764   6.1537   6.2383   6.2915   6.3487   6.3820   6.3922
     6.4784   6.6445   6.6751   6.6872   6.8727   7.0081   7.0457   7.0781
     7.1295   7.1602   7.2742   7.3296   7.4074   7.4360   7.5243   7.6019
     7.6607   7.6845   7.9113   8.0092   8.0630   8.1134   8.1464   8.1562
     8.2639   8.3325   8.3412   8.3725   8.5193   8.5352   8.6229   8.7788
     8.8369   8.9286   8.9922   9.0736   9.2209   9.2787   9.3019

     the Fermi energy is     7.2670 ev

!    total energy              =   -2943.06859296 Ry
     estimated scf accuracy    <       0.00045577 Ry
     smearing contrib. (-TS)   =      -0.10216759 Ry
     internal energy E=F+TS    =   -2942.96642537 Ry

     total magnetization       =    -0.03 Bohr mag/cell
     absolute magnetization    =     0.03 Bohr mag/cell

     convergence has been achieved in   4 iterations

     negative rho (up, down):  9.087E-01 9.087E-01

     Forces acting on atoms (cartesian axes, Ry/au):

     atom    1 type  1   force =    -0.01635844   -0.02450328   -0.00132620
     atom    2 type  1   force =    -0.11388673   -0.01148976   -0.00320119
     atom    3 type  1   force =    -0.11190608    0.00837101    0.00254555
     atom    4 type  1   force =     0.11145761   -0.02174131   -0.00715739
     atom    5 type  1   force =     0.11251851    0.01802320    0.00080095
     atom    6 type  2   force =    -0.00351386   -0.01807831    0.00678505
     atom    7 type  2   force =    -0.01373992    0.01898968   -0.00943376
     atom    8 type  3   force =    -0.10703572    0.00248125   -0.00308170
     atom    9 type  3   force =     0.08479966    0.00325159   -0.04315079
     atom   10 type  3   force =    -0.02394431   -0.03137627   -0.05808593
     atom   11 type  3   force =    -0.01536269   -0.03332796    0.05548164
     atom   12 type  3   force =    -0.01883320    0.03664883   -0.05265729
     atom   13 type  3   force =    -0.01430680    0.02732245    0.05905133
     atom   14 type  3   force =     0.02200216   -0.02819777   -0.05298304
     atom   15 type  3   force =     0.01450425   -0.04416833    0.05208062
     atom   16 type  3   force =     0.01805354    0.03442874   -0.04858779
     atom   17 type  3   force =     0.01259252    0.03592830    0.05467435
     atom   18 type  4   force =    -0.00823793    0.02584507   -0.01023856
     atom   19 type  4   force =    -0.12914631   -0.00528862   -0.11347075
     atom   20 type  4   force =    -0.12981431    0.00543545    0.11205378
     atom   21 type  4   force =     0.13151397   -0.00605251   -0.11459211
     atom   22 type  4   force =     0.12018472    0.01036662    0.13903625
     atom   23 type  5   force =     0.07845936   -0.00286810    0.03545695
     The non-local contrib.  to forces
     atom    1 type  1   force =     0.00709608   -0.00705946    0.02645934
     atom    2 type  1   force =    -0.24545335   -0.16174471    0.01793978
     atom    3 type  1   force =    -0.23970680    0.15669038   -0.02384419
     atom    4 type  1   force =     0.25504658   -0.16186271    0.03502996
     atom    5 type  1   force =     0.24695997    0.15451226   -0.00813087
     atom    6 type  2   force =     0.00848429   -0.04645838   -0.06042728
     atom    7 type  2   force =    -0.00370581    0.06679552    0.05248190
     atom    8 type  3   force =    -0.25975547    0.00031443    0.00395177
     atom    9 type  3   force =     0.20610854   -0.00218589   -0.02025734
     atom   10 type  3   force =    -0.21281171    0.00509702   -0.20308685
     atom   11 type  3   force =    -0.21722640    0.00868042    0.19358965
     atom   12 type  3   force =    -0.20377089   -0.01945884   -0.17474683
     atom   13 type  3   force =    -0.20483730   -0.00554264    0.20477072
     atom   14 type  3   force =     0.21119220    0.01051898   -0.21743729
     atom   15 type  3   force =     0.22937045    0.00848800    0.17084309
     atom   16 type  3   force =     0.20050844   -0.02582262   -0.18641138
     atom   17 type  3   force =     0.21590559   -0.00775068    0.17817249
     atom   18 type  4   force =     0.00609361    0.05296658   -0.05742435
     atom   19 type  4   force =     0.05662191    0.00848384    0.07727984
     atom   20 type  4   force =     0.04565685   -0.01329292   -0.06899756
     atom   21 type  4   force =    -0.06292069    0.00741389    0.07395552
     atom   22 type  4   force =    -0.04500034   -0.00855439   -0.07906326
     atom   23 type  5   force =    -0.04660422   -0.00042829   -0.01405051
     The ionic contribution  to forces
     atom    1 type  1   force =    -0.65309543   -4.98791636   13.96743470
     atom    2 type  1   force =   -39.74410521   -6.19306685    0.69577442
     atom    3 type  1   force =   -39.71753069    6.18052331   -0.79828318
     atom    4 type  1   force =    39.52667227   -6.42595083    0.55486777
     atom    5 type  1   force =    39.49697801    6.41770905   -0.93873119
     atom    6 type  2   force =    -0.18289280   -3.63795489  -14.08972114
     atom    7 type  2   force =    -0.69618337    4.01441390   13.90287833
     atom    8 type  3   force =   -52.29202472    0.07189206   -0.22812889
     atom    9 type  3   force =    50.85031760    0.07318406   -2.19530329
     atom   10 type  3   force =   -36.07710324   -2.11376025  -23.05181614
     atom   11 type  3   force =   -35.21208493   -0.92155401   22.11642508
     atom   12 type  3   force =   -35.26111857    0.81613563  -22.10476156
     atom   13 type  3   force =   -36.11268338    2.25575586   23.09477527
     atom   14 type  3   force =    35.99665318   -2.14433462  -23.08201557
     atom   15 type  3   force =    34.96769995   -1.16452466   22.26935131
     atom   16 type  3   force =    35.18124977    0.84639501  -22.13420831
     atom   17 type  3   force =    35.86565723    2.50069281   23.24797942
     atom   18 type  4   force =    -0.17093020    4.44087142  -14.03913706
     atom   19 type  4   force =   -35.92788452    0.95665938  -25.51377811
     atom   20 type  4   force =   -36.05977465   -0.95226640   25.60725174
     atom   21 type  4   force =    35.81819630    0.95610504  -25.58120683
     atom   22 type  4   force =    34.91777414   -0.93851921   27.16769167
     atom   23 type  5   force =     5.48621327   -0.05048946    1.13266154
     The local contribution  to forces
     atom    1 type  1   force =     0.61677711    4.97220824  -14.00437816
     atom    2 type  1   force =    39.88605421    6.34760752   -0.71532141
     atom    3 type  1   force =    39.85706694   -6.33390789    0.82885351
     atom    4 type  1   force =   -39.69543092    6.57064574   -0.59607155
     atom    5 type  1   force =   -39.65589147   -6.55967286    0.95654938
     atom    6 type  2   force =     0.16023262    3.67031169   14.17150686
     atom    7 type  2   force =     0.67816608   -4.06108178  -13.97175023
     atom    8 type  3   force =    52.47465542   -0.06983968    0.22618752
     atom    9 type  3   force =   -50.99855402   -0.06628025    2.18977903
     atom   10 type  3   force =    36.27734681    2.07176346   23.22887464
     atom   11 type  3   force =    35.43183891    0.87347918  -22.28816965
     atom   12 type  3   force =    35.45596800   -0.75225124   22.25862948
     atom   13 type  3   force =    36.32435805   -2.21724608  -23.27321327
     atom   14 type  3   force =   -36.22429535    2.10715958   23.28661306
     atom   15 type  3   force =   -35.22617791    1.09583448  -22.42629748
     atom   16 type  3   force =   -35.40216442   -0.78295490   22.30999878
     atom   17 type  3   force =   -36.10631018   -2.45185224  -23.41080128
     atom   18 type  4   force =     0.14537675   -4.47308855   14.10229497
     atom   19 type  4   force =    35.74357545   -0.97186453   25.34836517
     atom   20 type  4   force =    35.88727556    0.97075039  -25.45144403
     atom   21 type  4   force =   -35.64429626   -0.97237119   25.42505882
     atom   22 type  4   force =   -34.78208738    0.96434277  -26.97581788
     atom   23 type  5   force =    -5.36433413    0.04852100   -1.08696831
     The core correction contribution to forces
     atom    1 type  1   force =     0.00165665    0.00274371   -0.00039285
     atom    2 type  1   force =    -0.01208549   -0.00176274    0.00059369
     atom    3 type  1   force =    -0.01237583    0.00258600   -0.00147710
     atom    4 type  1   force =     0.01423740   -0.00263816    0.00265143
     atom    5 type  1   force =     0.01449210    0.00229954    0.00077705
     atom    6 type  2   force =    -0.00051168    0.00212979    0.00243571
     atom    7 type  2   force =     0.00041325   -0.00330953   -0.00193461
     atom    8 type  3   force =    -0.03176091    0.00018619   -0.00030388
     atom    9 type  3   force =     0.02185285    0.00014591   -0.00782787
     atom   10 type  3   force =    -0.02157747    0.00945487   -0.01573128
     atom   11 type  3   force =    -0.02344727    0.00981618    0.01741277
     atom   12 type  3   force =    -0.02156152   -0.00979242   -0.01522266
     atom   13 type  3   force =    -0.02175151   -0.00930792    0.01684302
     atom   14 type  3   force =     0.02178134    0.00835720   -0.01710401
     atom   15 type  3   force =     0.02626114    0.01067183    0.01452717
     atom   16 type  3   force =     0.02146819   -0.00874849   -0.01641740
     atom   17 type  3   force =     0.02350156   -0.00934747    0.01480795
     atom   18 type  4   force =    -0.00045693   -0.00287761    0.00286314
     atom   19 type  4   force =    -0.00947395    0.00005995   -0.00976998
     atom   20 type  4   force =    -0.00886032    0.00035172    0.00932474
     atom   21 type  4   force =     0.00972759    0.00010994   -0.00969957
     atom   22 type  4   force =     0.00746164    0.00016735    0.01143404
     atom   23 type  5   force =     0.00000000    0.00000000    0.00000000
     The Hubbard contrib.    to forces
     atom    1 type  1   force =     0.00000000    0.00000000    0.00000000
     atom    2 type  1   force =     0.00000000    0.00000000    0.00000000
     atom    3 type  1   force =     0.00000000    0.00000000    0.00000000
     atom    4 type  1   force =     0.00000000    0.00000000    0.00000000
     atom    5 type  1   force =     0.00000000    0.00000000    0.00000000
     atom    6 type  2   force =     0.00000000    0.00000000    0.00000000
     atom    7 type  2   force =     0.00000000    0.00000000    0.00000000
     atom    8 type  3   force =     0.00000000    0.00000000    0.00000000
     atom    9 type  3   force =     0.00000000    0.00000000    0.00000000
     atom   10 type  3   force =     0.00000000    0.00000000    0.00000000
     atom   11 type  3   force =     0.00000000    0.00000000    0.00000000
     atom   12 type  3   force =     0.00000000    0.00000000    0.00000000
     atom   13 type  3   force =     0.00000000    0.00000000    0.00000000
     atom   14 type  3   force =     0.00000000    0.00000000    0.00000000
     atom   15 type  3   force =     0.00000000    0.00000000    0.00000000
     atom   16 type  3   force =     0.00000000    0.00000000    0.00000000
     atom   17 type  3   force =     0.00000000    0.00000000    0.00000000
     atom   18 type  4   force =     0.00000000    0.00000000    0.00000000
     atom   19 type  4   force =     0.00000000    0.00000000    0.00000000
     atom   20 type  4   force =     0.00000000    0.00000000    0.00000000
     atom   21 type  4   force =     0.00000000    0.00000000    0.00000000
     atom   22 type  4   force =     0.00000000    0.00000000    0.00000000
     atom   23 type  5   force =     0.00000000    0.00000000    0.00000000
     The SCF correction term to forces
     atom    1 type  1   force =     0.00994673   -0.00447735    0.00989619
     atom    2 type  1   force =     0.00044270   -0.00252090   -0.00184224
     atom    3 type  1   force =    -0.00062011    0.00248129   -0.00235806
     atom    4 type  1   force =     0.00967187   -0.00193327   -0.00328958
     atom    5 type  1   force =     0.00871948    0.00317729   -0.00931800
     atom    6 type  2   force =     0.00991329   -0.00610443   -0.01666368
     atom    7 type  2   force =     0.00630952    0.00217365    0.00923627
     atom    8 type  3   force =     0.00058954   -0.00006968   -0.00444281
     atom    9 type  3   force =     0.00381428   -0.00161016   -0.00919591
     atom   10 type  3   force =     0.00894088   -0.00392930   -0.01598088
     atom   11 type  3   force =     0.00429659   -0.00374765    0.01656921
     atom   12 type  3   force =     0.01038937    0.00201778   -0.01621031
     atom   13 type  3   force =    -0.00065307    0.00366531    0.01622101
     atom   14 type  3   force =     0.01541038   -0.00989684   -0.02269381
     atom   15 type  3   force =     0.01609021    0.00536410    0.02400195
     atom   16 type  3   force =     0.01573115    0.00556183   -0.02120405
     atom   17 type  3   force =     0.01257791    0.00418796    0.02486119
     atom   18 type  4   force =     0.01041843    0.00797532   -0.01848984
     atom   19 type  4   force =     0.00675438    0.00137482   -0.01522224
     atom   20 type  4   force =     0.00462784   -0.00010527    0.01626431
     atom   21 type  4   force =     0.00954662    0.00269189   -0.02235462
     atom   22 type  4   force =     0.02077625   -0.00706783    0.01513710
     atom   23 type  5   force =     0.00192403   -0.00046927    0.00415965

     Total force =     0.491161     Total SCF correction =     0.090221
     SCF correction compared to forces is large: reduce conv_thr to get better values


     Computing stress (Cartesian axis) and pressure


     negative rho (up, down):  9.087E-01 9.087E-01
          total   stress  (Ry/bohr**3)                   (kbar)     P=       88.01
   0.00067647  -0.00000092   0.00001517           99.51       -0.13        2.23
  -0.00000092   0.00067661  -0.00001118           -0.13       99.53       -1.64
   0.00001517  -0.00001118   0.00044186            2.23       -1.64       65.00


     Entering Dynamics:    iteration =     3
                           time      =   0.0006 pico-seconds


ATOMIC_POSITIONS (angstrom)
Hf            2.6701301285        2.8271164581        6.6041960396
Hf            1.2530941267        1.2862807994        5.0586963454
Hf            1.2555908306        7.3898068330        5.0882992748
Hf            4.0871719856        1.2862780255        5.0586952823
Hf            4.0846759108        7.3898097505        5.0882981750
Nb            2.6701312628        2.7969221029        3.5158176085
Nb            2.6701263826        5.8763872577        6.6352245273
Ta            1.2094792465        4.3409285355        5.0713554922
Ta            4.1307889290        4.3409284578        5.0713572778
Ta            1.3073796340        1.3141144988        2.0589945179
Ta            1.3029174400        1.3083824174        8.0948249136
[...]
     4.7418   5.0018   5.0562   5.1149   5.1580   5.2721   5.3055   5.3209
     5.4029   5.5766   5.5942   5.7357   5.7464   5.7653   5.7919   5.8710
     5.9415   6.0764   6.1525   6.2390   6.2947   6.3487   6.3815   6.3899
     6.4847   6.6464   6.6852   6.6900   6.8758   7.0036   7.0418   7.0812
     7.1285   7.1593   7.2696   7.3285   7.4192   7.4345   7.5196   7.5839
     7.6520   7.6762   7.9111   8.0093   8.0679   8.1132   8.1487   8.1593
     8.2631   8.3447   8.3548   8.3731   8.5248   8.5361   8.6231   8.7790
     8.8303   8.9239   8.9793   9.0741   9.2129   9.2786   9.2975

     the Fermi energy is     7.2648 ev

!    total energy              =   -2943.05486982 Ry
     estimated scf accuracy    <       0.00038020 Ry
     smearing contrib. (-TS)   =      -0.10273067 Ry
     internal energy E=F+TS    =   -2942.95213916 Ry

     total magnetization       =    -0.00 Bohr mag/cell
     absolute magnetization    =     0.00 Bohr mag/cell

     convergence has been achieved in   5 iterations

     negative rho (up, down):  9.086E-01 9.086E-01

     Forces acting on atoms (cartesian axes, Ry/au):

     atom    1 type  1   force =    -0.01267419   -0.02583447    0.00853205
     atom    2 type  1   force =    -0.11266757   -0.01374010   -0.00010838
     atom    3 type  1   force =    -0.11102613    0.01036757    0.00559519
     atom    4 type  1   force =     0.11089014   -0.02349656   -0.00408932
     atom    5 type  1   force =     0.11113208    0.01988817    0.00193725
     atom    6 type  2   force =    -0.00935231   -0.02160075    0.00037066
     atom    7 type  2   force =    -0.01412942    0.01836805   -0.00942821
     atom    8 type  3   force =    -0.11150258    0.00249026   -0.00252251
     atom    9 type  3   force =     0.05396196    0.00470350   -0.08699991
     atom   10 type  3   force =    -0.02260745   -0.02993615   -0.06266189
     atom   11 type  3   force =    -0.01532892   -0.03409525    0.05906561
     atom   12 type  3   force =    -0.01754848    0.03518870   -0.05755890
     atom   13 type  3   force =    -0.01493643    0.02749830    0.06173722
     atom   14 type  3   force =     0.02221855   -0.02841038   -0.05904769
     atom   15 type  3   force =     0.01471631   -0.04296169    0.05629720
     atom   16 type  3   force =     0.01810629    0.03387743   -0.05452316
     atom   17 type  3   force =     0.01281514    0.03652148    0.05954054
     atom   18 type  4   force =    -0.01193843    0.03091504   -0.01837007
     atom   19 type  4   force =    -0.12570405   -0.00495378   -0.11771071
     atom   20 type  4   force =    -0.12753804    0.00535454    0.11455420
     atom   21 type  4   force =     0.12814365   -0.00542407   -0.12628217
     atom   22 type  4   force =     0.13612683    0.00893747    0.11306993
     atom   23 type  5   force =     0.09884303   -0.00365731    0.11860306
     The non-local contrib.  to forces
     atom    1 type  1   force =     0.00916339   -0.00978393    0.03122359
     atom    2 type  1   force =    -0.24488866   -0.16244565    0.01942732
     atom    3 type  1   force =    -0.23963650    0.15756145   -0.02267742
     atom    4 type  1   force =     0.25839243   -0.16128770    0.03708944
     atom    5 type  1   force =     0.24905885    0.15439185   -0.00843885
     atom    6 type  2   force =     0.00940290   -0.04832523   -0.05930730
     atom    7 type  2   force =    -0.00314711    0.07023522    0.05516243
     atom    8 type  3   force =    -0.25977288   -0.00005078    0.00526111
     atom    9 type  3   force =     0.18453790    0.00081424   -0.03767147
     atom   10 type  3   force =    -0.21243857    0.00472257   -0.20620575
     atom   11 type  3   force =    -0.21496102    0.00809239    0.19683677
     atom   12 type  3   force =    -0.20358428   -0.01903635   -0.17807217
     atom   13 type  3   force =    -0.20317088   -0.00542986    0.20776946
     atom   14 type  3   force =     0.21234270    0.00926057   -0.22186249
     atom   15 type  3   force =     0.22854818    0.00677967    0.17479409
     atom   16 type  3   force =     0.20151988   -0.02517421   -0.19040067
     atom   17 type  3   force =     0.21483734   -0.00491512    0.18246387
     atom   18 type  4   force =     0.00679235    0.05492286   -0.06037540
     atom   19 type  4   force =     0.05810523    0.00870256    0.07125815
     atom   20 type  4   force =     0.04849378   -0.01312444   -0.06544284
     atom   21 type  4   force =    -0.06280294    0.00799753    0.06763616
     atom   22 type  4   force =    -0.04343253   -0.00981930   -0.08156098
     atom   23 type  5   force =    -0.04941392    0.00008271   -0.03047700
     The ionic contribution  to forces
     atom    1 type  1   force =    -0.54744362   -4.89179140   14.05803260
     atom    2 type  1   force =   -39.73670391   -6.19075386    0.72903214
     atom    3 type  1   force =   -39.71024818    6.17896156   -0.76433215
     atom    4 type  1   force =    39.53362203   -6.42584295    0.63320352
     atom    5 type  1   force =    39.50688417    6.41264429   -0.85594113
     atom    6 type  2   force =    -0.31264626   -3.78288191  -14.18018129
     atom    7 type  2   force =    -0.57746269    3.90908404   13.99518905
     atom    8 type  3   force =   -52.36776306    0.07149698   -0.13831754
     atom    9 type  3   force =    50.53467372    0.10860654   -2.13533503
     atom   10 type  3   force =   -36.06729228   -2.10590738  -23.04088262
     atom   11 type  3   force =   -35.17631373   -0.89143709   22.08096154
     atom   12 type  3   force =   -35.25444384    0.80984186  -22.09581406
     atom   13 type  3   force =   -36.07481386    2.22578287   23.05971299
     atom   14 type  3   force =    35.98128385   -2.15572870  -23.08805686
     atom   15 type  3   force =    34.96510778   -1.09204656   22.21412507
     atom   16 type  3   force =    35.16947269    0.85856368  -22.14187775
     atom   17 type  3   force =    35.86318598    2.42361758   23.18976571
     atom   18 type  4   force =    -0.29414994    4.57418918  -14.12257258
     atom   19 type  4   force =   -35.91794239    0.95405240  -25.48387375
     atom   20 type  4   force =   -35.97415681   -0.95057505   25.51768334
     atom   21 type  4   force =    35.79178765    0.95282499  -25.67414763
     atom   22 type  4   force =    35.07408362   -0.93240224   26.74815233
     atom   23 type  5   force =     5.59127908   -0.06029882    1.49547409
     The local contribution  to forces
     atom    1 type  1   force =     0.52508370    4.86616681  -14.05599020
     atom    2 type  1   force =    39.88707459    6.33730273   -0.73731913
     atom    3 type  1   force =    39.85747280   -6.32537075    0.80651913
     atom    4 type  1   force =   -39.70057358    6.55922970   -0.66411491
     atom    5 type  1   force =   -39.66464200   -6.54269906    0.87874066
     atom    6 type  2   force =     0.29160555    3.80252424   14.22844446
     atom    7 type  2   force =     0.56681201   -3.94949407  -14.02766083
     atom    8 type  3   force =    52.54917708   -0.06831252    0.14225838
     atom    9 type  3   force =   -50.68554762   -0.10461738    2.11165196
     atom   10 type  3   force =    36.28644055    2.06542199   23.18814474
     atom   11 type  3   force =    35.40602313    0.83528822  -22.22735218
     atom   12 type  3   force =    35.46926917   -0.74877707   22.22006482
     atom   13 type  3   force =    36.29209168   -2.18013143  -23.21482855
     atom   14 type  3   force =   -36.19872307    2.11448581   23.25456489
     atom   15 type  3   force =   -35.20729648    1.02912432  -22.33683595
     atom   16 type  3   force =   -35.37924751   -0.79491562   22.28106956
     atom   17 type  3   force =   -36.09185589   -2.37042587  -23.31791461
     atom   18 type  4   force =     0.27312483   -4.59163610   14.15455806
     atom   19 type  4   force =    35.75558342   -0.96819150   25.28997596
     atom   20 type  4   force =    35.81622370    0.96908014  -25.33572413
     atom   21 type  4   force =   -35.62044857   -0.96664204   25.46986967
     atom   22 type  4   force =   -34.90521270    0.95106770  -26.55247927
     atom   23 type  5   force =    -5.44252267    0.05653260   -1.34191582
     The core correction contribution to forces
     atom    1 type  1   force =     0.00150800    0.00294311   -0.00078583
     atom    2 type  1   force =    -0.01206849   -0.00167967    0.00060518
     atom    3 type  1   force =    -0.01235670    0.00247455   -0.00144021
     atom    4 type  1   force =     0.01432490   -0.00231887    0.00258856
     atom    5 type  1   force =     0.01447513    0.00192895    0.00072831
     atom    6 type  2   force =    -0.00055194    0.00221119    0.00238493
     atom    7 type  2   force =     0.00041177   -0.00347356   -0.00204272
     atom    8 type  3   force =    -0.03131203    0.00011340   -0.00009573
     atom    9 type  3   force =     0.01957750    0.00043980   -0.00889663
     atom   10 type  3   force =    -0.02169522    0.00962556   -0.01581154
     atom   11 type  3   force =    -0.02341441    0.00980675    0.01744928
     atom   12 type  3   force =    -0.02173573   -0.00982879   -0.01528147
     atom   13 type  3   force =    -0.02174552   -0.00930296    0.01689895
     atom   14 type  3   force =     0.02174204    0.00835760   -0.01717555
     atom   15 type  3   force =     0.02589962    0.01050750    0.01444378
     atom   16 type  3   force =     0.02139482   -0.00878388   -0.01643758
     atom   17 type  3   force =     0.02316364   -0.00918408    0.01482089
     atom   18 type  4   force =    -0.00041489   -0.00291624    0.00288406
     atom   19 type  4   force =    -0.00944688    0.00005335   -0.00963872
     atom   20 type  4   force =    -0.00895861    0.00034058    0.00926462
     atom   21 type  4   force =     0.00972989    0.00008537   -0.00971491
     atom   22 type  4   force =     0.00810895    0.00018565    0.01093598
     atom   23 type  5   force =     0.00000000    0.00000000    0.00000000
     The Hubbard contrib.    to forces
     atom    1 type  1   force =     0.00000000    0.00000000    0.00000000
     atom    2 type  1   force =     0.00000000    0.00000000    0.00000000
     atom    3 type  1   force =     0.00000000    0.00000000    0.00000000
     atom    4 type  1   force =     0.00000000    0.00000000    0.00000000
     atom    5 type  1   force =     0.00000000    0.00000000    0.00000000
     atom    6 type  2   force =     0.00000000    0.00000000    0.00000000
     atom    7 type  2   force =     0.00000000    0.00000000    0.00000000
     atom    8 type  3   force =     0.00000000    0.00000000    0.00000000
     atom    9 type  3   force =     0.00000000    0.00000000    0.00000000
     atom   10 type  3   force =     0.00000000    0.00000000    0.00000000
     atom   11 type  3   force =     0.00000000    0.00000000    0.00000000
     atom   12 type  3   force =     0.00000000    0.00000000    0.00000000
     atom   13 type  3   force =     0.00000000    0.00000000    0.00000000
     atom   14 type  3   force =     0.00000000    0.00000000    0.00000000
     atom   15 type  3   force =     0.00000000    0.00000000    0.00000000
     atom   16 type  3   force =     0.00000000    0.00000000    0.00000000
     atom   17 type  3   force =     0.00000000    0.00000000    0.00000000
     atom   18 type  4   force =     0.00000000    0.00000000    0.00000000
     atom   19 type  4   force =     0.00000000    0.00000000    0.00000000
     atom   20 type  4   force =     0.00000000    0.00000000    0.00000000
     atom   21 type  4   force =     0.00000000    0.00000000    0.00000000
     atom   22 type  4   force =     0.00000000    0.00000000    0.00000000
     atom   23 type  5   force =     0.00000000    0.00000000    0.00000000
     The SCF correction term to forces
     atom    1 type  1   force =    -0.00074199    0.00658748   -0.02293052
     atom    2 type  1   force =    -0.00583745    0.00379288   -0.01083629
     atom    3 type  1   force =    -0.00601388   -0.00330269   -0.01145656
     atom    4 type  1   force =     0.00536803    0.00667980   -0.01183834
     atom    5 type  1   force =     0.00559961   -0.00642132   -0.01213414
     atom    6 type  2   force =     0.00308111    0.00482750    0.01004746
     atom    7 type  2   force =    -0.00049974   -0.00802704   -0.02905853
     atom    8 type  3   force =    -0.00158802   -0.00080027   -0.01061113
     atom    9 type  3   force =     0.00096413   -0.00058316   -0.01573115
     atom   10 type  3   force =    -0.00737826   -0.00384235    0.01311087
     atom   11 type  3   force =    -0.00641923    0.00411102   -0.00781222
     atom   12 type  3   force =    -0.00681012    0.00294559    0.01256158
     atom   13 type  3   force =    -0.00705418   -0.00346379   -0.00679803
     atom   14 type  3   force =     0.00581671   -0.00482913    0.01449992
     atom   15 type  3   force =     0.00270088    0.00262992   -0.00921219
     atom   16 type  3   force =     0.00521007    0.00414399    0.01414087
     atom   17 type  3   force =     0.00372774   -0.00261450   -0.00857772
     atom   18 type  4   force =     0.00295288   -0.00368812    0.00815338
     atom   19 type  4   force =    -0.01175975    0.00038595    0.01558524
     atom   20 type  4   force =    -0.00889644   -0.00041014   -0.01020920
     atom   21 type  4   force =     0.01012128    0.00026661    0.02109213
     atom   22 type  4   force =     0.00282317   -0.00013781   -0.01096053
     atom   23 type  5   force =    -0.00025579   -0.00001726   -0.00346061

     Total force =     0.513372     Total SCF correction =     0.074041
     SCF correction compared to forces is large: reduce conv_thr to get better values


     Computing stress (Cartesian axis) and pressure


     negative rho (up, down):  9.086E-01 9.086E-01
          total   stress  (Ry/bohr**3)                   (kbar)     P=       88.72
   0.00068991  -0.00000034   0.00004274          101.49       -0.05        6.29
  -0.00000034   0.00067794  -0.00001166           -0.05       99.73       -1.71
   0.00004274  -0.00001166   0.00044145            6.29       -1.71       64.94


     Entering Dynamics:    iteration =    20
                           time      =   0.0041 pico-seconds


ATOMIC_POSITIONS (angstrom)
Hf            2.6708002595        2.8268773594        6.6055143343
Hf            1.2525516539        1.2861356698        5.0599419987
Hf            1.2550532658        7.3899230387        5.0896194951
Hf            4.0892113949        1.2860901408        5.0599305927
Hf            4.0867184804        7.3899610117        5.0895964530
Nb            2.6708932246        2.7966110648        3.5173085356
Nb            2.6707166275        5.8766862169        6.6362840851
Ta            1.2089249851        4.3409608720        5.0726624759
Ta            4.1175120201        4.3410889375        5.0474518678
Ta            1.3078662889        1.3137427017        2.0596634730
Ta            1.3034725652        1.3079981481        8.0967786497
Ta            1.3046724395        7.3762558429        2.0471653071
Ta            1.3084091396        7.3654049602        8.0882335929
Ta            4.0338794201        1.3138079380        2.0596685615
Ta            4.0382929425        1.3079672458        8.0967380216
Ta            4.0370803092        7.3762047774        2.0471747378
Ta            4.0333461475        7.3654398818        8.0882071439
Zr            2.6708957734        5.8667585861        3.5287434658
Zr            1.2418381915        4.3219720768        1.9989593455
Zr            1.2383432857        4.3542395002        8.1538754781
Zr            4.1000030350        4.3219533934        1.9987234729
Zr            4.1034343949        4.3542926156        8.1539731556
H             5.0555304921        4.3290895782        6.5318814713


     kinetic energy (Ekin) =           4.03443423 Ry
     temperature           =       19302.62983129 K 
     Ekin + Etot (const)   =       -2939.02043560 Ry
     Ions kinetic stress =           71.25 (kbar)
                                     62.77          -0.99          97.10
                                     -0.99           0.03          -1.54
                                     97.10          -1.54         150.96



     Linear momentum :   -0.0000000000    0.0000000000   -0.0000000000

     The maximum number of steps has been reached.

     End of molecular dynamics calculation

     diffusion coefficients :
     atom     1   D =       0.00000001 cm^2/s
     atom     2   D =       0.00000001 cm^2/s
     atom     3   D =       0.00000001 cm^2/s
     atom     4   D =       0.00000003 cm^2/s
     atom     5   D =       0.00000003 cm^2/s
     atom     6   D =       0.00000002 cm^2/s
     atom     7   D =       0.00000001 cm^2/s
     atom     8   D =       0.00000001 cm^2/s
     atom     9   D =       0.00000300 cm^2/s
     atom    10   D =       0.00000001 cm^2/s
     atom    11   D =       0.00000002 cm^2/s
     atom    12   D =       0.00000001 cm^2/s
     atom    13   D =       0.00000002 cm^2/s
     atom    14   D =       0.00000001 cm^2/s
     atom    15   D =       0.00000002 cm^2/s
     atom    16   D =       0.00000001 cm^2/s
     atom    17   D =       0.00000003 cm^2/s
     atom    18   D =       0.00000001 cm^2/s
     atom    19   D =       0.00000002 cm^2/s
     atom    20   D =       0.00000009 cm^2/s
     atom    21   D =       0.00000007 cm^2/s
     atom    22   D =       0.00000013 cm^2/s
     atom    23   D =       0.00032783 cm^2/s

     < D > =       0.00001441 cm^2/s

     Writing all to output data dir outdir/pwscf.save/

     init_run     :     10.05s CPU     11.37s WALL (       1 calls)
     electrons    :   2335.23s CPU   2747.06s WALL (      20 calls)
     update_pot   :     18.90s CPU     20.30s WALL (      19 calls)
     forces       :    181.98s CPU    209.37s WALL (      20 calls)
     stress       :    280.41s CPU    311.31s WALL (      20 calls)

     Called by init_run:
     wfcinit      :      7.50s CPU      8.53s WALL (       1 calls)
     potinit      :      0.44s CPU      0.48s WALL (       1 calls)
     hinit0       :      0.97s CPU      1.05s WALL (       1 calls)

     Called by electrons:
     c_bands      :   1849.57s CPU   2186.27s WALL (      99 calls)
     sum_band     :    317.57s CPU    368.91s WALL (      99 calls)
     v_of_rho     :     10.39s CPU     12.29s WALL (     119 calls)
     newd         :    180.78s CPU    205.86s WALL (     119 calls)
     mix_rho      :      0.94s CPU      1.24s WALL (      99 calls)

     Called by c_bands:
     init_us_2    :      3.92s CPU      4.04s WALL (     478 calls)
     init_us_2:cp :      3.91s CPU      4.03s WALL (     478 calls)
     regterg      :   1835.73s CPU   2169.47s WALL (     198 calls)

     Called by *egterg:
     rdiaghg      :     55.06s CPU     69.03s WALL (    1447 calls)
     h_psi        :    969.77s CPU   1066.99s WALL (    1487 calls)
     s_psi        :    317.51s CPU    318.00s WALL (    1487 calls)
     g_psi        :      0.71s CPU      0.75s WALL (    1287 calls)

     Called by h_psi:
     h_psi:calbec :    471.84s CPU    535.79s WALL (    1487 calls)
     vloc_psi     :     96.78s CPU    129.03s WALL (    1487 calls)
     add_vuspsi   :    399.79s CPU    400.74s WALL (    1487 calls)

     General routines
     calbec       :    782.86s CPU    906.72s WALL (    1885 calls)
     fft          :      8.84s CPU     23.83s WALL (    2484 calls)
     ffts         :      0.22s CPU      0.27s WALL (      99 calls)
     fftw         :    104.83s CPU    140.27s WALL (  103798 calls)

     Parallel routines

     PWSCF        :  47m30.83s CPU  55m28.30s WALL


   This run was terminated on:   1: 5:35  16Jun2023            

=------------------------------------------------------------------------------=
   JOB DONE.
=------------------------------------------------------------------------------=
