
     Program PWSCF v.7.2 starts on 12Jun2023 at 20:22: 7 

     This program is part of the open-source Quantum ESPRESSO suite
     for quantum simulation of materials; please cite
         "P. Giannozzi et al., J. Phys.:Condens. Matter 21 395502 (2009);
         "P. Giannozzi et al., J. Phys.:Condens. Matter 29 465901 (2017);
         "P. Giannozzi et al., J. Chem. Phys. 152 154105 (2020);
          URL http://www.quantum-espresso.org", 
     in publications or presentations arising from this work. More details at
     http://www.quantum-espresso.org/quote

     Parallel version (MPI), running on    42 processors

     MPI processes distributed on     1 nodes
     179980 MiB available memory on the printing compute node when the environment starts

     Reading input from md_data/md_Hf5Nb2Ta10Zr5H_20steps_100eV_incident45_polar30.in
Warning: card &CELL ignored
Warning: card / ignored

     Current dimensions of program PWSCF are:
     Max number of different atomic species (ntypx) = 10
     Max number of k-points (npk) =  40000
     Max angular momentum in pseudopotentials (lmaxx) =  4

     File outdir/pwscf.md deleted, as requested

     gamma-point specific algorithms are used

     R & G space division:  proc/nbgrp/npool/nimage =      42
     Subspace diagonalization in iterative solution of the eigenvalue problem:
     one sub-group per band group will be used
     custom distributed-memory algorithm (size of sub-group:  2*  2 procs)


     Parallelization info
     --------------------
     sticks:   dense  smooth     PW     G-vecs:    dense   smooth      PW
     Min         262     262     63                23470    23470    2920
     Max         265     265     66                23484    23484    2942
     Sum       11057   11057   2753               986005   986005  123175

     Using Slab Decomposition



     bravais-lattice index     =            0
     lattice parameter (alat)  =      17.6500  a.u.
     unit-cell volume          =    5552.8853 (a.u.)^3
     number of atoms/cell      =           23
     number of atomic types    =            5
     number of electrons       =       277.00
     number of Kohn-Sham states=          167
     kinetic-energy cutoff     =     120.0000  Ry
     charge density cutoff     =     480.0000  Ry
     scf convergence threshold =      1.0E-03
     mixing beta               =       0.7000
     number of iterations used =            8  TF        mixing
     energy convergence thresh.=      0.0E+00
     force convergence thresh. =      0.0E+00
     Exchange-correlation=  SLA  PW   PBX  PBC
                           (   1   4   3   4   0   0   0)
     nstep                     =           20


     celldm(1)=  17.650041  celldm(2)=   0.000000  celldm(3)=   0.000000
     celldm(4)=   0.000000  celldm(5)=   0.000000  celldm(6)=   0.000000

     crystal axes: (cart. coord. in units of alat)
               a(1) = (   1.000000   0.000000   0.000000 )  
               a(2) = (   0.000000   0.929336   0.000000 )  
               a(3) = (   0.000000   0.000000   1.086698 )  

     reciprocal axes: (cart. coord. in units 2 pi/alat)
               b(1) = (  1.000000  0.000000  0.000000 )  
               b(2) = (  0.000000  1.076037  0.000000 )  
               b(3) = (  0.000000  0.000000  0.920219 )  


     PseudoPot. # 1 for Hf read from file:
     q-e/pseudo/hf_pbe_v1.uspp.F.UPF
     MD5 check sum: 8ee9378dfe14276e333edf04c5e4aa26
     Pseudo is Ultrasoft + core correction, Zval = 12.0
     Generated by new atomic code, or converted to UPF format
     Using radial grid of  921 points,  8 beta functions with: 
                l(1) =   0
                l(2) =   0
                l(3) =   0
                l(4) =   1
                l(5) =   1
                l(6) =   2
                l(7) =   2
                l(8) =   3
     Q(r) pseudized with  6 coefficients,  rinner =    1.200   1.200   1.200
                                                       1.200   1.200   1.200
                                                       1.200

     PseudoPot. # 2 for Nb read from file:
     q-e/pseudo/nb_pbe_v1.uspp.F.UPF
     MD5 check sum: 573aab8a2fa660278ed4a62cd769473f
     Pseudo is Ultrasoft + core correction, Zval = 13.0
     Generated by new atomic code, or converted to UPF format
     Using radial grid of  887 points,  6 beta functions with: 
                l(1) =   0
                l(2) =   0
                l(3) =   1
                l(4) =   1
                l(5) =   2
                l(6) =   2
     Q(r) pseudized with  6 coefficients,  rinner =    1.000   1.000   1.000
                                                       1.000   1.000

     PseudoPot. # 3 for Ta read from file:
     q-e/pseudo/ta_pbe_v1.uspp.F.UPF
     MD5 check sum: f8bbe9446314a3b8ea5d9f3e3836c939
     Pseudo is Ultrasoft + core correction, Zval = 13.0
     Generated by new atomic code, or converted to UPF format
     Using radial grid of  921 points,  7 beta functions with: 
                l(1) =   0
                l(2) =   0
                l(3) =   1
                l(4) =   1
                l(5) =   2
                l(6) =   2
                l(7) =   3
     Q(r) pseudized with  6 coefficients,  rinner =    1.300   1.300   1.300
                                                       1.300   1.300   1.300
                                                       1.300

     PseudoPot. # 4 for Zr read from file:
     q-e/pseudo/zr_pbe_v1.uspp.F.UPF
     MD5 check sum: 5db81b1e868ab7776c4564c113de050b
     Pseudo is Ultrasoft + core correction, Zval = 12.0
     Generated by new atomic code, or converted to UPF format
     Using radial grid of  887 points,  6 beta functions with: 
                l(1) =   0
                l(2) =   0
                l(3) =   1
                l(4) =   1
                l(5) =   2
                l(6) =   2
     Q(r) pseudized with  6 coefficients,  rinner =    1.200   1.200   1.200
                                                       1.200   1.200

     PseudoPot. # 5 for H  read from file:
     q-e/pseudo/h_pbe_v1.4.uspp.F.UPF
     MD5 check sum: 761ae9a214b05c3daf00ab9f6b793d6f
     Pseudo is Ultrasoft, Zval =  1.0
     Generated by new atomic code, or converted to UPF format
     Using radial grid of  615 points,  2 beta functions with: 
                l(1) =   0
                l(2) =   0
     Q(r) pseudized with  8 coefficients,  rinner =    0.700

     atomic species   valence    mass     pseudopotential
        Hf            12.00   178.49000     Hf( 1.00)
        Nb            13.00    92.90637     Nb( 1.00)
        Ta            13.00   180.94788     Ta( 1.00)
        Zr            12.00    91.22400     Zr( 1.00)
        H              1.00     2.01400     H ( 1.00)

     Starting magnetic structure 
     atomic species   magnetization
        Hf           0.000
        Nb           0.000
        Ta           0.000
        Zr           0.000
        H            0.000

     No symmetry found



   Cartesian axes

     site n.     atom                  positions (alat units)
         1           Hf  tau(   1) = (   0.2858672   0.3026898   0.7070626  )
         2           Hf  tau(   2) = (   0.1341532   0.1377178   0.5415917  )
         3           Hf  tau(   3) = (   0.1344204   0.7911996   0.5447610  )
         4           Hf  tau(   4) = (   0.4375813   0.1377178   0.5415917  )
         5           Hf  tau(   5) = (   0.4373140   0.7911996   0.5447610  )
         6           Nb  tau(   6) = (   0.2858672   0.2994572   0.3764008  )
         7           Nb  tau(   7) = (   0.2858672   0.6291626   0.7103852  )
         8           Ta  tau(   8) = (   0.1294832   0.4647675   0.5429471  )
         9           Ta  tau(   9) = (   0.4422513   0.4647675   0.5429471  )
        10           Ta  tau(  10) = (   0.1399628   0.1406984   0.2204260  )
        11           Ta  tau(  11) = (   0.1394848   0.1400847   0.8666573  )
        12           Ta  tau(  12) = (   0.1396156   0.7897030   0.2190832  )
        13           Ta  tau(  13) = (   0.1400119   0.7885528   0.8657390  )
        14           Ta  tau(  14) = (   0.4317717   0.1406984   0.2204260  )
        15           Ta  tau(  15) = (   0.4322496   0.1400847   0.8666573  )
        16           Ta  tau(  16) = (   0.4321189   0.7897030   0.2190832  )
        17           Ta  tau(  17) = (   0.4317226   0.7885528   0.8657390  )
        18           Zr  tau(  18) = (   0.2858672   0.6280820   0.3776642  )
        19           Zr  tau(  19) = (   0.1331729   0.4627493   0.2141328  )
        20           Zr  tau(  20) = (   0.1328036   0.4661802   0.8725649  )
        21           Zr  tau(  21) = (   0.4385616   0.4627493   0.2141328  )
        22           Zr  tau(  22) = (   0.4389309   0.4661802   0.8725649  )
        23           H   tau(  23) = (   0.5936660   0.5957971   0.6187673  )

     number of k points=     1  Gaussian smearing, width (Ry)=  0.0220
                       cart. coord. in units 2pi/alat
        k(    1) = (   0.0000000   0.0000000   0.0000000), wk =   1.0000000

     Dense  grid:   493003 G-vectors     FFT dimensions: ( 125, 120, 135)

     Estimated max dynamical RAM per process >     133.03 MB

     Estimated total dynamical RAM >       5.46 GB

     Check: negative core charge=   -0.000002
     Generating pointlists ...
     new r_m :   0.1076 (alat units)  1.9000 (a.u.) for type    1
     new r_m :   0.1098 (alat units)  1.9374 (a.u.) for type    2
     new r_m :   0.0883 (alat units)  1.5589 (a.u.) for type    3
     new r_m :   0.1112 (alat units)  1.9625 (a.u.) for type    4
     new r_m :   0.0883 (alat units)  1.5589 (a.u.) for type    5

     Initial potential from superposition of free atoms

     starting charge     266.9726, renormalised to     277.0000

     negative rho (up, down):  9.217E-01 9.217E-01
     Starting wfcs are  287 randomized atomic wfcs

     total cpu time spent up to now is       13.0 secs

     Self-consistent Calculation

     iteration #  1     ecut=   120.00 Ry     beta= 0.70
     Davidson diagonalization with overlap
     ethr =  1.00E-02,  avg # of iterations =  2.0

     negative rho (up, down):  9.948E-01 9.944E-01

     total cpu time spent up to now is       33.5 secs

     total energy              =   -2930.55383767 Ry
     estimated scf accuracy    <     276.97364830 Ry

     total magnetization       =    -0.00 Bohr mag/cell
     absolute magnetization    =     0.09 Bohr mag/cell

     iteration #  2     ecut=   120.00 Ry     beta= 0.70
     Davidson diagonalization with overlap
     ethr =  1.00E-02,  avg # of iterations =  5.0

     negative rho (up, down):  9.685E-01 9.700E-01

     total cpu time spent up to now is       58.2 secs

     total energy              =   -2942.24595345 Ry
     estimated scf accuracy    <      29.94278174 Ry

     total magnetization       =     0.07 Bohr mag/cell
     absolute magnetization    =     0.43 Bohr mag/cell

     iteration #  3     ecut=   120.00 Ry     beta= 0.70
     Davidson diagonalization with overlap
     ethr =  1.00E-02,  avg # of iterations =  2.0

     negative rho (up, down):  1.003E+00 1.008E+00

     total cpu time spent up to now is       97.8 secs

     total energy              =   -2942.68894531 Ry
     estimated scf accuracy    <      12.87522639 Ry

     total magnetization       =     0.03 Bohr mag/cell
     absolute magnetization    =     0.57 Bohr mag/cell

     iteration #  4     ecut=   120.00 Ry     beta= 0.70
     Davidson diagonalization with overlap
     ethr =  4.65E-03,  avg # of iterations =  3.0

     negative rho (up, down):  1.013E+00 1.013E+00

     total cpu time spent up to now is      134.1 secs

     total energy              =   -2942.90534738 Ry
     estimated scf accuracy    <       3.21002151 Ry

     total magnetization       =     0.07 Bohr mag/cell
     absolute magnetization    =     0.59 Bohr mag/cell

     iteration #  5     ecut=   120.00 Ry     beta= 0.70
     Davidson diagonalization with overlap
     ethr =  1.16E-03,  avg # of iterations =  8.0

     negative rho (up, down):  9.875E-01 9.882E-01

     total cpu time spent up to now is      157.4 secs

     total energy              =   -2943.07666100 Ry
     estimated scf accuracy    <       1.76536042 Ry

     total magnetization       =     0.05 Bohr mag/cell
     absolute magnetization    =     0.31 Bohr mag/cell

     iteration #  6     ecut=   120.00 Ry     beta= 0.70
     Davidson diagonalization with overlap
     ethr =  6.37E-04,  avg # of iterations =  2.0

     negative rho (up, down):  9.726E-01 9.735E-01

     total cpu time spent up to now is      175.0 secs

     total energy              =   -2943.12520242 Ry
     estimated scf accuracy    <       1.01352038 Ry

     total magnetization       =     0.02 Bohr mag/cell
     absolute magnetization    =     0.22 Bohr mag/cell

     iteration #  7     ecut=   120.00 Ry     beta= 0.70
     Davidson diagonalization with overlap
     ethr =  3.66E-04,  avg # of iterations =  2.0

     negative rho (up, down):  9.471E-01 9.481E-01

     total cpu time spent up to now is      192.5 secs

     total energy              =   -2943.07351159 Ry
     estimated scf accuracy    <       0.42312489 Ry

     total magnetization       =     0.03 Bohr mag/cell
     absolute magnetization    =     0.18 Bohr mag/cell

     iteration #  8     ecut=   120.00 Ry     beta= 0.70
     Davidson diagonalization with overlap
     ethr =  1.53E-04,  avg # of iterations =  2.5

     negative rho (up, down):  9.198E-01 9.203E-01

     total cpu time spent up to now is      210.2 secs

     total energy              =   -2943.07434518 Ry
     estimated scf accuracy    <       0.17504858 Ry

     total magnetization       =     0.04 Bohr mag/cell
     absolute magnetization    =     0.15 Bohr mag/cell

     iteration #  9     ecut=   120.00 Ry     beta= 0.70
     Davidson diagonalization with overlap
     ethr =  6.32E-05,  avg # of iterations = 14.0

     negative rho (up, down):  9.077E-01 9.077E-01

     total cpu time spent up to now is      247.7 secs

     total energy              =   -2943.06830538 Ry
     estimated scf accuracy    <       0.05780073 Ry

     total magnetization       =     0.03 Bohr mag/cell
     absolute magnetization    =     0.10 Bohr mag/cell

     iteration # 10     ecut=   120.00 Ry     beta= 0.70
     Davidson diagonalization with overlap
     ethr =  2.09E-05,  avg # of iterations =  6.0

     negative rho (up, down):  9.085E-01 9.085E-01

     total cpu time spent up to now is      289.2 secs

     total energy              =   -2943.07313508 Ry
     estimated scf accuracy    <       0.03153467 Ry

     total magnetization       =     0.03 Bohr mag/cell
     absolute magnetization    =     0.07 Bohr mag/cell

     iteration # 11     ecut=   120.00 Ry     beta= 0.70
     Davidson diagonalization with overlap
     ethr =  1.14E-05,  avg # of iterations =  3.5

     negative rho (up, down):  9.092E-01 9.092E-01

     total cpu time spent up to now is      310.1 secs

     total energy              =   -2943.07672409 Ry
     estimated scf accuracy    <       0.00756233 Ry

     total magnetization       =     0.03 Bohr mag/cell
     absolute magnetization    =     0.06 Bohr mag/cell

     iteration # 12     ecut=   120.00 Ry     beta= 0.70
     Davidson diagonalization with overlap
     c_bands:  1 eigenvalues not converged
     ethr =  2.73E-06,  avg # of iterations = 19.5

     negative rho (up, down):  9.092E-01 9.092E-01

     total cpu time spent up to now is      335.5 secs

     total energy              =   -2943.07917993 Ry
     estimated scf accuracy    <       0.00187852 Ry

     total magnetization       =     0.03 Bohr mag/cell
     absolute magnetization    =     0.04 Bohr mag/cell

     iteration # 13     ecut=   120.00 Ry     beta= 0.70
     Davidson diagonalization with overlap
     ethr =  6.78E-07,  avg # of iterations =  3.0

     negative rho (up, down):  9.090E-01 9.090E-01

     Magnetic moment per site  (integrated on atomic sphere of radius R)
     atom   1 (R=0.108)  charge=  9.1665    0.0000
     atom   2 (R=0.108)  charge=  8.8223   -0.0001
     atom   3 (R=0.108)  charge=  8.8213    0.0000
     atom   4 (R=0.108)  charge=  8.8221    0.0002
     atom   5 (R=0.108)  charge=  8.8164    0.0001
     atom   6 (R=0.110)  charge= 10.3492    0.0002
     atom   7 (R=0.110)  charge= 10.3526   -0.0001
     atom   8 (R=0.088)  charge=  8.1250    0.0001
     atom   9 (R=0.088)  charge=  8.1226    0.0003
     atom  10 (R=0.088)  charge=  8.1060   -0.0000
     atom  11 (R=0.088)  charge=  8.1030    0.0004
     atom  12 (R=0.088)  charge=  8.1062   -0.0003
     atom  13 (R=0.088)  charge=  8.1020    0.0002
     atom  14 (R=0.088)  charge=  8.1055    0.0010
     atom  15 (R=0.088)  charge=  8.1011    0.0013
     atom  16 (R=0.088)  charge=  8.1057   -0.0002
     atom  17 (R=0.088)  charge=  8.1086    0.0012
     atom  18 (R=0.111)  charge=  9.4534    0.0002
     atom  19 (R=0.111)  charge=  8.9984   -0.0001
     atom  20 (R=0.111)  charge=  8.9949   -0.0003
     atom  21 (R=0.111)  charge=  8.9973    0.0008
     atom  22 (R=0.111)  charge=  8.9979    0.0004
     atom  23 (R=0.088)  charge=  1.0020   -0.0000

     total cpu time spent up to now is      354.2 secs

     End of self-consistent calculation

 ------ SPIN UP ------------


          k = 0.0000 0.0000 0.0000 ( 61588 PWs)   bands (ev):

   -60.7868 -60.7825 -60.7452 -60.7382 -60.7075 -60.7024 -60.6634 -60.6581
   -60.5463 -60.4310 -54.3723 -54.3203 -54.2463 -54.1950 -52.7048 -46.2957
   -46.2630 -41.6629 -41.6387 -41.5675 -41.5376 -39.8072 -27.7881 -27.7825
   -27.7010 -27.6971 -27.6032 -27.5958 -27.4737 -27.4656 -27.4002 -27.3395
   -27.3166 -27.2782 -27.2664 -27.2473 -27.2314 -27.1812 -27.1709 -27.1605
   -27.1127 -27.0816 -27.0346 -26.9697 -26.9646 -26.9592 -26.9526 -26.9383
   -26.8942 -26.8889 -26.8616 -26.8581 -24.1625 -23.9463 -23.6553 -23.5529
   -23.3077 -23.1815 -23.1549 -23.0570 -22.9253 -22.8457 -22.8238 -22.5986
   -22.5239 -22.4641 -22.4035 -22.3708 -22.2783 -22.2401 -21.7631 -21.6985
   -21.6330 -20.2041 -19.9661 -19.8428 -19.8349 -19.6523 -19.6170 -19.6088
   -19.5984 -19.5841 -19.5495 -19.3878 -19.3766 -18.1525 -17.9497 -17.8240
     1.3802   2.6392   2.9284   3.1325   3.3269   3.4167   3.5041   3.6711
     3.6914   3.8109   3.9074   4.0414   4.1744   4.4992   4.6591   4.6879
     4.7568   4.8101   5.0358   5.1037   5.1795   5.2595   5.2812   5.3375
     5.3886   5.5448   5.5939   5.7116   5.7261   5.7482   5.7518   5.8054
     5.9521   6.0713   6.1649   6.2132   6.2692   6.2824   6.3539   6.3915
     6.4422   6.5916   6.6515   6.7008   6.8996   6.9520   7.0046   7.0677
     7.1002   7.1508   7.2565   7.2905   7.3128   7.4411   7.5453   7.5725
     7.6102   7.7654   7.8911   7.9011   8.0797   8.0925   8.1086   8.1886
     8.2397   8.2805   8.3460   8.3698   8.4507   8.5502   8.6350   8.6775
     8.8343   8.8996   8.9690   9.0650   9.1503   9.2307   9.2716

 ------ SPIN DOWN ----------


          k = 0.0000 0.0000 0.0000 ( 61588 PWs)   bands (ev):

   -60.7867 -60.7817 -60.7453 -60.7373 -60.7072 -60.7015 -60.6635 -60.6573
   -60.5461 -60.4305 -54.3723 -54.3202 -54.2463 -54.1949 -52.7049 -46.2957
   -46.2627 -41.6627 -41.6385 -41.5677 -41.5375 -39.8070 -27.7873 -27.7819
   -27.7009 -27.6958 -27.6024 -27.5952 -27.4733 -27.4652 -27.3999 -27.3391
   -27.3161 -27.2783 -27.2654 -27.2466 -27.2308 -27.1810 -27.1709 -27.1597
   -27.1122 -27.0810 -27.0337 -26.9693 -26.9636 -26.9588 -26.9515 -26.9378
   -26.8930 -26.8889 -26.8617 -26.8570 -24.1626 -23.9463 -23.6553 -23.5528
   -23.3076 -23.1814 -23.1549 -23.0569 -22.9253 -22.8457 -22.8237 -22.5985
   -22.5237 -22.4639 -22.4034 -22.3709 -22.2782 -22.2400 -21.7631 -21.6985
   -21.6329 -20.2037 -19.9664 -19.8426 -19.8351 -19.6518 -19.6170 -19.6089
   -19.5985 -19.5841 -19.5498 -19.3878 -19.3762 -18.1525 -17.9495 -17.8237
     1.3809   2.6397   2.9293   3.1329   3.3274   3.4178   3.5048   3.6715
     3.6920   3.8112   3.9084   4.0418   4.1752   4.4998   4.6596   4.6887
     4.7576   4.8105   5.0368   5.1040   5.1799   5.2598   5.2820   5.3382
     5.3898   5.5452   5.5943   5.7124   5.7266   5.7487   5.7521   5.8059
     5.9526   6.0723   6.1654   6.2138   6.2696   6.2831   6.3544   6.3919
     6.4432   6.5920   6.6521   6.7014   6.9002   6.9532   7.0063   7.0687
     7.1028   7.1518   7.2587   7.2927   7.3136   7.4439   7.5458   7.5737
     7.6112   7.7667   7.8919   7.9016   8.0810   8.0933   8.1092   8.1899
     8.2413   8.2810   8.3476   8.3705   8.4513   8.5510   8.6358   8.6781
     8.8350   8.9012   8.9699   9.0652   9.1510   9.2312   9.2685

     the Fermi energy is     7.2401 ev

!    total energy              =   -2943.08032297 Ry
     estimated scf accuracy    <       0.00050610 Ry
     smearing contrib. (-TS)   =      -0.10166050 Ry
     internal energy E=F+TS    =   -2942.97866247 Ry

     total magnetization       =     0.02 Bohr mag/cell
     absolute magnetization    =     0.04 Bohr mag/cell

     convergence has been achieved in  13 iterations

     negative rho (up, down):  9.090E-01 9.090E-01

     Forces acting on atoms (cartesian axes, Ry/au):

     atom    1 type  1   force =    -0.00141408   -0.02338039    0.00774231
     atom    2 type  1   force =    -0.11559468   -0.01708544   -0.00404424
     atom    3 type  1   force =    -0.11500897    0.01431533    0.00175490
     atom    4 type  1   force =     0.11700985   -0.00884508   -0.00641119
     atom    5 type  1   force =     0.13229524   -0.01316210    0.00510925
     atom    6 type  2   force =    -0.01080101   -0.01953414    0.00629556
     atom    7 type  2   force =    -0.02385448    0.00890800   -0.01426551
     atom    8 type  3   force =    -0.10964911    0.00397608   -0.00322071
     atom    9 type  3   force =     0.14224067    0.01966217   -0.00099316
     atom   10 type  3   force =    -0.01974145   -0.03041139   -0.05866891
     atom   11 type  3   force =    -0.02162289   -0.03403772    0.05701078
     atom   12 type  3   force =    -0.01851565    0.03607043   -0.05423154
     atom   13 type  3   force =    -0.01312145    0.03118922    0.06334642
     atom   14 type  3   force =     0.02084815   -0.03109191   -0.05958779
     atom   15 type  3   force =     0.01912445   -0.03812177    0.06026236
     atom   16 type  3   force =     0.01917770    0.03961113   -0.05218846
     atom   17 type  3   force =     0.01330899    0.04389863    0.06403316
     atom   18 type  4   force =    -0.00169947    0.02330536   -0.00685410
     atom   19 type  4   force =    -0.12986770   -0.00590228   -0.11607216
     atom   20 type  4   force =    -0.13027963    0.00458301    0.11744011
     atom   21 type  4   force =     0.12646243   -0.00881537   -0.11563928
     atom   22 type  4   force =     0.13637545    0.00058281    0.11489836
     atom   23 type  5   force =    -0.01567238    0.00428542   -0.00571615
     The non-local contrib.  to forces
     atom    1 type  1   force =     0.00144161   -0.00955386    0.02945167
     atom    2 type  1   force =    -0.24876473   -0.16055959    0.01342590
     atom    3 type  1   force =    -0.23884616    0.15381920   -0.02154883
     atom    4 type  1   force =     0.24696549   -0.16424918    0.02046037
     atom    5 type  1   force =     0.23156397    0.14851450   -0.01025887
     atom    6 type  2   force =     0.00694447   -0.05434547   -0.06760377
     atom    7 type  2   force =    -0.02177268    0.06722907    0.06370862
     atom    8 type  3   force =    -0.25912030    0.00521258    0.00020554
     atom    9 type  3   force =     0.15453506   -0.05139611   -0.01828809
     atom   10 type  3   force =    -0.21146329    0.00353863   -0.20727450
     atom   11 type  3   force =    -0.21495401    0.00435904    0.19835335
     atom   12 type  3   force =    -0.20721049   -0.02101447   -0.17681622
     atom   13 type  3   force =    -0.21154818   -0.00515649    0.20245167
     atom   14 type  3   force =     0.20892458    0.00273337   -0.21840437
     atom   15 type  3   force =     0.21568547    0.00354694    0.19633460
     atom   16 type  3   force =     0.20556137   -0.01963928   -0.18306335
     atom   17 type  3   force =     0.24856533   -0.02759330    0.17188606
     atom   18 type  4   force =    -0.01040276    0.05751636   -0.06173606
     atom   19 type  4   force =     0.06183730    0.00759102    0.07283917
     atom   20 type  4   force =     0.05780647   -0.02109874   -0.06350750
     atom   21 type  4   force =    -0.05934718    0.01118182    0.07148030
     atom   22 type  4   force =    -0.05977250   -0.01105685   -0.06297948
     atom   23 type  5   force =    -0.03358070   -0.01402106   -0.01503934
     The ionic contribution  to forces
     atom    1 type  1   force =    -0.21148423   -4.74111699   14.03294616
     atom    2 type  1   force =   -39.68751861   -6.11701304    0.74419821
     atom    3 type  1   force =   -39.69854438    6.20139056   -0.76883330
     atom    4 type  1   force =    39.52674118   -6.12771257    0.70722995
     atom    5 type  1   force =    38.99262325    6.86384475   -1.02602497
     atom    6 type  2   force =    -0.14513075   -3.63718137  -13.99541384
     atom    7 type  2   force =    -0.62971745    3.62977727   14.09308517
     atom    8 type  3   force =   -52.15479482   -0.01887936   -0.13220502
     atom    9 type  3   force =    50.83611550   -0.98504820   -0.69649733
     atom   10 type  3   force =   -36.05677644   -2.08281961  -23.07885383
     atom   11 type  3   force =   -35.14042818   -0.83727587   22.10781752
     atom   12 type  3   force =   -35.25094977    0.82836029  -22.15668633
     atom   13 type  3   force =   -36.06587933    2.24192734   23.12789986
     atom   14 type  3   force =    35.97839299   -2.08602008  -23.12166478
     atom   15 type  3   force =    35.01599250   -0.84497654   22.17944471
     atom   16 type  3   force =    35.11699233    0.89022369  -22.27246195
     atom   17 type  3   force =    35.74302534    2.46234464   23.42119564
     atom   18 type  4   force =    -0.29131078    4.36581002  -14.08205321
     atom   19 type  4   force =   -35.90229806    0.92322265  -25.55453660
     atom   20 type  4   force =   -35.90826210   -1.00855152   25.57887752
     atom   21 type  4   force =    35.76994862    0.87333795  -25.68709208
     atom   22 type  4   force =    35.54880398   -1.20463537   25.96864401
     atom   23 type  5   force =     4.61445920    0.41099132    0.61098450
     The local contribution  to forces
     atom    1 type  1   force =     0.21032212    4.72441945  -14.05888185
     atom    2 type  1   force =    39.84214906    6.25815147   -0.76788894
     atom    3 type  1   force =    39.84496045   -6.33708138    0.78548655
     atom    4 type  1   force =   -39.67784834    6.28337650   -0.74304364
     atom    5 type  1   force =   -39.10632266   -7.03013975    1.03614274
     atom    6 type  2   force =     0.13121821    3.66586269   14.06014083
     atom    7 type  2   force =     0.63283321   -3.68884580  -14.17899805
     atom    8 type  3   force =    52.33875806    0.01474732    0.12078082
     atom    9 type  3   force =   -50.86481132    1.06375969    0.70883275
     atom   10 type  3   force =    36.27434893    2.03971899   23.24567895
     atom   11 type  3   force =    35.36238695    0.79548394  -22.26763611
     atom   12 type  3   force =    35.46687179   -0.75386213   22.29662225
     atom   13 type  3   force =    36.29053633   -2.19234234  -23.28200712
     atom   14 type  3   force =   -36.19021933    2.04006034   23.29809312
     atom   15 type  3   force =   -35.24027132    0.79571783  -22.33106997
     atom   16 type  3   force =   -35.32628586   -0.81442454   22.42071438
     atom   17 type  3   force =   -36.00152270   -2.38013042  -23.54176336
     atom   18 type  4   force =     0.30546835   -4.39731356   14.13085221
     atom   19 type  4   force =    35.72051631   -0.94193270   25.37813064
     atom   20 type  4   force =    35.72929108    1.02711849  -25.40760995
     atom   21 type  4   force =   -35.59016880   -0.89577700   25.51479171
     atom   22 type  4   force =   -35.35960233    1.21238541  -25.80217281
     atom   23 type  5   force =    -4.59683316   -0.39339349   -0.60283597
     The core correction contribution to forces
     atom    1 type  1   force =     0.00059097    0.00138117   -0.00077715
     atom    2 type  1   force =    -0.01150407   -0.00120937    0.00021179
     atom    3 type  1   force =    -0.01199843    0.00243699   -0.00115930
     atom    4 type  1   force =     0.01212178   -0.00205622    0.00236414
     atom    5 type  1   force =     0.00643922    0.00743050   -0.00212134
     atom    6 type  2   force =    -0.00036740    0.00262524    0.00286403
     atom    7 type  2   force =     0.00113439   -0.00345588   -0.00255378
     atom    8 type  3   force =    -0.03139598    0.00095113    0.00019731
     atom    9 type  3   force =     0.01703765   -0.00917702   -0.00360447
     atom   10 type  3   force =    -0.02214790    0.00917186   -0.01669159
     atom   11 type  3   force =    -0.02418794    0.00873124    0.01830404
     atom   12 type  3   force =    -0.02207031   -0.01015515   -0.01536865
     atom   13 type  3   force =    -0.02287291   -0.00956328    0.01592152
     atom   14 type  3   force =     0.02168958    0.00978859   -0.01656607
     atom   15 type  3   force =     0.02338573    0.00982580    0.01576113
     atom   16 type  3   force =     0.02291659   -0.01126255   -0.01537289
     atom   17 type  3   force =     0.02479150   -0.00952019    0.01336925
     atom   18 type  4   force =     0.00055702   -0.00304836    0.00295390
     atom   19 type  4   force =    -0.00982242    0.00008939   -0.00955633
     atom   20 type  4   force =    -0.00971775    0.00076057    0.00909714
     atom   21 type  4   force =     0.00971124   -0.00003619   -0.00946629
     atom   22 type  4   force =     0.01024693    0.00059135    0.00851701
     atom   23 type  5   force =     0.00000000    0.00000000    0.00000000
     The Hubbard contrib.    to forces
     atom    1 type  1   force =     0.00000000    0.00000000    0.00000000
     atom    2 type  1   force =     0.00000000    0.00000000    0.00000000
     atom    3 type  1   force =     0.00000000    0.00000000    0.00000000
     atom    4 type  1   force =     0.00000000    0.00000000    0.00000000
     atom    5 type  1   force =     0.00000000    0.00000000    0.00000000
     atom    6 type  2   force =     0.00000000    0.00000000    0.00000000
     atom    7 type  2   force =     0.00000000    0.00000000    0.00000000
     atom    8 type  3   force =     0.00000000    0.00000000    0.00000000
     atom    9 type  3   force =     0.00000000    0.00000000    0.00000000
     atom   10 type  3   force =     0.00000000    0.00000000    0.00000000
     atom   11 type  3   force =     0.00000000    0.00000000    0.00000000
     atom   12 type  3   force =     0.00000000    0.00000000    0.00000000
     atom   13 type  3   force =     0.00000000    0.00000000    0.00000000
     atom   14 type  3   force =     0.00000000    0.00000000    0.00000000
     atom   15 type  3   force =     0.00000000    0.00000000    0.00000000
     atom   16 type  3   force =     0.00000000    0.00000000    0.00000000
     atom   17 type  3   force =     0.00000000    0.00000000    0.00000000
     atom   18 type  4   force =     0.00000000    0.00000000    0.00000000
     atom   19 type  4   force =     0.00000000    0.00000000    0.00000000
     atom   20 type  4   force =     0.00000000    0.00000000    0.00000000
     atom   21 type  4   force =     0.00000000    0.00000000    0.00000000
     atom   22 type  4   force =     0.00000000    0.00000000    0.00000000
     atom   23 type  5   force =     0.00000000    0.00000000    0.00000000
     The SCF correction term to forces
     atom    1 type  1   force =    -0.00198428    0.00150567    0.00446818
     atom    2 type  1   force =    -0.00965606    0.00356093    0.00547350
     atom    3 type  1   force =    -0.01028019   -0.00623421    0.00727447
     atom    4 type  1   force =     0.00933001    0.00181222    0.00604269
     atom    5 type  1   force =     0.00829173   -0.00279627    0.00683639
     atom    6 type  2   force =    -0.00316528    0.00352061    0.00577300
     atom    7 type  2   force =    -0.00603168    0.00421917    0.00995722
     atom    8 type  3   force =    -0.00279580    0.00196024    0.00726534
     atom    9 type  3   force =    -0.00033595    0.00153964    0.00802867
     atom   10 type  3   force =    -0.00340248   -0.00000542   -0.00206324
     atom   11 type  3   force =    -0.00413943   -0.00532024   -0.00036333
     atom   12 type  3   force =    -0.00485659   -0.00724229   -0.00251789
     atom   13 type  3   force =    -0.00305708   -0.00366018   -0.00145481
     atom   14 type  3   force =     0.00236060    0.00236170   -0.00158100
     atom   15 type  3   force =     0.00463234   -0.00221997   -0.00074341
     atom   16 type  3   force =     0.00029354   -0.00527036   -0.00253995
     atom   17 type  3   force =    -0.00125019   -0.00118627   -0.00118974
     atom   18 type  4   force =    -0.00571103    0.00035674    0.00259377
     atom   19 type  4   force =     0.00019944    0.00514318   -0.00348434
     atom   20 type  4   force =     0.00090295    0.00637004    0.00004760
     atom   21 type  4   force =    -0.00338118    0.00249388   -0.00588822
     atom   22 type  4   force =    -0.00300035    0.00331410    0.00235432
     atom   23 type  5   force =     0.00058255    0.00072447    0.00063935

     Total force =     0.507169     Total SCF correction =     0.037372


     Computing stress (Cartesian axis) and pressure


     negative rho (up, down):  9.090E-01 9.090E-01
          total   stress  (Ry/bohr**3)                   (kbar)     P=       82.86
   0.00065975   0.00000412  -0.00000312           97.05        0.61       -0.46
   0.00000412   0.00064344  -0.00000387            0.61       94.65       -0.57
  -0.00000312  -0.00000387   0.00038658           -0.46       -0.57       56.87


     Molecular Dynamics Calculation

     Starting temperature  =   300.00 K

     temperature is set once at start

     mass Hf               =   178.49
     mass Nb               =    92.91
     mass Ta               =   180.95
     mass Zr               =    91.22
     mass H                =     2.01
     Time step             =     4.20 a.u.,  0.2032 femto-seconds

     Entering Dynamics:    iteration =     1
                           time      =   0.0002 pico-seconds


ATOMIC_POSITIONS (angstrom)
Hf            2.6700888017        2.8271993370        6.6040088834
Hf            1.2530762491        1.2863606698        5.0585105527
Hf            1.2555724843        7.3898816841        5.0881122604
Hf            4.0871014760        1.2863609062        5.0585104848
Hf            4.0846056962        7.3898808958        5.0881123566
Nb            2.6700882469        2.7970065074        3.5156280063
Nb            2.6700875274        5.8764561459        6.6350415995
Ta            1.2094588382        4.3410049427        5.0711701838
Ta            4.1307197687        4.3410053866        5.0711702468
Ta            1.3073410107        1.3141987074        2.0588218924
Ta            1.3028765875        1.3084671513        8.0946252584
Ta            1.3040979834        7.3759041235        2.0462800877
Ta            1.3077993123        7.3651608096        8.0860484561
Ta            4.0328367052        1.3141986881        2.0588218664
Ta            4.0373010263        1.3084670357        8.0946253505
Ta            4.0360797199        7.3759042237        2.0462801455
Ta            4.0323783775        7.3651611693        8.0860484756
Zr            2.6700887469        5.8663641302        3.5274279883
Zr            1.2439162142        4.3221546118        2.0000379270
Zr            1.2404669848        4.3542005204        8.1498065844
Zr            4.0962612792        4.3221544482        2.0000379513
Zr            4.0997110419        4.3542002958        8.1498064417
H             5.3972236145        5.4369474981        5.7054835635


     kinetic energy (Ekin) =           8.09831239 Ry
     temperature           =       38746.13329364 K 
     Ekin + Etot (const)   =       -2934.98201058 Ry
     Ions kinetic stress =          143.03 (kbar)
                                    214.53         185.80         107.27
                                    185.80         160.91          92.90
                                    107.27          92.90          53.63



     Linear momentum :   -0.0000000000    0.0000000000   -0.0000000000

     File outdir/pwscf.msd.dat deleted, as requested

     Writing config-only to output data dir outdir/pwscf.save/
     NEW-OLD atomic charge density approx. for the potential

     Check: negative core charge=   -0.000002

     negative rho (up, down):  9.089E-01 9.089E-01
     Generating pointlists ...
     new r_m :   0.0791 (alat units)  1.3961 (a.u.) for type    3
     new r_m :   0.0791 (alat units)  1.3961 (a.u.) for type    5

     total cpu time spent up to now is      385.7 secs

     Self-consistent Calculation

     iteration #  1     ecut=   120.00 Ry     beta= 0.70
     Davidson diagonalization with overlap
     ethr =  1.00E-06,  avg # of iterations =  7.0

     negative rho (up, down):  9.089E-01 9.089E-01

     total cpu time spent up to now is      453.2 secs

     total energy              =   -2943.07035772 Ry
     estimated scf accuracy    <       0.04942690 Ry

     total magnetization       =     0.02 Bohr mag/cell
     absolute magnetization    =     0.03 Bohr mag/cell

     iteration #  2     ecut=   120.00 Ry     beta= 0.70
     Davidson diagonalization with overlap
     ethr =  1.78E-05,  avg # of iterations =  2.0

     negative rho (up, down):  9.089E-01 9.089E-01

     total cpu time spent up to now is      471.9 secs

     total energy              =   -2943.07347616 Ry
     estimated scf accuracy    <       0.02675498 Ry

     total magnetization       =     0.02 Bohr mag/cell
     absolute magnetization    =     0.03 Bohr mag/cell

     iteration #  3     ecut=   120.00 Ry     beta= 0.70
     Davidson diagonalization with overlap
     ethr =  9.66E-06,  avg # of iterations =  1.0

     negative rho (up, down):  9.089E-01 9.089E-01

     total cpu time spent up to now is      488.0 secs

     total energy              =   -2943.07487401 Ry
     estimated scf accuracy    <       0.00155972 Ry

     total magnetization       =     0.02 Bohr mag/cell
     absolute magnetization    =     0.03 Bohr mag/cell

     iteration #  4     ecut=   120.00 Ry     beta= 0.70
     Davidson diagonalization with overlap
     ethr =  5.63E-07,  avg # of iterations =  2.0

     negative rho (up, down):  9.089E-01 9.089E-01

     Magnetic moment per site  (integrated on atomic sphere of radius R)
     atom   1 (R=0.108)  charge=  9.1677   -0.0000
     atom   2 (R=0.108)  charge=  8.8213    0.0000
     atom   3 (R=0.108)  charge=  8.8215    0.0001
     atom   4 (R=0.108)  charge=  8.8229    0.0000
     atom   5 (R=0.108)  charge=  8.8156    0.0001
     atom   6 (R=0.110)  charge= 10.3497    0.0001
     atom   7 (R=0.110)  charge= 10.3514    0.0000
     atom   8 (R=0.079)  charge=  7.1143    0.0000
     atom   9 (R=0.079)  charge=  7.1215   -0.0000
     atom  10 (R=0.079)  charge=  7.0956    0.0001
     atom  11 (R=0.079)  charge=  7.0952    0.0002
     atom  12 (R=0.079)  charge=  7.0982   -0.0000
     atom  13 (R=0.079)  charge=  7.0981    0.0002
     atom  14 (R=0.079)  charge=  7.0961    0.0005
     atom  15 (R=0.079)  charge=  7.0947    0.0007
     atom  16 (R=0.079)  charge=  7.0966    0.0002
     atom  17 (R=0.079)  charge=  7.1003    0.0006
     atom  18 (R=0.111)  charge=  9.4543    0.0001
     atom  19 (R=0.111)  charge=  8.9963    0.0001
     atom  20 (R=0.111)  charge=  8.9956   -0.0000
     atom  21 (R=0.111)  charge=  8.9948    0.0008
     atom  22 (R=0.111)  charge=  8.9990    0.0007
     atom  23 (R=0.079)  charge=  0.9487    0.0000

     total cpu time spent up to now is      505.8 secs

     End of self-consistent calculation

 ------ SPIN UP ------------


          k = 0.0000 0.0000 0.0000 ( 61588 PWs)   bands (ev):

   -60.7679 -60.7620 -60.7211 -60.7182 -60.6865 -60.6785 -60.6422 -60.6368
   -60.5253 -60.2979 -54.3593 -54.3109 -54.2322 -54.1807 -52.6914 -46.2725
   -46.2559 -41.6461 -41.6233 -41.5500 -41.5227 -39.8019 -27.7689 -27.7613
   -27.6795 -27.6788 -27.5846 -27.5727 -27.4530 -27.4447 -27.3636 -27.3185
   -27.2928 -27.2535 -27.2496 -27.2232 -27.2089 -27.1616 -27.1500 -27.1366
   -27.0898 -26.9875 -26.9534 -26.9428 -26.9346 -26.9331 -26.9182 -26.8787
   -26.8725 -26.8625 -26.8405 -26.8368 -24.1481 -23.9314 -23.6427 -23.5423
   -23.2936 -23.1661 -23.1435 -23.0407 -22.9110 -22.8368 -22.8115 -22.5885
   -22.5079 -22.4532 -22.3885 -22.3537 -22.2656 -22.2245 -21.7489 -21.6828
   -21.6203 -20.1895 -19.9498 -19.8257 -19.8215 -19.6335 -19.6005 -19.5920
   -19.5820 -19.5699 -19.5332 -19.3716 -19.3606 -18.1465 -17.9420 -17.8176
     1.3324   2.4691   2.9436   3.1494   3.3346   3.4455   3.5169   3.6882
     3.7149   3.8231   3.9240   4.0570   4.1985   4.5132   4.6765   4.6986
     4.7786   4.8143   5.0501   5.1153   5.1924   5.2779   5.2958   5.3439
     5.4015   5.5606   5.6225   5.7304   5.7416   5.7652   5.7732   5.8265
     5.9711   6.0881   6.1848   6.2330   6.2819   6.3079   6.3695   6.4023
     6.4480   6.6125   6.6665   6.7172   6.9147   6.9713   7.0154   7.0809
     7.1083   7.1645   7.2642   7.2905   7.3297   7.4530   7.5604   7.5728
     7.6279   7.7743   7.9067   7.9194   8.0909   8.0982   8.1232   8.1992
     8.2580   8.2998   8.3625   8.3850   8.4793   8.5645   8.6463   8.6902
     8.8494   8.9078   8.9858   9.0808   9.1573   9.2607   9.2867

 ------ SPIN DOWN ----------


          k = 0.0000 0.0000 0.0000 ( 61588 PWs)   bands (ev):

   -60.7675 -60.7617 -60.7204 -60.7180 -60.6862 -60.6778 -60.6420 -60.6362
   -60.5252 -60.2979 -54.3593 -54.3109 -54.2321 -54.1806 -52.6914 -46.2725
   -46.2559 -41.6457 -41.6229 -41.5499 -41.5223 -39.8019 -27.7681 -27.7609
   -27.6787 -27.6783 -27.5838 -27.5722 -27.4523 -27.4443 -27.3634 -27.3181
   -27.2925 -27.2531 -27.2490 -27.2227 -27.2084 -27.1615 -27.1498 -27.1360
   -27.0897 -26.9875 -26.9528 -26.9425 -26.9339 -26.9327 -26.9179 -26.8781
   -26.8720 -26.8624 -26.8400 -26.8362 -24.1481 -23.9314 -23.6427 -23.5422
   -23.2935 -23.1661 -23.1434 -23.0406 -22.9109 -22.8368 -22.8115 -22.5885
   -22.5079 -22.4532 -22.3884 -22.3537 -22.2655 -22.2244 -21.7489 -21.6828
   -21.6202 -20.1890 -19.9497 -19.8251 -19.8212 -19.6329 -19.6001 -19.5918
   -19.5819 -19.5696 -19.5331 -19.3714 -19.3600 -18.1465 -17.9419 -17.8175
     1.3327   2.4694   2.9443   3.1496   3.3349   3.4464   3.5174   3.6884
     3.7152   3.8233   3.9249   4.0572   4.1990   4.5134   4.6768   4.6991
     4.7791   4.8145   5.0510   5.1156   5.1927   5.2782   5.2964   5.3443
     5.4024   5.5609   5.6227   5.7310   5.7421   5.7657   5.7734   5.8269
     5.9714   6.0888   6.1852   6.2335   6.2823   6.3084   6.3699   6.4028
     6.4489   6.6128   6.6670   6.7176   6.9152   6.9724   7.0168   7.0820
     7.1107   7.1653   7.2664   7.2921   7.3303   7.4551   7.5610   7.5739
     7.6289   7.7753   7.9073   7.9200   8.0918   8.0994   8.1238   8.2003
     8.2593   8.3003   8.3638   8.3856   8.4798   8.5652   8.6469   8.6908
     8.8499   8.9094   8.9865   9.0812   9.1580   9.2611   9.2841

     the Fermi energy is     7.2508 ev

!    total energy              =   -2943.07483297 Ry
     estimated scf accuracy    <       0.00028178 Ry
     smearing contrib. (-TS)   =      -0.10217295 Ry
     internal energy E=F+TS    =   -2942.97266002 Ry

     total magnetization       =     0.02 Bohr mag/cell
     absolute magnetization    =     0.03 Bohr mag/cell

     convergence has been achieved in   4 iterations

     negative rho (up, down):  9.089E-01 9.089E-01

     Forces acting on atoms (cartesian axes, Ry/au):

     atom    1 type  1   force =    -0.00155413   -0.02170539    0.01079913
     atom    2 type  1   force =    -0.11981084   -0.01662070    0.00103114
     atom    3 type  1   force =    -0.11942085    0.01168080    0.00671028
     atom    4 type  1   force =     0.12288907   -0.00946339   -0.00113496
     atom    5 type  1   force =     0.13041513   -0.01434825    0.00975732
     atom    6 type  2   force =    -0.01101971   -0.02086171    0.00424621
     atom    7 type  2   force =    -0.02361238    0.00931637   -0.01378209
     atom    8 type  3   force =    -0.11206127    0.00549670   -0.00037510
     atom    9 type  3   force =     0.11001101   -0.01050749   -0.01916564
     atom   10 type  3   force =    -0.02122053   -0.02957120   -0.06015878
     atom   11 type  3   force =    -0.02335260   -0.03500578    0.05483447
     atom   12 type  3   force =    -0.01991476    0.03266904   -0.05689524
     atom   13 type  3   force =    -0.01268009    0.02973775    0.06214824
     atom   14 type  3   force =     0.02237144   -0.02993562   -0.06145468
     atom   15 type  3   force =     0.02080097   -0.03853254    0.05837259
     atom   16 type  3   force =     0.02012872    0.03715407   -0.05495701
     atom   17 type  3   force =     0.01172218    0.04201761    0.06284929
     atom   18 type  4   force =    -0.00183771    0.02447132   -0.00784101
     atom   19 type  4   force =    -0.12949162   -0.00337503   -0.11743250
     atom   20 type  4   force =    -0.12962121    0.00647259    0.11525886
     atom   21 type  4   force =     0.12513626   -0.00756967   -0.11735285
     atom   22 type  4   force =     0.13308524    0.00225144    0.11362772
     atom   23 type  5   force =     0.02903771    0.03622907    0.01091461
     The non-local contrib.  to forces
     atom    1 type  1   force =     0.00146950   -0.00828749    0.03092043
     atom    2 type  1   force =    -0.24990985   -0.16018314    0.01695610
     atom    3 type  1   force =    -0.24164101    0.15196003   -0.01874734
     atom    4 type  1   force =     0.24857592   -0.16573761    0.02331050
     atom    5 type  1   force =     0.23741287    0.14364526   -0.00871250
     atom    6 type  2   force =     0.00843645   -0.05491200   -0.06868682
     atom    7 type  2   force =    -0.01699270    0.06720365    0.06565497
     atom    8 type  3   force =    -0.25708904    0.00445677    0.00169052
     atom    9 type  3   force =     0.11641448   -0.07849121   -0.03411597
     atom   10 type  3   force =    -0.21278675    0.00178929   -0.21036647
     atom   11 type  3   force =    -0.21591210    0.00466422    0.19654893
     atom   12 type  3   force =    -0.20571631   -0.02314621   -0.17808857
     atom   13 type  3   force =    -0.20777268   -0.00701862    0.20230212
     atom   14 type  3   force =     0.20789398    0.00336555   -0.21908200
     atom   15 type  3   force =     0.21399920    0.00228851    0.19597834
     atom   16 type  3   force =     0.20326752   -0.02168006   -0.18272503
     atom   17 type  3   force =     0.23789838   -0.02322835    0.17983912
     atom   18 type  4   force =    -0.01239999    0.05819067   -0.05943186
     atom   19 type  4   force =     0.06277020    0.01001845    0.07264072
     atom   20 type  4   force =     0.05813081   -0.01859907   -0.06416478
     atom   21 type  4   force =    -0.06011666    0.01240855    0.06990295
     atom   22 type  4   force =    -0.05911191   -0.00977534   -0.06047155
     atom   23 type  5   force =    -0.04374701   -0.02530018   -0.02150551
     The ionic contribution  to forces
     atom    1 type  1   force =    -0.23870861   -4.76770163   14.05130477
     atom    2 type  1   force =   -39.70007460   -6.12600995    0.74702840
     atom    3 type  1   force =   -39.72226046    6.20790224   -0.76363040
     atom    4 type  1   force =    39.53179954   -6.16172265    0.71114437
     atom    5 type  1   force =    39.05125730    6.91921012   -0.99482505
     atom    6 type  2   force =    -0.16646055   -3.65762742  -14.01206806
     atom    7 type  2   force =    -0.67975690    3.67146088   14.13687344
     atom    8 type  3   force =   -52.19687039   -0.01701845   -0.12944654
     atom    9 type  3   force =    50.51337534   -1.26518619   -0.85649616
     atom   10 type  3   force =   -36.06343431   -2.08726747  -23.08247716
     atom   11 type  3   force =   -35.14911538   -0.84386317   22.10959661
     atom   12 type  3   force =   -35.26048284    0.83132232  -22.16046648
     atom   13 type  3   force =   -36.07906888    2.24378644   23.12811059
     atom   14 type  3   force =    35.98038788   -2.09580938  -23.12983451
     atom   15 type  3   force =    35.02302476   -0.86352640   22.18500286
     atom   16 type  3   force =    35.12239401    0.90070317  -22.28324724
     atom   17 type  3   force =    35.78142123    2.46137624   23.40890584
     atom   18 type  4   force =    -0.32652815    4.38702011  -14.11034584
     atom   19 type  4   force =   -35.91373007    0.92432614  -25.56170329
     atom   20 type  4   force =   -35.92688738   -1.00470575   25.58447529
     atom   21 type  4   force =    35.76815367    0.87153674  -25.71853464
     atom   22 type  4   force =    35.56151469   -1.19371921   26.01596730
     atom   23 type  5   force =     5.09005012    0.66551327    0.72466590
     The local contribution  to forces
     atom    1 type  1   force =     0.23477381    4.75693336  -14.06489205
     atom    2 type  1   force =    39.83507407    6.26999353   -0.75253126
     atom    3 type  1   force =    39.85061981   -6.35219222    0.80098971
     atom    4 type  1   force =   -39.66653949    6.32027519   -0.72660008
     atom    5 type  1   force =   -39.17219158   -7.08278713    1.02439676
     atom    6 type  2   force =     0.14547996    3.69320213   14.09255021
     atom    7 type  2   force =     0.66834673   -3.72364574  -14.20051478
     atom    8 type  3   force =    52.36989278    0.02017870    0.13909170
     atom    9 type  3   force =   -50.52375741    1.35565784    0.89500059
     atom   10 type  3   force =    36.26795527    2.04411041   23.24812042
     atom   11 type  3   force =    35.35814743    0.78824344  -22.27313459
     atom   12 type  3   force =    35.45853907   -0.77442620   22.29201676
     atom   13 type  3   force =    36.29001758   -2.20276093  -23.28373941
     atom   14 type  3   force =   -36.18236743    2.05399299   23.30181944
     atom   15 type  3   force =   -35.23317793    0.81032081  -22.34186898
     atom   16 type  3   force =   -35.32825067   -0.83672412   22.42098389
     atom   17 type  3   force =   -36.03365204   -2.39017141  -23.53927545
     atom   18 type  4   force =     0.33191629   -4.41681636   14.16504224
     atom   19 type  4   force =    35.72687842   -0.92926469   25.37757896
     atom   20 type  4   force =    35.74697124    1.03778588  -25.41419516
     atom   21 type  4   force =   -35.59296323   -0.88740550   25.53738670
     atom   22 type  4   force =   -35.38176670    1.20943140  -25.85161555
     atom   23 type  5   force =    -5.01972676   -0.60618299   -0.69154566
     The core correction contribution to forces
     atom    1 type  1   force =     0.00072742    0.00128706   -0.00112657
     atom    2 type  1   force =    -0.01141633   -0.00123266    0.00026790
     atom    3 type  1   force =    -0.01209277    0.00265190   -0.00121442
     atom    4 type  1   force =     0.01212172   -0.00234770    0.00239818
     atom    5 type  1   force =     0.00708513    0.00675813   -0.00176168
     atom    6 type  2   force =    -0.00035731    0.00276602    0.00307118
     atom    7 type  2   force =     0.00090578   -0.00341477   -0.00263275
     atom    8 type  3   force =    -0.03098020    0.00087350    0.00007075
     atom    9 type  3   force =     0.01316458   -0.01150105   -0.00545763
     atom   10 type  3   force =    -0.02206141    0.00910591   -0.01674846
     atom   11 type  3   force =    -0.02441734    0.00897805    0.01826608
     atom   12 type  3   force =    -0.02197594   -0.01012846   -0.01535122
     atom   13 type  3   force =    -0.02254574   -0.00962059    0.01592084
     atom   14 type  3   force =     0.02171907    0.00960176   -0.01678791
     atom   15 type  3   force =     0.02320992    0.00978523    0.01593741
     atom   16 type  3   force =     0.02279434   -0.01121464   -0.01525014
     atom   17 type  3   force =     0.02419995   -0.00933310    0.01394328
     atom   18 type  4   force =     0.00062951   -0.00303867    0.00289696
     atom   19 type  4   force =    -0.00985798    0.00006232   -0.00959986
     atom   20 type  4   force =    -0.00973101    0.00072187    0.00913864
     atom   21 type  4   force =     0.00967405   -0.00005397   -0.00943226
     atom   22 type  4   force =     0.01013062    0.00054180    0.00841111
     atom   23 type  5   force =     0.00000000    0.00000000    0.00000000
     The Hubbard contrib.    to forces
     atom    1 type  1   force =     0.00000000    0.00000000    0.00000000
     atom    2 type  1   force =     0.00000000    0.00000000    0.00000000
     atom    3 type  1   force =     0.00000000    0.00000000    0.00000000
     atom    4 type  1   force =     0.00000000    0.00000000    0.00000000
     atom    5 type  1   force =     0.00000000    0.00000000    0.00000000
     atom    6 type  2   force =     0.00000000    0.00000000    0.00000000
     atom    7 type  2   force =     0.00000000    0.00000000    0.00000000
     atom    8 type  3   force =     0.00000000    0.00000000    0.00000000
     atom    9 type  3   force =     0.00000000    0.00000000    0.00000000
     atom   10 type  3   force =     0.00000000    0.00000000    0.00000000
     atom   11 type  3   force =     0.00000000    0.00000000    0.00000000
     atom   12 type  3   force =     0.00000000    0.00000000    0.00000000
     atom   13 type  3   force =     0.00000000    0.00000000    0.00000000
     atom   14 type  3   force =     0.00000000    0.00000000    0.00000000
     atom   15 type  3   force =     0.00000000    0.00000000    0.00000000
     atom   16 type  3   force =     0.00000000    0.00000000    0.00000000
     atom   17 type  3   force =     0.00000000    0.00000000    0.00000000
     atom   18 type  4   force =     0.00000000    0.00000000    0.00000000
     atom   19 type  4   force =     0.00000000    0.00000000    0.00000000
     atom   20 type  4   force =     0.00000000    0.00000000    0.00000000
     atom   21 type  4   force =     0.00000000    0.00000000    0.00000000
     atom   22 type  4   force =     0.00000000    0.00000000    0.00000000
     atom   23 type  5   force =     0.00000000    0.00000000    0.00000000
     The SCF correction term to forces
     atom    1 type  1   force =    -0.00011183   -0.00387426   -0.00476742
     atom    2 type  1   force =     0.00622029    0.00087396   -0.01004996
     atom    3 type  1   force =     0.00565802    0.00142128   -0.01004724
     atom    4 type  1   force =    -0.00336419    0.00013181   -0.01074788
     atom    5 type  1   force =     0.00655584   -0.00111220   -0.00870017
     atom    6 type  2   force =     0.00158616   -0.00422801   -0.00998026
     atom    7 type  2   force =     0.00358913   -0.00222520   -0.01252293
     atom    8 type  3   force =     0.00269001   -0.00293139   -0.01114150
     atom    9 type  3   force =    -0.00948155   -0.01092445   -0.01745643
     atom   10 type  3   force =     0.00881111    0.00275309    0.00195293
     atom   11 type  3   force =     0.00764922    0.00703411    0.00419748
     atom   12 type  3   force =     0.00942570    0.00911003    0.00563432
     atom   13 type  3   force =     0.00639407    0.00541388    0.00019414
     atom   14 type  3   force =    -0.00555764   -0.00102411    0.00307034
     atom   15 type  3   force =    -0.00655055    0.00266175    0.00396300
     atom   16 type  3   force =    -0.00037207    0.00613215    0.00592155
     atom   17 type  3   force =     0.00155908    0.00343665    0.00007653
     atom   18 type  4   force =     0.00424906   -0.00082199   -0.00536247
     atom   19 type  4   force =     0.00415225   -0.00845481    0.00429101
     atom   20 type  4   force =     0.00159955   -0.00866790    0.00064491
     atom   21 type  4   force =     0.00009286   -0.00399306    0.00396443
     atom   22 type  4   force =     0.00202297   -0.00416478    0.00197644
     atom   23 type  5   force =     0.00216579    0.00226140   -0.00006007

     Total force =     0.502974     Total SCF correction =     0.049906


     Computing stress (Cartesian axis) and pressure


     negative rho (up, down):  9.089E-01 9.089E-01
          total   stress  (Ry/bohr**3)                   (kbar)     P=       84.47
   0.00067060   0.00001656   0.00000240           98.65        2.44        0.35
   0.00001656   0.00066385   0.00000183            2.44       97.66        0.27
   0.00000240   0.00000183   0.00038815            0.35        0.27       57.10


     Entering Dynamics:    iteration =     2
                           time      =   0.0004 pico-seconds


ATOMIC_POSITIONS (angstrom)
Hf            2.6701775572        2.8272743994        6.6040541678
Hf            1.2531549433        1.2864362045        5.0585549385
Hf            1.2556512177        7.3899597436        5.0881571384
Hf            4.0872007696        1.2864370881        5.0585546784
Hf            4.0847058601        7.3899566735        5.0881575057
Nb            2.6701753221        2.7970801096        3.5156732640
Nb            2.6701724949        5.8765346425        6.6350837366
Ta            1.2095382777        4.3410823449        5.0712145140
Ta            4.1308189059        4.3410823269        5.0712135766
Ta            1.3074281362        1.3142731516        2.0588612697
Ta            1.3029635391        1.3085411853        8.0946744181
Ta            1.3041852175        7.3759839719        2.0463197753
Ta            1.3078871085        7.3652403540        8.0860982090
Ta            4.0329274466        1.3142730924        2.0588611444
Ta            4.0373916301        1.3085407546        8.0946748024
Ta            4.0361702872        7.3759844262        2.0463200006
Ta            4.0324683029        7.3652417684        8.0860982876
Zr            2.6701773304        5.8664451644        3.5274711658
Zr            1.2439832715        4.3222308801        2.0000626699
Zr            1.2405340044        4.3542784829        8.1498705595
Zr            4.0963713123        4.3222300821        2.0000627274
Zr            4.0998225239        4.3542775599        8.1498700910
H             5.2497544719        5.3093344076        5.6317360543


     kinetic energy (Ekin) =           8.09121173 Ry
     temperature           =       38712.16038233 K 
     Ekin + Etot (const)   =       -2934.98362124 Ry
     Ions kinetic stress =          142.90 (kbar)
                                    214.44         185.60         107.22
                                    185.60         160.65          92.81
                                    107.22          92.81          53.61



     Linear momentum :   -0.0000000000    0.0000000000   -0.0000000000

     Writing config-only to output data dir outdir/pwscf.save/
     NEW-OLD atomic charge density approx. for the potential

     Check: negative core charge=   -0.000002

     negative rho (up, down):  9.089E-01 9.089E-01
     Generating pointlists ...
     new r_m :   0.0699 (alat units)  1.2334 (a.u.) for type    3
     new r_m :   0.0699 (alat units)  1.2334 (a.u.) for type    5

     total cpu time spent up to now is      531.2 secs

     Self-consistent Calculation

     iteration #  1     ecut=   120.00 Ry     beta= 0.70
     Davidson diagonalization with overlap
     c_bands:  1 eigenvalues not converged
     ethr =  1.00E-06,  avg # of iterations = 13.5

     negative rho (up, down):  9.091E-01 9.091E-01

     total cpu time spent up to now is      595.9 secs

     total energy              =   -2943.02743285 Ry
     estimated scf accuracy    <       0.06359784 Ry

     total magnetization       =     0.02 Bohr mag/cell
     absolute magnetization    =     0.02 Bohr mag/cell

     iteration #  2     ecut=   120.00 Ry     beta= 0.70
     Davidson diagonalization with overlap
     ethr =  2.30E-05,  avg # of iterations =  2.0

     negative rho (up, down):  9.090E-01 9.090E-01

     total cpu time spent up to now is      624.6 secs

     total energy              =   -2943.03225893 Ry
     estimated scf accuracy    <       0.02498232 Ry

     total magnetization       =     0.02 Bohr mag/cell
     absolute magnetization    =     0.02 Bohr mag/cell

     iteration #  3     ecut=   120.00 Ry     beta= 0.70
     Davidson diagonalization with overlap
     ethr =  9.02E-06,  avg # of iterations =  1.5

     negative rho (up, down):  9.089E-01 9.089E-01

     total cpu time spent up to now is      641.2 secs

     total energy              =   -2943.03373148 Ry
     estimated scf accuracy    <       0.00271067 Ry

     total magnetization       =     0.02 Bohr mag/cell
     absolute magnetization    =     0.02 Bohr mag/cell

     iteration #  4     ecut=   120.00 Ry     beta= 0.70
     Davidson diagonalization with overlap
     ethr =  9.79E-07,  avg # of iterations =  6.0

     negative rho (up, down):  9.088E-01 9.088E-01

     Magnetic moment per site  (integrated on atomic sphere of radius R)
     atom   1 (R=0.108)  charge=  9.1679   -0.0000
     atom   2 (R=0.108)  charge=  8.8221    0.0000
     atom   3 (R=0.108)  charge=  8.8218    0.0001
     atom   4 (R=0.108)  charge=  8.8241    0.0000
     atom   5 (R=0.108)  charge=  8.8162    0.0001
     atom   6 (R=0.110)  charge= 10.3495    0.0000
     atom   7 (R=0.110)  charge= 10.3511    0.0000
     atom   8 (R=0.070)  charge=  5.8246    0.0000
     atom   9 (R=0.070)  charge=  5.8431   -0.0000
     atom  10 (R=0.070)  charge=  5.8118    0.0001
     atom  11 (R=0.070)  charge=  5.8100    0.0001
     atom  12 (R=0.070)  charge=  5.8095    0.0000
     atom  13 (R=0.070)  charge=  5.8107    0.0001
     atom  14 (R=0.070)  charge=  5.8091    0.0003
     atom  15 (R=0.070)  charge=  5.8070    0.0004
     atom  16 (R=0.070)  charge=  5.8082    0.0002
     atom  17 (R=0.070)  charge=  5.8095    0.0003
     atom  18 (R=0.111)  charge=  9.4546    0.0000
     atom  19 (R=0.111)  charge=  8.9983    0.0001
     atom  20 (R=0.111)  charge=  8.9941    0.0000
     atom  21 (R=0.111)  charge=  8.9989    0.0007
     atom  22 (R=0.111)  charge=  8.9979    0.0007
     atom  23 (R=0.070)  charge=  0.9005    0.0000

     total cpu time spent up to now is      658.7 secs

     End of self-consistent calculation

 ------ SPIN UP ------------


          k = 0.0000 0.0000 0.0000 ( 61588 PWs)   bands (ev):

   -60.7736 -60.7646 -60.7307 -60.7208 -60.6954 -60.6806 -60.6486 -60.6411
   -60.5163 -60.1610 -54.3688 -54.3201 -54.2395 -54.1830 -52.7014 -46.2810
   -46.2615 -41.6418 -41.6318 -41.5496 -41.5313 -39.8049 -27.7742 -27.7677
   -27.6893 -27.6803 -27.5862 -27.5787 -27.4595 -27.4521 -27.3522 -27.3227
   -27.2863 -27.2644 -27.2498 -27.2262 -27.2108 -27.1624 -27.1554 -27.1353
   -27.0807 -26.9523 -26.9470 -26.9442 -26.9370 -26.8892 -26.8778 -26.8655
   -26.8516 -26.8450 -26.8371 -26.8267 -24.1543 -23.9370 -23.6501 -23.5528
   -23.2994 -23.1713 -23.1519 -23.0450 -22.9165 -22.8483 -22.8190 -22.5977
   -22.5157 -22.4614 -22.3970 -22.3582 -22.2713 -22.2275 -21.7566 -21.6900
   -21.6291 -20.1988 -19.9461 -19.8339 -19.8297 -19.6270 -19.6012 -19.5974
   -19.5849 -19.5767 -19.5351 -19.3708 -19.3693 -18.1494 -17.9455 -17.8228
     1.2405   2.2922   2.9355   3.1443   3.3241   3.4536   3.5097   3.6883
     3.7217   3.8173   3.9188   4.0525   4.2008   4.4977   4.6742   4.6903
     4.7763   4.8012   5.0453   5.1033   5.1839   5.2767   5.2910   5.3297
     5.3940   5.5561   5.6353   5.7281   5.7365   5.7605   5.7753   5.8300
     5.9696   6.0866   6.1839   6.2305   6.2739   6.3186   6.3649   6.3888
     6.4389   6.6161   6.6627   6.7150   6.9122   6.9701   7.0050   7.0794
     7.1046   7.1608   7.2453   7.2773   7.3277   7.4494   7.5542   7.5596
     7.6246   7.7664   7.9027   7.9213   8.0832   8.0929   8.1192   8.1900
     8.2557   8.3001   8.3586   8.3816   8.4882   8.5609   8.6400   8.6840
     8.8485   8.9053   8.9870   9.0777   9.1447   9.2687   9.2786

 ------ SPIN DOWN ----------


          k = 0.0000 0.0000 0.0000 ( 61588 PWs)   bands (ev):

   -60.7733 -60.7643 -60.7305 -60.7202 -60.6951 -60.6801 -60.6485 -60.6406
   -60.5163 -60.1610 -54.3687 -54.3201 -54.2395 -54.1830 -52.7014 -46.2810
   -46.2615 -41.6414 -41.6314 -41.5495 -41.5309 -39.8048 -27.7738 -27.7671
   -27.6889 -27.6796 -27.5858 -27.5781 -27.4590 -27.4516 -27.3520 -27.3224
   -27.2861 -27.2641 -27.2492 -27.2258 -27.2103 -27.1623 -27.1552 -27.1349
   -27.0806 -26.9519 -26.9464 -26.9436 -26.9365 -26.8887 -26.8773 -26.8652
   -26.8514 -26.8446 -26.8367 -26.8267 -24.1543 -23.9370 -23.6500 -23.5528
   -23.2994 -23.1712 -23.1519 -23.0449 -22.9165 -22.8483 -22.8189 -22.5977
   -22.5157 -22.4614 -22.3969 -22.3582 -22.2713 -22.2275 -21.7566 -21.6900
   -21.6291 -20.1983 -19.9458 -19.8335 -19.8293 -19.6264 -19.6007 -19.5973
   -19.5847 -19.5763 -19.5349 -19.3704 -19.3688 -18.1494 -17.9455 -17.8227
     1.2408   2.2925   2.9361   3.1445   3.3243   3.4544   3.5101   3.6885
     3.7220   3.8176   3.9195   4.0528   4.2012   4.4979   4.6745   4.6907
     4.7767   4.8015   5.0461   5.1036   5.1842   5.2770   5.2915   5.3301
     5.3948   5.5564   5.6356   5.7286   5.7370   5.7609   5.7756   5.8303
     5.9699   6.0872   6.1843   6.2309   6.2743   6.3189   6.3652   6.3892
     6.4397   6.6165   6.6631   6.7154   6.9126   6.9709   7.0062   7.0805
     7.1067   7.1614   7.2474   7.2785   7.3282   7.4510   7.5553   7.5603
     7.6255   7.7673   7.9032   7.9219   8.0841   8.0939   8.1197   8.1909
     8.2569   8.3005   8.3597   8.3822   8.4887   8.5616   8.6406   8.6846
     8.8490   8.9065   8.9877   9.0781   9.1452   9.2684   9.2788

     the Fermi energy is     7.2437 ev

!    total energy              =   -2943.03360334 Ry
     estimated scf accuracy    <       0.00043412 Ry
     smearing contrib. (-TS)   =      -0.10271861 Ry
     internal energy E=F+TS    =   -2942.93088473 Ry

     total magnetization       =     0.02 Bohr mag/cell
     absolute magnetization    =     0.02 Bohr mag/cell

     convergence has been achieved in   4 iterations

     negative rho (up, down):  9.088E-01 9.088E-01

     Forces acting on atoms (cartesian axes, Ry/au):

     atom    1 type  1   force =    -0.00148402   -0.02550314    0.01055677
     atom    2 type  1   force =    -0.11557130   -0.01675318   -0.00613478
     atom    3 type  1   force =    -0.11426201    0.01468905   -0.00093409
     atom    4 type  1   force =     0.12065367   -0.01252223   -0.00865395
     atom    5 type  1   force =     0.12455175   -0.01015241    0.00234807
     atom    6 type  2   force =    -0.01139787   -0.02247572    0.00527739
     atom    7 type  2   force =    -0.02319430    0.00982392   -0.01117811
     atom    8 type  3   force =    -0.11536348    0.00599584   -0.00099265
     atom    9 type  3   force =     0.01930064   -0.09135078   -0.07162627
     atom   10 type  3   force =    -0.01846795   -0.02756942   -0.05691902
     atom   11 type  3   force =    -0.02061173   -0.03235214    0.05767440
     atom   12 type  3   force =    -0.01798008    0.03536586   -0.05333408
     atom   13 type  3   force =    -0.01110247    0.03166775    0.06402720
     atom   14 type  3   force =     0.01893149   -0.03055196   -0.05880603
     atom   15 type  3   force =     0.01648446   -0.03788878    0.06179089
     atom   16 type  3   force =     0.01865140    0.03903409   -0.05052625
     atom   17 type  3   force =     0.01081323    0.04133698    0.06427358
     atom   18 type  4   force =     0.00094405    0.02559605   -0.00816928
     atom   19 type  4   force =    -0.12916406   -0.00687811   -0.11412724
     atom   20 type  4   force =    -0.12896770    0.00256463    0.11636484
     atom   21 type  4   force =     0.12420575   -0.00832423   -0.11498441
     atom   22 type  4   force =     0.12940388    0.00210764    0.11710352
     atom   23 type  5   force =     0.12362665    0.11414028    0.05696950
     The non-local contrib.  to forces
     atom    1 type  1   force =     0.00270269   -0.00864006    0.02839895
     atom    2 type  1   force =    -0.24566265   -0.16169397    0.01288607
     atom    3 type  1   force =    -0.23825036    0.15435549   -0.02416119
     atom    4 type  1   force =     0.24675515   -0.16796133    0.01824030
     atom    5 type  1   force =     0.24243938    0.14074021   -0.01516743
     atom    6 type  2   force =     0.00998008   -0.05407332   -0.06975094
     atom    7 type  2   force =    -0.01146491    0.06656182    0.06570643
     atom    8 type  3   force =    -0.25340305    0.00151455   -0.00288879
     atom    9 type  3   force =     0.09566258   -0.09581777   -0.05143311
     atom   10 type  3   force =    -0.21090249    0.00042281   -0.21285320
     atom   11 type  3   force =    -0.21575203    0.00829409    0.19818705
     atom   12 type  3   force =    -0.20293379   -0.02045069   -0.17693417
     atom   13 type  3   force =    -0.20641488   -0.00677408    0.20412156
     atom   14 type  3   force =     0.20512232    0.00262754   -0.21831101
     atom   15 type  3   force =     0.21240521    0.00242080    0.19910950
     atom   16 type  3   force =     0.20137019   -0.01964402   -0.17909731
     atom   17 type  3   force =     0.23098574   -0.01690499    0.19035581
     atom   18 type  4   force =    -0.01038227    0.05841739   -0.06024207
     atom   19 type  4   force =     0.06537130    0.00800527    0.07454992
     atom   20 type  4   force =     0.06026636   -0.02073715   -0.06512725
     atom   21 type  4   force =    -0.05957406    0.01210867    0.07010428
     atom   22 type  4   force =    -0.05818203   -0.01063886   -0.05746869
     atom   23 type  5   force =    -0.05917893   -0.04258143   -0.03106897
     The ionic contribution  to forces
     atom    1 type  1   force =    -0.26803215   -4.79675599   14.07379505
     atom    2 type  1   force =   -39.71289302   -6.13575177    0.74979942
     atom    3 type  1   force =   -39.74362127    6.21484531   -0.75853064
     atom    4 type  1   force =    39.53711850   -6.20010931    0.71515618
     atom    5 type  1   force =    39.12269805    6.95352171   -0.95771302
     atom    6 type  2   force =    -0.19051928   -3.68101183  -14.03199312
     atom    7 type  2   force =    -0.72127493    3.71977080   14.18492926
     atom    8 type  3   force =   -52.24293591   -0.01512610   -0.12674892
     atom    9 type  3   force =    50.05683757   -1.66103915   -1.08358514
     atom   10 type  3   force =   -36.07017722   -2.09200733  -23.08635373
     atom   11 type  3   force =   -35.15731097   -0.85042509   22.11166213
     atom   12 type  3   force =   -35.26957809    0.83427809  -22.16428318
     atom   13 type  3   force =   -36.08971583    2.24535554   23.12838472
     atom   14 type  3   force =    35.98269702   -2.10675711  -23.13855453
     atom   15 type  3   force =    35.03017890   -0.88190176   22.19098187
     atom   16 type  3   force =    35.12913702    0.91055995  -22.29224514
     atom   17 type  3   force =    35.81833701    2.45520089   23.39238584
     atom   18 type  4   force =    -0.36230526    4.41330461  -14.14108218
     atom   19 type  4   force =   -35.92579404    0.92562229  -25.56937210
     atom   20 type  4   force =   -35.94454844   -1.00069915   25.59055553
     atom   21 type  4   force =    35.76754979    0.87094999  -25.75271335
     atom   22 type  4   force =    35.58126622   -1.17661158   26.05806157
     atom   23 type  5   force =     5.67288633    1.05478699    0.90746347
     The local contribution  to forces
     atom    1 type  1   force =     0.26478560    4.77227325  -14.09223355
     atom    2 type  1   force =    39.86197499    6.28109752   -0.78444228
     atom    3 type  1   force =    39.89180621   -6.35057316    0.76781635
     atom    4 type  1   force =   -39.67966375    6.35378188   -0.75955319
     atom    5 type  1   force =   -39.25908142   -7.10228483    0.96009687
     atom    6 type  2   force =     0.17133481    3.69779309   14.08469577
     atom    7 type  2   force =     0.71963778   -3.77289315  -14.26992525
     atom    8 type  3   force =    52.41753705    0.01448784    0.11328730
     atom    9 type  3   force =   -50.13819360    1.68743146    1.06011663
     atom   10 type  3   force =    36.29800546    2.06092053   23.26533596
     atom   11 type  3   force =    35.39077220    0.80960338  -22.26759627
     atom   12 type  3   force =    35.49059724   -0.75859144   22.31202901
     atom   13 type  3   force =    36.32154920   -2.19073514  -23.28458862
     atom   14 type  3   force =   -36.19567925    2.06092588   23.31650990
     atom   15 type  3   force =   -35.25479575    0.83317318  -22.33840451
     atom   16 type  3   force =   -35.33185749   -0.83295863   22.44232241
     atom   17 type  3   force =   -36.05956365   -2.38406017  -23.53256505
     atom   18 type  4   force =     0.38291605   -4.43966242   14.18063127
     atom   19 type  4   force =    35.74966608   -0.95123518   25.39386408
     atom   20 type  4   force =    35.77620294    1.01236052  -25.41556539
     atom   21 type  4   force =   -35.59379845   -0.89479960   25.57871682
     atom   22 type  4   force =   -35.40831437    1.18490028  -25.88725987
     atom   23 type  5   force =    -5.49246253   -0.89973676   -0.82184806
     The core correction contribution to forces
     atom    1 type  1   force =     0.00086931    0.00123082   -0.00152825
     atom    2 type  1   force =    -0.01125750   -0.00145487    0.00026422
     atom    3 type  1   force =    -0.01205719    0.00293485   -0.00137227
     atom    4 type  1   force =     0.01213613   -0.00254520    0.00229947
     atom    5 type  1   force =     0.00797746    0.00598885   -0.00146438
     atom    6 type  2   force =    -0.00028611    0.00292175    0.00333697
     atom    7 type  2   force =     0.00061813   -0.00334243   -0.00261945
     atom    8 type  3   force =    -0.03058379    0.00069195   -0.00005564
     atom    9 type  3   force =     0.01033808   -0.01324011   -0.00718700
     atom   10 type  3   force =    -0.02188279    0.00891074   -0.01683510
     atom   11 type  3   force =    -0.02470152    0.00904567    0.01839897
     atom   12 type  3   force =    -0.02209443   -0.01024717   -0.01540911
     atom   13 type  3   force =    -0.02264157   -0.00980223    0.01601804
     atom   14 type  3   force =     0.02166972    0.00944594   -0.01692006
     atom   15 type  3   force =     0.02322782    0.00968035    0.01626036
     atom   16 type  3   force =     0.02242739   -0.01105077   -0.01509896
     atom   17 type  3   force =     0.02361847   -0.00894987    0.01492290
     atom   18 type  4   force =     0.00064597   -0.00306448    0.00287356
     atom   19 type  4   force =    -0.00993588    0.00005494   -0.00965647
     atom   20 type  4   force =    -0.00978251    0.00071421    0.00922860
     atom   21 type  4   force =     0.00962771   -0.00009674   -0.00941691
     atom   22 type  4   force =     0.01000787    0.00048958    0.00836438
     atom   23 type  5   force =     0.00000000    0.00000000    0.00000000
     The Hubbard contrib.    to forces
     atom    1 type  1   force =     0.00000000    0.00000000    0.00000000
     atom    2 type  1   force =     0.00000000    0.00000000    0.00000000
     atom    3 type  1   force =     0.00000000    0.00000000    0.00000000
     atom    4 type  1   force =     0.00000000    0.00000000    0.00000000
     atom    5 type  1   force =     0.00000000    0.00000000    0.00000000
     atom    6 type  2   force =     0.00000000    0.00000000    0.00000000
     atom    7 type  2   force =     0.00000000    0.00000000    0.00000000
     atom    8 type  3   force =     0.00000000    0.00000000    0.00000000
     atom    9 type  3   force =     0.00000000    0.00000000    0.00000000
     atom   10 type  3   force =     0.00000000    0.00000000    0.00000000
     atom   11 type  3   force =     0.00000000    0.00000000    0.00000000
     atom   12 type  3   force =     0.00000000    0.00000000    0.00000000
     atom   13 type  3   force =     0.00000000    0.00000000    0.00000000
     atom   14 type  3   force =     0.00000000    0.00000000    0.00000000
     atom   15 type  3   force =     0.00000000    0.00000000    0.00000000
     atom   16 type  3   force =     0.00000000    0.00000000    0.00000000
     atom   17 type  3   force =     0.00000000    0.00000000    0.00000000
     atom   18 type  4   force =     0.00000000    0.00000000    0.00000000
     atom   19 type  4   force =     0.00000000    0.00000000    0.00000000
     atom   20 type  4   force =     0.00000000    0.00000000    0.00000000
     atom   21 type  4   force =     0.00000000    0.00000000    0.00000000
     atom   22 type  4   force =     0.00000000    0.00000000    0.00000000
     atom   23 type  5   force =     0.00000000    0.00000000    0.00000000
     The SCF correction term to forces
     atom    1 type  1   force =    -0.00122565    0.00647074    0.00135367
     atom    2 type  1   force =    -0.00714929    0.00113180    0.01458689
     atom    3 type  1   force =    -0.01155558   -0.00679154    0.01454277
     atom    4 type  1   force =     0.00489147    0.00439363    0.01443239
     atom    5 type  1   force =     0.01110211   -0.00803645    0.01582514
     atom    6 type  2   force =    -0.00132353    0.01197648    0.01821781
     atom    7 type  2   force =    -0.01012654   -0.00019123    0.00996000
     atom    8 type  3   force =    -0.00539395    0.00450949    0.01464251
     atom    9 type  3   force =    -0.00476016   -0.00860333    0.00969145
     atom   10 type  3   force =    -0.01292708   -0.00573428   -0.00698385
     atom   11 type  3   force =    -0.01303558   -0.00878830   -0.00374837
     atom   12 type  3   force =    -0.01338719   -0.00954104   -0.00950753
     atom   13 type  3   force =    -0.01329557   -0.00629445   -0.00067939
     atom   14 type  3   force =     0.00570550    0.00328769   -0.00230122
     atom   15 type  3   force =     0.00605211   -0.00117946   -0.00692722
     atom   16 type  3   force =    -0.00184187   -0.00779054   -0.00717816
     atom   17 type  3   force =    -0.00198051   -0.00386698   -0.00159682
     atom   18 type  4   force =    -0.00934661   -0.00331715    0.00887924
     atom   19 type  4   force =    -0.00788768    0.01075647   -0.00428357
     atom   20 type  4   force =    -0.01052223    0.01100810   -0.00349755
     atom   21 type  4   force =     0.00098459    0.00359535   -0.00244615
     atom   22 type  4   force =     0.00521003    0.00405012   -0.00536477
     atom   23 type  5   force =     0.00296561    0.00175336    0.00165216

     Total force =     0.526853     Total SCF correction =     0.067884
     SCF correction compared to forces is large: reduce conv_thr to get better values


     Computing stress (Cartesian axis) and pressure


     negative rho (up, down):  9.088E-01 9.088E-01
          total   stress  (Ry/bohr**3)                   (kbar)     P=       88.35
   0.00071964   0.00004089   0.00001735          105.86        6.02        2.55
   0.00004089   0.00068592   0.00001408            6.02      100.90        2.07
   0.00001735   0.00001408   0.00039630            2.55        2.07       58.30


     Entering Dynamics:    iteration =     3
                           time      =   0.0006 pico-seconds


ATOMIC_POSITIONS (angstrom)
Hf            2.6702662276        2.8273479984        6.6041000579
Hf            1.2532270061        1.2865107780        5.0585989722
[...]
     4.7589   4.8487   5.0441   5.1169   5.1932   5.2653   5.2856   5.3678
     5.3976   5.5471   5.6002   5.7133   5.7196   5.7475   5.7608   5.8073
     5.9466   6.0646   6.1555   6.2167   6.2606   6.2918   6.3631   6.4027
     6.4633   6.5806   6.6619   6.7083   6.9121   6.9412   7.0188   7.0713
     7.1033   7.1534   7.2623   7.3052   7.3338   7.4489   7.5415   7.6107
     7.6241   7.7899   7.8996   7.9110   8.0940   8.1050   8.1212   8.2041
     8.2462   8.2838   8.3569   8.3789   8.4134   8.5617   8.6461   8.6927
     8.8401   8.9061   8.9733   9.0627   9.1793   9.2090   9.2736

     the Fermi energy is     7.2482 ev

!    total energy              =   -2943.04941743 Ry
     estimated scf accuracy    <       0.00064770 Ry
     smearing contrib. (-TS)   =      -0.09997282 Ry
     internal energy E=F+TS    =   -2942.94944461 Ry

     total magnetization       =     0.00 Bohr mag/cell
     absolute magnetization    =     0.00 Bohr mag/cell

     convergence has been achieved in   4 iterations

     negative rho (up, down):  9.091E-01 9.091E-01

     Forces acting on atoms (cartesian axes, Ry/au):

     atom    1 type  1   force =    -0.00848085   -0.02692717    0.01572481
     atom    2 type  1   force =    -0.11765474   -0.01380515    0.00405964
     atom    3 type  1   force =    -0.11745692    0.00994848    0.01146609
     atom    4 type  1   force =     0.11722279   -0.00964500    0.00265618
     atom    5 type  1   force =     0.14206147   -0.01221916    0.01439474
     atom    6 type  2   force =    -0.01668120   -0.02207893   -0.00202777
     atom    7 type  2   force =    -0.02255805    0.00751937   -0.01610825
     atom    8 type  3   force =    -0.10905826    0.00310471   -0.00376081
     atom    9 type  3   force =     0.15949366    0.03958270    0.01522099
     atom   10 type  3   force =    -0.02008921   -0.02695528   -0.06063075
     atom   11 type  3   force =    -0.01912552   -0.03472225    0.05320471
     atom   12 type  3   force =    -0.01845575    0.03275978   -0.05515862
     atom   13 type  3   force =    -0.01457124    0.02963798    0.05652116
     atom   14 type  3   force =     0.02307747   -0.02895423   -0.06065952
     atom   15 type  3   force =     0.01979968   -0.03664713    0.05517922
     atom   16 type  3   force =     0.02022630    0.03650145   -0.05436201
     atom   17 type  3   force =     0.02101480    0.04252441    0.05600886
     atom   18 type  4   force =    -0.00573765    0.02080165   -0.00836300
     atom   19 type  4   force =    -0.12546961   -0.00480515   -0.11590114
     atom   20 type  4   force =    -0.12694232    0.00677910    0.11261778
     atom   21 type  4   force =     0.12471009   -0.00745612   -0.11897142
     atom   22 type  4   force =     0.13869844    0.00017169    0.10929622
     atom   23 type  5   force =    -0.04402337   -0.00511576   -0.01040709
     The non-local contrib.  to forces
     atom    1 type  1   force =     0.00246118   -0.00993444    0.02628278
     atom    2 type  1   force =    -0.25270907   -0.15738284    0.01664528
     atom    3 type  1   force =    -0.24057510    0.15200542   -0.01592342
     atom    4 type  1   force =     0.24990341   -0.16078894    0.02553315
     atom    5 type  1   force =     0.22232607    0.15321294   -0.00725787
     atom    6 type  2   force =     0.00678667   -0.04807504   -0.05690481
     atom    7 type  2   force =    -0.03047794    0.06995001    0.06110086
     atom    8 type  3   force =    -0.26701447    0.00891278    0.00519038
     atom    9 type  3   force =     0.22697100    0.00226481    0.01864508
     atom   10 type  3   force =    -0.20907129    0.00689408   -0.20306932
     atom   11 type  3   force =    -0.20936774    0.00061377    0.19667114
     atom   12 type  3   force =    -0.20866966   -0.02277152   -0.17688189
     atom   13 type  3   force =    -0.21138827   -0.00459244    0.19818556
     atom   14 type  3   force =     0.20701866    0.00391169   -0.21640569
     atom   15 type  3   force =     0.21393371    0.00617426    0.19249741
     atom   16 type  3   force =     0.20412918   -0.02034542   -0.18680164
     atom   17 type  3   force =     0.25954528   -0.03463939    0.15505753
     atom   18 type  4   force =    -0.00780076    0.05555503   -0.05831524
     atom   19 type  4   force =     0.05953343    0.00774887    0.07056708
     atom   20 type  4   force =     0.05673879   -0.02019497   -0.06389843
     atom   21 type  4   force =    -0.06229487    0.01115465    0.07372341
     atom   22 type  4   force =    -0.06502455   -0.01116384   -0.06834734
     atom   23 type  5   force =    -0.02112937   -0.00072025   -0.00668524
     The ionic contribution  to forces
     atom    1 type  1   force =    -0.21960173   -4.73942860   14.30960994
     atom    2 type  1   force =   -39.71173789   -6.16257417    0.75783457
     atom    3 type  1   force =   -39.61674608    6.16835780   -0.76105240
     atom    4 type  1   force =    39.59133334   -6.27283483    0.75317599
     atom    5 type  1   force =    38.99812147    6.46671869   -1.02140321
     atom    6 type  2   force =    -0.35135694   -3.84623684  -14.31492228
     atom    7 type  2   force =    -0.28344634    3.55995951   14.01400647
     atom    8 type  3   force =   -52.32504424    0.07801858   -0.07675175
     atom    9 type  3   force =    51.22783175   -0.01457840   -0.22343218
     atom   10 type  3   force =   -36.04919937   -2.08738057  -23.07235984
     atom   11 type  3   force =   -35.11122364   -0.82183078   22.09070170
     atom   12 type  3   force =   -35.21563930    0.80298578  -22.12548566
     atom   13 type  3   force =   -35.99403566    2.20341615   23.08920600
     atom   14 type  3   force =    35.98188729   -2.11267846  -23.13245863
     atom   15 type  3   force =    35.01157363   -0.80017376   22.15361658
     atom   16 type  3   force =    35.12319352    0.82848048  -22.19308439
     atom   17 type  3   force =    35.66761529    2.36071487   23.34013922
     atom   18 type  4   force =    -0.16353968    4.50628257  -14.04843369
     atom   19 type  4   force =   -35.88302816    0.94646180  -25.52074075
     atom   20 type  4   force =   -35.82075168   -0.98818685   25.50880544
     atom   21 type  4   force =    35.81330288    0.95842652  -25.66338637
     atom   22 type  4   force =    35.58021839   -1.13149389   25.65904145
     atom   23 type  5   force =     3.75027315    0.09757439    0.47737379
     The local contribution  to forces
     atom    1 type  1   force =     0.20316024    4.71972734  -14.30572677
     atom    2 type  1   force =    39.85699919    6.31130346   -0.74855093
     atom    3 type  1   force =    39.74919469   -6.31761868    0.81351038
     atom    4 type  1   force =   -39.73637757    6.42459473   -0.75623723
     atom    5 type  1   force =   -39.08015194   -6.63986063    1.06682449
     atom    6 type  2   force =     0.32096569    3.88066414   14.39455132
     atom    7 type  2   force =     0.27854485   -3.62002772  -14.07683385
     atom    8 type  3   force =    52.51112741   -0.08367393    0.08711500
     atom    9 type  3   force =   -51.33216759    0.05122964    0.23668107
     atom   10 type  3   force =    36.25513331    2.06131739   23.23505537
     atom   11 type  3   force =    35.32318756    0.77504849  -22.26025961
     atom   12 type  3   force =    35.42428281   -0.75155685   22.26712991
     atom   13 type  3   force =    36.20701647   -2.15753533  -23.25748427
     atom   14 type  3   force =   -36.18266243    2.08076723   23.30794169
     atom   15 type  3   force =   -35.23026369    0.74920750  -22.31505155
     atom   16 type  3   force =   -35.32392719   -0.77274825   22.34642444
     atom   17 type  3   force =   -35.92928282   -2.26978867  -23.46244293
     atom   18 type  4   force =     0.16034483   -4.54789088   14.12109755
     atom   19 type  4   force =    35.70626469   -0.96094510   25.34962343
     atom   20 type  4   force =    35.64296684    1.01454218  -25.35072674
     atom   21 type  4   force =   -35.63772146   -0.97638313   25.48169828
     atom   22 type  4   force =   -35.38714867    1.13834069  -25.49486148
     atom   23 type  5   force =    -3.77173179   -0.10019709   -0.47707680
     The core correction contribution to forces
     atom    1 type  1   force =     0.00043587    0.00160671   -0.00091921
     atom    2 type  1   force =    -0.01186271   -0.00119805    0.00039307
     atom    3 type  1   force =    -0.01192519    0.00193638   -0.00090707
     atom    4 type  1   force =     0.01253584   -0.00141589    0.00244991
     atom    5 type  1   force =     0.00532950    0.00865245   -0.00313859
     atom    6 type  2   force =    -0.00050243    0.00213420    0.00219049
     atom    7 type  2   force =     0.00153011   -0.00366469   -0.00249935
     atom    8 type  3   force =    -0.03238304    0.00107908    0.00049833
     atom    9 type  3   force =     0.02485383   -0.00405197    0.00032143
     atom   10 type  3   force =    -0.02249229    0.00913486   -0.01676918
     atom   11 type  3   force =    -0.02324648    0.00857932    0.01779642
     atom   12 type  3   force =    -0.02222332   -0.00968501   -0.01559171
     atom   13 type  3   force =    -0.02279558   -0.00938253    0.01549486
     atom   14 type  3   force =     0.02142110    0.01011445   -0.01617483
     atom   15 type  3   force =     0.02324826    0.00984717    0.01522493
     atom   16 type  3   force =     0.02279808   -0.01100966   -0.01572591
     atom   17 type  3   force =     0.02470305   -0.00956410    0.01266753
     atom   18 type  4   force =     0.00032664   -0.00303564    0.00297373
     atom   19 type  4   force =    -0.00967183    0.00008683   -0.00940495
     atom   20 type  4   force =    -0.00964402    0.00076747    0.00904425
     atom   21 type  4   force =     0.00983724   -0.00001182   -0.00966234
     atom   22 type  4   force =     0.01061587    0.00064913    0.00870464
     atom   23 type  5   force =     0.00000000    0.00000000    0.00000000
     The Hubbard contrib.    to forces
     atom    1 type  1   force =     0.00000000    0.00000000    0.00000000
     atom    2 type  1   force =     0.00000000    0.00000000    0.00000000
     atom    3 type  1   force =     0.00000000    0.00000000    0.00000000
     atom    4 type  1   force =     0.00000000    0.00000000    0.00000000
     atom    5 type  1   force =     0.00000000    0.00000000    0.00000000
     atom    6 type  2   force =     0.00000000    0.00000000    0.00000000
     atom    7 type  2   force =     0.00000000    0.00000000    0.00000000
     atom    8 type  3   force =     0.00000000    0.00000000    0.00000000
     atom    9 type  3   force =     0.00000000    0.00000000    0.00000000
     atom   10 type  3   force =     0.00000000    0.00000000    0.00000000
     atom   11 type  3   force =     0.00000000    0.00000000    0.00000000
     atom   12 type  3   force =     0.00000000    0.00000000    0.00000000
     atom   13 type  3   force =     0.00000000    0.00000000    0.00000000
     atom   14 type  3   force =     0.00000000    0.00000000    0.00000000
     atom   15 type  3   force =     0.00000000    0.00000000    0.00000000
     atom   16 type  3   force =     0.00000000    0.00000000    0.00000000
     atom   17 type  3   force =     0.00000000    0.00000000    0.00000000
     atom   18 type  4   force =     0.00000000    0.00000000    0.00000000
     atom   19 type  4   force =     0.00000000    0.00000000    0.00000000
     atom   20 type  4   force =     0.00000000    0.00000000    0.00000000
     atom   21 type  4   force =     0.00000000    0.00000000    0.00000000
     atom   22 type  4   force =     0.00000000    0.00000000    0.00000000
     atom   23 type  5   force =     0.00000000    0.00000000    0.00000000
     The SCF correction term to forces
     atom    1 type  1   force =     0.00477096    0.00101463   -0.01184614
     atom    2 type  1   force =     0.00136310   -0.00404074   -0.02058655
     atom    3 type  1   force =     0.00230214    0.00518037   -0.02248559
     atom    4 type  1   force =    -0.00046486    0.00071273   -0.02058984
     atom    5 type  1   force =    -0.00385626   -0.00102981   -0.01895427
     atom    6 type  2   force =     0.00713319   -0.01065257   -0.02526669
     atom    7 type  2   force =     0.01099864    0.00121507   -0.01020658
     atom    8 type  3   force =     0.00396345   -0.00131899   -0.01813698
     atom    9 type  3   force =     0.01171206    0.00463143   -0.01531860
     atom   10 type  3   force =     0.00524780   -0.01700822   -0.00181198
     atom   11 type  3   force =     0.00123216    0.00277976    0.00997086
     atom   12 type  3   force =     0.00350110    0.01370019   -0.00265347
     atom   13 type  3   force =     0.00633917   -0.00235505    0.01279481
     atom   14 type  3   force =    -0.00487977   -0.01115632   -0.00188626
     atom   15 type  3   force =     0.00101515   -0.00178949    0.01056766
     atom   16 type  3   force =    -0.00625992    0.01203710   -0.00349871
     atom   17 type  3   force =    -0.00185863   -0.00428549    0.01226331
     atom   18 type  4   force =     0.00463870    0.00980339   -0.02400954
     atom   19 type  4   force =     0.00113964    0.00175527   -0.00427015
     atom   20 type  4   force =     0.00345513   -0.00023592    0.01106907
     atom   21 type  4   force =     0.00129367   -0.00072954    0.00033140
     atom   22 type  4   force =    -0.00025523    0.00375243    0.00643475
     atom   23 type  5   force =    -0.00172799   -0.00186000   -0.00234305

     Total force =     0.513525     Total SCF correction =     0.078200
     SCF correction compared to forces is large: reduce conv_thr to get better values


     Computing stress (Cartesian axis) and pressure


     negative rho (up, down):  9.091E-01 9.091E-01
          total   stress  (Ry/bohr**3)                   (kbar)     P=       80.94
   0.00062414   0.00000559  -0.00000097           91.81        0.82       -0.14
   0.00000559   0.00064628  -0.00000837            0.82       95.07       -1.23
  -0.00000097  -0.00000837   0.00038031           -0.14       -1.23       55.95


     Entering Dynamics:    iteration =    20
                           time      =   0.0041 pico-seconds


ATOMIC_POSITIONS (angstrom)
Hf            2.6718453151        2.8284281656        6.6049836215
Hf            1.2534127312        1.2876426483        5.0593457954
Hf            1.2559148483        7.3914761384        5.0889998517
Hf            4.0902257264        1.2876811630        5.0593314785
Hf            4.0877024526        7.3912865104        5.0890290729
Nb            2.6719670923        2.7982333011        3.5167527328
Nb            2.6715084248        5.8781322654        6.6355641879
Ta            1.2098234401        4.3425810772        5.0720556022
Ta            4.0959073979        4.3094973128        5.0526464033
Ta            1.3087452248        1.3153099339        2.0589909460
Ta            1.3043197347        1.3095319851        8.0960993835
Ta            1.3055687775        7.3777677130        2.0464894842
Ta            1.3093363273        7.3669694401        8.0875858603
Ta            4.0347416173        1.3153454342        2.0590036675
Ta            4.0391834784        1.3095222434        8.0961381616
Ta            4.0379760876        7.3777806761        2.0465206839
Ta            4.0342027327        7.3670232460        8.0875685571
Zr            2.6719148582        5.8683526722        3.5281952808
Zr            1.2426592636        4.3234994246        1.9982550897
Zr            1.2391991490        4.3557520648        8.1532243370
Zr            4.1008009644        4.3234583123        1.9983070934
Zr            4.1043139535        4.3557169233        8.1532085677
H             5.9897098820        5.9786876713        6.0216259627


     kinetic energy (Ekin) =           8.07144055 Ry
     temperature           =       38617.56573960 K 
     Ekin + Etot (const)   =       -2934.97797688 Ry
     Ions kinetic stress =          142.55 (kbar)
                                    208.58         184.77         107.11
                                    184.77         163.87          94.99
                                    107.11          94.99          55.20



     Linear momentum :    0.0000000000    0.0000000000   -0.0000000000

     The maximum number of steps has been reached.

     End of molecular dynamics calculation

     diffusion coefficients :
     atom     1   D =       0.00000003 cm^2/s
     atom     2   D =       0.00000001 cm^2/s
     atom     3   D =       0.00000002 cm^2/s
     atom     4   D =       0.00000005 cm^2/s
     atom     5   D =       0.00000005 cm^2/s
     atom     6   D =       0.00000003 cm^2/s
     atom     7   D =       0.00000002 cm^2/s
     atom     8   D =       0.00000002 cm^2/s
     atom     9   D =       0.00001040 cm^2/s
     atom    10   D =       0.00000002 cm^2/s
     atom    11   D =       0.00000002 cm^2/s
     atom    12   D =       0.00000003 cm^2/s
     atom    13   D =       0.00000004 cm^2/s
     atom    14   D =       0.00000002 cm^2/s
     atom    15   D =       0.00000003 cm^2/s
     atom    16   D =       0.00000003 cm^2/s
     atom    17   D =       0.00000004 cm^2/s
     atom    18   D =       0.00000004 cm^2/s
     atom    19   D =       0.00000003 cm^2/s
     atom    20   D =       0.00000007 cm^2/s
     atom    21   D =       0.00000011 cm^2/s
     atom    22   D =       0.00000015 cm^2/s
     atom    23   D =       0.00175531 cm^2/s

     < D > =       0.00007681 cm^2/s

     Writing all to output data dir outdir/pwscf.save/

     init_run     :      9.90s CPU     12.18s WALL (       1 calls)
     electrons    :   2513.66s CPU   3017.64s WALL (      20 calls)
     update_pot   :     18.92s CPU     20.62s WALL (      19 calls)
     forces       :    216.79s CPU    254.69s WALL (      20 calls)
     stress       :    325.29s CPU    360.44s WALL (      20 calls)

     Called by init_run:
     wfcinit      :      7.53s CPU      9.22s WALL (       1 calls)
     potinit      :      0.47s CPU      0.50s WALL (       1 calls)
     hinit0       :      0.96s CPU      1.07s WALL (       1 calls)

     Called by electrons:
     c_bands      :   2015.67s CPU   2432.93s WALL (     101 calls)
     sum_band     :    330.35s CPU    390.01s WALL (     101 calls)
     v_of_rho     :     10.72s CPU     12.68s WALL (     121 calls)
     newd         :    182.95s CPU    213.51s WALL (     121 calls)
     mix_rho      :      1.02s CPU      1.28s WALL (     101 calls)

     Called by c_bands:
     init_us_2    :      3.91s CPU      4.02s WALL (     486 calls)
     init_us_2:cp :      3.90s CPU      4.02s WALL (     486 calls)
     regterg      :   2001.57s CPU   2416.04s WALL (     202 calls)

     Called by *egterg:
     rdiaghg      :     70.92s CPU     88.81s WALL (    1679 calls)
     h_psi        :   1032.37s CPU   1160.93s WALL (    1719 calls)
     s_psi        :    347.46s CPU    348.48s WALL (    1719 calls)
     g_psi        :      0.74s CPU      0.80s WALL (    1515 calls)

     Called by h_psi:
     h_psi:calbec :    499.08s CPU    589.46s WALL (    1719 calls)
     vloc_psi     :    105.78s CPU    142.31s WALL (    1719 calls)
     add_vuspsi   :    426.20s CPU    427.77s WALL (    1719 calls)

     General routines
     calbec       :    836.40s CPU   1002.63s WALL (    2121 calls)
     fft          :      9.15s CPU     26.85s WALL (    2514 calls)
     ffts         :      0.21s CPU      0.29s WALL (     101 calls)
     fftw         :    113.46s CPU    154.65s WALL (  107040 calls)

     Parallel routines

     PWSCF        :  51m52.16s CPU      1h 1m WALL


   This run was terminated on:  21:23:47  12Jun2023            

=------------------------------------------------------------------------------=
   JOB DONE.
=------------------------------------------------------------------------------=
