
     Program PWSCF v.7.2 starts on 13Jun2023 at 19:16:41 

     This program is part of the open-source Quantum ESPRESSO suite
     for quantum simulation of materials; please cite
         "P. Giannozzi et al., J. Phys.:Condens. Matter 21 395502 (2009);
         "P. Giannozzi et al., J. Phys.:Condens. Matter 29 465901 (2017);
         "P. Giannozzi et al., J. Chem. Phys. 152 154105 (2020);
          URL http://www.quantum-espresso.org", 
     in publications or presentations arising from this work. More details at
     http://www.quantum-espresso.org/quote

     Parallel version (MPI), running on    42 processors

     MPI processes distributed on     1 nodes
     178565 MiB available memory on the printing compute node when the environment starts

     Reading input from md_data/md_Hf5Nb2Ta10Zr5H_20steps_100eV_incident30_polar30.in
Warning: card &CELL ignored
Warning: card / ignored

     Current dimensions of program PWSCF are:
     Max number of different atomic species (ntypx) = 10
     Max number of k-points (npk) =  40000
     Max angular momentum in pseudopotentials (lmaxx) =  4

     File outdir/pwscf.md deleted, as requested

     gamma-point specific algorithms are used

     R & G space division:  proc/nbgrp/npool/nimage =      42
     Subspace diagonalization in iterative solution of the eigenvalue problem:
     one sub-group per band group will be used
     custom distributed-memory algorithm (size of sub-group:  2*  2 procs)


     Parallelization info
     --------------------
     sticks:   dense  smooth     PW     G-vecs:    dense   smooth      PW
     Min         262     262     63                23470    23470    2920
     Max         265     265     66                23484    23484    2942
     Sum       11057   11057   2753               986005   986005  123175

     Using Slab Decomposition



     bravais-lattice index     =            0
     lattice parameter (alat)  =      17.6500  a.u.
     unit-cell volume          =    5552.8853 (a.u.)^3
     number of atoms/cell      =           23
     number of atomic types    =            5
     number of electrons       =       277.00
     number of Kohn-Sham states=          167
     kinetic-energy cutoff     =     120.0000  Ry
     charge density cutoff     =     480.0000  Ry
     scf convergence threshold =      1.0E-03
     mixing beta               =       0.7000
     number of iterations used =            8  TF        mixing
     energy convergence thresh.=      0.0E+00
     force convergence thresh. =      0.0E+00
     Exchange-correlation=  SLA  PW   PBX  PBC
                           (   1   4   3   4   0   0   0)
     nstep                     =           20


     celldm(1)=  17.650041  celldm(2)=   0.000000  celldm(3)=   0.000000
     celldm(4)=   0.000000  celldm(5)=   0.000000  celldm(6)=   0.000000

     crystal axes: (cart. coord. in units of alat)
               a(1) = (   1.000000   0.000000   0.000000 )  
               a(2) = (   0.000000   0.929336   0.000000 )  
               a(3) = (   0.000000   0.000000   1.086698 )  

     reciprocal axes: (cart. coord. in units 2 pi/alat)
               b(1) = (  1.000000  0.000000  0.000000 )  
               b(2) = (  0.000000  1.076037  0.000000 )  
               b(3) = (  0.000000  0.000000  0.920219 )  


     PseudoPot. # 1 for Hf read from file:
     q-e/pseudo/hf_pbe_v1.uspp.F.UPF
     MD5 check sum: 8ee9378dfe14276e333edf04c5e4aa26
     Pseudo is Ultrasoft + core correction, Zval = 12.0
     Generated by new atomic code, or converted to UPF format
     Using radial grid of  921 points,  8 beta functions with: 
                l(1) =   0
                l(2) =   0
                l(3) =   0
                l(4) =   1
                l(5) =   1
                l(6) =   2
                l(7) =   2
                l(8) =   3
     Q(r) pseudized with  6 coefficients,  rinner =    1.200   1.200   1.200
                                                       1.200   1.200   1.200
                                                       1.200

     PseudoPot. # 2 for Nb read from file:
     q-e/pseudo/nb_pbe_v1.uspp.F.UPF
     MD5 check sum: 573aab8a2fa660278ed4a62cd769473f
     Pseudo is Ultrasoft + core correction, Zval = 13.0
     Generated by new atomic code, or converted to UPF format
     Using radial grid of  887 points,  6 beta functions with: 
                l(1) =   0
                l(2) =   0
                l(3) =   1
                l(4) =   1
                l(5) =   2
                l(6) =   2
     Q(r) pseudized with  6 coefficients,  rinner =    1.000   1.000   1.000
                                                       1.000   1.000

     PseudoPot. # 3 for Ta read from file:
     q-e/pseudo/ta_pbe_v1.uspp.F.UPF
     MD5 check sum: f8bbe9446314a3b8ea5d9f3e3836c939
     Pseudo is Ultrasoft + core correction, Zval = 13.0
     Generated by new atomic code, or converted to UPF format
     Using radial grid of  921 points,  7 beta functions with: 
                l(1) =   0
                l(2) =   0
                l(3) =   1
                l(4) =   1
                l(5) =   2
                l(6) =   2
                l(7) =   3
     Q(r) pseudized with  6 coefficients,  rinner =    1.300   1.300   1.300
                                                       1.300   1.300   1.300
                                                       1.300

     PseudoPot. # 4 for Zr read from file:
     q-e/pseudo/zr_pbe_v1.uspp.F.UPF
     MD5 check sum: 5db81b1e868ab7776c4564c113de050b
     Pseudo is Ultrasoft + core correction, Zval = 12.0
     Generated by new atomic code, or converted to UPF format
     Using radial grid of  887 points,  6 beta functions with: 
                l(1) =   0
                l(2) =   0
                l(3) =   1
                l(4) =   1
                l(5) =   2
                l(6) =   2
     Q(r) pseudized with  6 coefficients,  rinner =    1.200   1.200   1.200
                                                       1.200   1.200

     PseudoPot. # 5 for H  read from file:
     q-e/pseudo/h_pbe_v1.4.uspp.F.UPF
     MD5 check sum: 761ae9a214b05c3daf00ab9f6b793d6f
     Pseudo is Ultrasoft, Zval =  1.0
     Generated by new atomic code, or converted to UPF format
     Using radial grid of  615 points,  2 beta functions with: 
                l(1) =   0
                l(2) =   0
     Q(r) pseudized with  8 coefficients,  rinner =    0.700

     atomic species   valence    mass     pseudopotential
        Hf            12.00   178.49000     Hf( 1.00)
        Nb            13.00    92.90637     Nb( 1.00)
        Ta            13.00   180.94788     Ta( 1.00)
        Zr            12.00    91.22400     Zr( 1.00)
        H              1.00     2.01400     H ( 1.00)

     Starting magnetic structure 
     atomic species   magnetization
        Hf           0.000
        Nb           0.000
        Ta           0.000
        Zr           0.000
        H            0.000

     No symmetry found



   Cartesian axes

     site n.     atom                  positions (alat units)
         1           Hf  tau(   1) = (   0.2858672   0.3026898   0.7070626  )
         2           Hf  tau(   2) = (   0.1341532   0.1377178   0.5415917  )
         3           Hf  tau(   3) = (   0.1344204   0.7911996   0.5447610  )
         4           Hf  tau(   4) = (   0.4375813   0.1377178   0.5415917  )
         5           Hf  tau(   5) = (   0.4373140   0.7911996   0.5447610  )
         6           Nb  tau(   6) = (   0.2858672   0.2994572   0.3764008  )
         7           Nb  tau(   7) = (   0.2858672   0.6291626   0.7103852  )
         8           Ta  tau(   8) = (   0.1294832   0.4647675   0.5429471  )
         9           Ta  tau(   9) = (   0.4422513   0.4647675   0.5429471  )
        10           Ta  tau(  10) = (   0.1399628   0.1406984   0.2204260  )
        11           Ta  tau(  11) = (   0.1394848   0.1400847   0.8666573  )
        12           Ta  tau(  12) = (   0.1396156   0.7897030   0.2190832  )
        13           Ta  tau(  13) = (   0.1400119   0.7885528   0.8657390  )
        14           Ta  tau(  14) = (   0.4317717   0.1406984   0.2204260  )
        15           Ta  tau(  15) = (   0.4322496   0.1400847   0.8666573  )
        16           Ta  tau(  16) = (   0.4321189   0.7897030   0.2190832  )
        17           Ta  tau(  17) = (   0.4317226   0.7885528   0.8657390  )
        18           Zr  tau(  18) = (   0.2858672   0.6280820   0.3776642  )
        19           Zr  tau(  19) = (   0.1331729   0.4627493   0.2141328  )
        20           Zr  tau(  20) = (   0.1328036   0.4661802   0.8725649  )
        21           Zr  tau(  21) = (   0.4385616   0.4627493   0.2141328  )
        22           Zr  tau(  22) = (   0.4389309   0.4661802   0.8725649  )
        23           H   tau(  23) = (   0.6276957   0.5573903   0.5965931  )

     number of k points=     1  Gaussian smearing, width (Ry)=  0.0220
                       cart. coord. in units 2pi/alat
        k(    1) = (   0.0000000   0.0000000   0.0000000), wk =   1.0000000

     Dense  grid:   493003 G-vectors     FFT dimensions: ( 125, 120, 135)

     Estimated max dynamical RAM per process >     133.03 MB

     Estimated total dynamical RAM >       5.46 GB

     Check: negative core charge=   -0.000002
     Generating pointlists ...
     new r_m :   0.1117 (alat units)  1.9717 (a.u.) for type    1
     new r_m :   0.1098 (alat units)  1.9374 (a.u.) for type    2
     new r_m :   0.0883 (alat units)  1.5589 (a.u.) for type    3
     new r_m :   0.1112 (alat units)  1.9625 (a.u.) for type    4
     new r_m :   0.0883 (alat units)  1.5589 (a.u.) for type    5

     Initial potential from superposition of free atoms

     starting charge     266.9726, renormalised to     277.0000

     negative rho (up, down):  9.217E-01 9.217E-01
     Starting wfcs are  287 randomized atomic wfcs

     total cpu time spent up to now is       12.3 secs

     Self-consistent Calculation

     iteration #  1     ecut=   120.00 Ry     beta= 0.70
     Davidson diagonalization with overlap
     ethr =  1.00E-02,  avg # of iterations =  2.0

     negative rho (up, down):  9.956E-01 9.953E-01

     total cpu time spent up to now is       38.8 secs

     total energy              =   -2930.55206247 Ry
     estimated scf accuracy    <     277.08287383 Ry

     total magnetization       =    -0.00 Bohr mag/cell
     absolute magnetization    =     0.09 Bohr mag/cell

     iteration #  2     ecut=   120.00 Ry     beta= 0.70
     Davidson diagonalization with overlap
     ethr =  1.00E-02,  avg # of iterations =  5.0

     negative rho (up, down):  9.685E-01 9.711E-01

     total cpu time spent up to now is       83.2 secs

     total energy              =   -2942.18906598 Ry
     estimated scf accuracy    <      30.22512437 Ry

     total magnetization       =     0.17 Bohr mag/cell
     absolute magnetization    =     0.40 Bohr mag/cell

     iteration #  3     ecut=   120.00 Ry     beta= 0.70
     Davidson diagonalization with overlap
     ethr =  1.00E-02,  avg # of iterations =  2.0

     negative rho (up, down):  1.005E+00 1.010E+00

     total cpu time spent up to now is      113.6 secs

     total energy              =   -2942.64968572 Ry
     estimated scf accuracy    <      12.90028573 Ry

     total magnetization       =     0.08 Bohr mag/cell
     absolute magnetization    =     0.46 Bohr mag/cell

     iteration #  4     ecut=   120.00 Ry     beta= 0.70
     Davidson diagonalization with overlap
     ethr =  4.66E-03,  avg # of iterations =  3.0

     negative rho (up, down):  1.013E+00 1.016E+00

     total cpu time spent up to now is      131.0 secs

     total energy              =   -2942.91319614 Ry
     estimated scf accuracy    <       3.16054892 Ry

     total magnetization       =     0.16 Bohr mag/cell
     absolute magnetization    =     0.45 Bohr mag/cell

     iteration #  5     ecut=   120.00 Ry     beta= 0.70
     Davidson diagonalization with overlap
     ethr =  1.14E-03,  avg # of iterations =  8.0

     negative rho (up, down):  9.888E-01 9.901E-01

     total cpu time spent up to now is      153.5 secs

     total energy              =   -2943.06721469 Ry
     estimated scf accuracy    <       1.69359302 Ry

     total magnetization       =     0.11 Bohr mag/cell
     absolute magnetization    =     0.26 Bohr mag/cell

     iteration #  6     ecut=   120.00 Ry     beta= 0.70
     Davidson diagonalization with overlap
     ethr =  6.11E-04,  avg # of iterations =  2.0

     negative rho (up, down):  9.755E-01 9.763E-01

     total cpu time spent up to now is      170.6 secs

     total energy              =   -2943.11055656 Ry
     estimated scf accuracy    <       1.08433663 Ry

     total magnetization       =     0.09 Bohr mag/cell
     absolute magnetization    =     0.20 Bohr mag/cell

     iteration #  7     ecut=   120.00 Ry     beta= 0.70
     Davidson diagonalization with overlap
     ethr =  3.91E-04,  avg # of iterations =  1.0

     negative rho (up, down):  9.490E-01 9.495E-01

     total cpu time spent up to now is      185.9 secs

     total energy              =   -2943.05842001 Ry
     estimated scf accuracy    <       0.41721618 Ry

     total magnetization       =     0.09 Bohr mag/cell
     absolute magnetization    =     0.18 Bohr mag/cell

     iteration #  8     ecut=   120.00 Ry     beta= 0.70
     Davidson diagonalization with overlap
     ethr =  1.51E-04,  avg # of iterations =  5.0

     negative rho (up, down):  9.217E-01 9.217E-01

     total cpu time spent up to now is      220.7 secs

     total energy              =   -2943.05939934 Ry
     estimated scf accuracy    <       0.21364174 Ry

     total magnetization       =     0.08 Bohr mag/cell
     absolute magnetization    =     0.14 Bohr mag/cell

     iteration #  9     ecut=   120.00 Ry     beta= 0.70
     Davidson diagonalization with overlap
     ethr =  7.71E-05,  avg # of iterations = 10.5

     negative rho (up, down):  9.081E-01 9.081E-01

     total cpu time spent up to now is      259.0 secs

     total energy              =   -2943.05390159 Ry
     estimated scf accuracy    <       0.06087438 Ry

     total magnetization       =     0.07 Bohr mag/cell
     absolute magnetization    =     0.11 Bohr mag/cell

     iteration # 10     ecut=   120.00 Ry     beta= 0.70
     Davidson diagonalization with overlap
     c_bands:  1 eigenvalues not converged
     ethr =  2.20E-05,  avg # of iterations = 18.0

     negative rho (up, down):  9.084E-01 9.084E-01

     total cpu time spent up to now is      287.6 secs

     total energy              =   -2943.05945834 Ry
     estimated scf accuracy    <       0.03851708 Ry

     total magnetization       =     0.06 Bohr mag/cell
     absolute magnetization    =     0.08 Bohr mag/cell

     iteration # 11     ecut=   120.00 Ry     beta= 0.70
     Davidson diagonalization with overlap
     ethr =  1.39E-05,  avg # of iterations =  1.5

     negative rho (up, down):  9.092E-01 9.092E-01

     total cpu time spent up to now is      304.5 secs

     total energy              =   -2943.06291763 Ry
     estimated scf accuracy    <       0.00903732 Ry

     total magnetization       =     0.05 Bohr mag/cell
     absolute magnetization    =     0.07 Bohr mag/cell

     iteration # 12     ecut=   120.00 Ry     beta= 0.70
     Davidson diagonalization with overlap
     ethr =  3.26E-06,  avg # of iterations = 10.5

     negative rho (up, down):  9.093E-01 9.093E-01

     total cpu time spent up to now is      325.5 secs

     total energy              =   -2943.06562070 Ry
     estimated scf accuracy    <       0.00244834 Ry

     total magnetization       =     0.05 Bohr mag/cell
     absolute magnetization    =     0.06 Bohr mag/cell

     iteration # 13     ecut=   120.00 Ry     beta= 0.70
     Davidson diagonalization with overlap
     ethr =  8.84E-07,  avg # of iterations =  7.0

     negative rho (up, down):  9.090E-01 9.090E-01

     Magnetic moment per site  (integrated on atomic sphere of radius R)
     atom   1 (R=0.112)  charge=  9.4619    0.0002
     atom   2 (R=0.112)  charge=  9.0595    0.0003
     atom   3 (R=0.112)  charge=  9.0583    0.0002
     atom   4 (R=0.112)  charge=  9.0578   -0.0002
     atom   5 (R=0.112)  charge=  9.0501    0.0005
     atom   6 (R=0.110)  charge= 10.3491    0.0005
     atom   7 (R=0.110)  charge= 10.3487   -0.0000
     atom   8 (R=0.088)  charge=  8.1255   -0.0001
     atom   9 (R=0.088)  charge=  8.1159    0.0003
     atom  10 (R=0.088)  charge=  8.1059    0.0006
     atom  11 (R=0.088)  charge=  8.1033    0.0008
     atom  12 (R=0.088)  charge=  8.1063    0.0010
     atom  13 (R=0.088)  charge=  8.1037    0.0007
     atom  14 (R=0.088)  charge=  8.1055    0.0011
     atom  15 (R=0.088)  charge=  8.1023    0.0006
     atom  16 (R=0.088)  charge=  8.1058    0.0001
     atom  17 (R=0.088)  charge=  8.1084    0.0017
     atom  18 (R=0.111)  charge=  9.4532    0.0003
     atom  19 (R=0.111)  charge=  9.0000    0.0004
     atom  20 (R=0.111)  charge=  8.9968    0.0002
     atom  21 (R=0.111)  charge=  8.9994    0.0003
     atom  22 (R=0.111)  charge=  8.9961    0.0004
     atom  23 (R=0.088)  charge=  0.9730    0.0000

     total cpu time spent up to now is      343.9 secs

     End of self-consistent calculation

 ------ SPIN UP ------------


          k = 0.0000 0.0000 0.0000 ( 61588 PWs)   bands (ev):

   -60.7969 -60.7877 -60.7524 -60.7427 -60.7176 -60.7115 -60.6733 -60.6682
   -60.5299 -60.4052 -54.4014 -54.3530 -54.2738 -54.2267 -52.7107 -46.2809
   -46.2730 -41.6637 -41.6530 -41.5682 -41.5517 -39.8135 -27.7971 -27.7910
   -27.7128 -27.7032 -27.6101 -27.6039 -27.4841 -27.4737 -27.3817 -27.3473
   -27.3121 -27.2850 -27.2710 -27.2522 -27.2399 -27.1858 -27.1788 -27.1568
   -27.1020 -27.0773 -27.0171 -26.9754 -26.9686 -26.9618 -26.9529 -26.9064
   -26.9014 -26.8947 -26.8715 -26.8690 -24.1867 -23.9741 -23.6746 -23.5831
   -23.3304 -23.1978 -23.1753 -23.0734 -22.9472 -22.8744 -22.8532 -22.6327
   -22.5208 -22.4687 -22.4118 -22.3693 -22.2946 -22.2498 -21.7716 -21.7063
   -21.6407 -20.2185 -19.9702 -19.8578 -19.8472 -19.6412 -19.6226 -19.6141
   -19.6000 -19.5961 -19.5542 -19.3967 -19.3932 -18.1587 -17.9570 -17.8327
     1.4542   2.9141   2.9878   3.1269   3.3033   3.4486   3.5060   3.6742
     3.7363   3.8448   3.9011   4.0591   4.2134   4.4931   4.6586   4.6797
     4.7575   4.8297   5.0260   5.0787   5.1544   5.2525   5.2746   5.3088
     5.3882   5.5425   5.5959   5.7069   5.7170   5.7404   5.7459   5.7814
     5.9279   6.0865   6.1690   6.2106   6.2551   6.2781   6.3477   6.3742
     6.4463   6.5985   6.6470   6.6937   6.8588   6.9212   6.9889   7.0342
     7.0853   7.1365   7.2484   7.2690   7.3060   7.4182   7.5408   7.5725
     7.6023   7.7180   7.8820   7.9017   8.0689   8.0930   8.1010   8.1892
     8.2408   8.2912   8.3382   8.3655   8.4533   8.5422   8.6215   8.6655
     8.8048   8.8873   8.9332   9.0548   9.1314   9.2190   9.2721

 ------ SPIN DOWN ----------


          k = 0.0000 0.0000 0.0000 ( 61588 PWs)   bands (ev):

   -60.7961 -60.7866 -60.7517 -60.7416 -60.7170 -60.7105 -60.6726 -60.6672
   -60.5299 -60.4048 -54.4012 -54.3528 -54.2737 -54.2266 -52.7106 -46.2809
   -46.2723 -41.6635 -41.6528 -41.5682 -41.5514 -39.8131 -27.7958 -27.7895
   -27.7116 -27.7016 -27.6088 -27.6023 -27.4828 -27.4728 -27.3812 -27.3463
   -27.3114 -27.2841 -27.2697 -27.2513 -27.2389 -27.1850 -27.1779 -27.1564
   -27.1018 -27.0767 -27.0167 -26.9743 -26.9671 -26.9603 -26.9517 -26.9055
   -26.8999 -26.8937 -26.8705 -26.8678 -24.1865 -23.9740 -23.6743 -23.5829
   -23.3302 -23.1975 -23.1748 -23.0731 -22.9470 -22.8742 -22.8530 -22.6325
   -22.5204 -22.4681 -22.4115 -22.3691 -22.2942 -22.2495 -21.7713 -21.7061
   -21.6405 -20.2182 -19.9701 -19.8577 -19.8470 -19.6410 -19.6224 -19.6139
   -19.6000 -19.5958 -19.5543 -19.3965 -19.3926 -18.1584 -17.9565 -17.8322
     1.4553   2.9158   2.9886   3.1277   3.3043   3.4507   3.5067   3.6749
     3.7373   3.8454   3.9029   4.0598   4.2146   4.4938   4.6592   4.6812
     4.7584   4.8309   5.0275   5.0798   5.1554   5.2533   5.2758   5.3103
     5.3899   5.5432   5.5965   5.7082   5.7178   5.7413   5.7464   5.7824
     5.9287   6.0882   6.1701   6.2116   6.2561   6.2796   6.3485   6.3751
     6.4479   6.5994   6.6479   6.6949   6.8599   6.9228   6.9921   7.0364
     7.0902   7.1387   7.2515   7.2726   7.3073   7.4234   7.5421   7.5748
     7.6042   7.7202   7.8834   7.9031   8.0714   8.0942   8.1025   8.1925
     8.2429   8.2920   8.3411   8.3669   8.4545   8.5436   8.6229   8.6665
     8.8060   8.8907   8.9345   9.0562   9.1323   9.2198   9.2716

     the Fermi energy is     7.2241 ev

!    total energy              =   -2943.06690491 Ry
     estimated scf accuracy    <       0.00050598 Ry
     smearing contrib. (-TS)   =      -0.09959305 Ry
     internal energy E=F+TS    =   -2942.96731186 Ry

     total magnetization       =     0.04 Bohr mag/cell
     absolute magnetization    =     0.05 Bohr mag/cell

     convergence has been achieved in  13 iterations

     negative rho (up, down):  9.090E-01 9.090E-01

     Forces acting on atoms (cartesian axes, Ry/au):

     atom    1 type  1   force =    -0.00494979   -0.02535695    0.01205132
     atom    2 type  1   force =    -0.11392523   -0.01816899   -0.00271321
     atom    3 type  1   force =    -0.11625886    0.01501887    0.00275274
     atom    4 type  1   force =     0.11282082   -0.01433697   -0.00541097
     atom    5 type  1   force =     0.13242047   -0.00184033    0.00653284
     atom    6 type  2   force =    -0.01162251   -0.01794394    0.00524494
     atom    7 type  2   force =    -0.01778963    0.01073516   -0.01081791
     atom    8 type  3   force =    -0.11749442    0.00425956   -0.00289061
     atom    9 type  3   force =     0.16618542    0.01584636    0.00173767
     atom   10 type  3   force =    -0.01983820   -0.03056163   -0.05957162
     atom   11 type  3   force =    -0.02079266   -0.03504754    0.05683443
     atom   12 type  3   force =    -0.01938933    0.03677127   -0.05543732
     atom   13 type  3   force =    -0.01803660    0.03151184    0.06235214
     atom   14 type  3   force =     0.02226944   -0.03003193   -0.05973528
     atom   15 type  3   force =     0.01903036   -0.03734545    0.05669248
     atom   16 type  3   force =     0.01994607    0.03764082   -0.05330231
     atom   17 type  3   force =     0.01527498    0.03754459    0.06159490
     atom   18 type  4   force =    -0.00424866    0.02419826   -0.00926949
     atom   19 type  4   force =    -0.12982709   -0.00537434   -0.11641223
     atom   20 type  4   force =    -0.13366660    0.00484197    0.11636660
     atom   21 type  4   force =     0.12703817   -0.00919033   -0.11750144
     atom   22 type  4   force =     0.14040774    0.00371331    0.11444405
     atom   23 type  5   force =    -0.02755390    0.00311639   -0.00354172
     The non-local contrib.  to forces
     atom    1 type  1   force =    -0.00262156   -0.01267751    0.03290929
     atom    2 type  1   force =    -0.24628419   -0.16307061    0.01523734
     atom    3 type  1   force =    -0.24030801    0.15698701   -0.02483200
     atom    4 type  1   force =     0.24849355   -0.16383193    0.02037797
     atom    5 type  1   force =     0.25527364    0.14570655   -0.01597234
     atom    6 type  2   force =     0.00659970   -0.05456479   -0.06816570
     atom    7 type  2   force =    -0.02431989    0.06157771    0.05973249
     atom    8 type  3   force =    -0.26858839    0.00300138   -0.00112508
     atom    9 type  3   force =     0.09285162   -0.06807101   -0.03424561
     atom   10 type  3   force =    -0.21139855    0.00368027   -0.20876786
     atom   11 type  3   force =    -0.21444322    0.00518874    0.19829136
     atom   12 type  3   force =    -0.20679155   -0.02003472   -0.17765152
     atom   13 type  3   force =    -0.21294523   -0.00404962    0.20601931
     atom   14 type  3   force =     0.20506447    0.00283469   -0.21873575
     atom   15 type  3   force =     0.21432136    0.00294371    0.19673255
     atom   16 type  3   force =     0.20660482   -0.02110533   -0.18265508
     atom   17 type  3   force =     0.23474519   -0.01473160    0.19247409
     atom   18 type  4   force =    -0.01239232    0.05570283   -0.06230424
     atom   19 type  4   force =     0.06309099    0.00796026    0.07116575
     atom   20 type  4   force =     0.05757616   -0.01810518   -0.06260087
     atom   21 type  4   force =    -0.05883609    0.00939236    0.07352448
     atom   22 type  4   force =    -0.05757879   -0.01100074   -0.06951874
     atom   23 type  5   force =    -0.03820345   -0.01445224   -0.01023519
     The ionic contribution  to forces
     atom    1 type  1   force =    -0.20374446   -4.72282459   14.04858143
     atom    2 type  1   force =   -39.66137728   -6.14024484    0.75411400
     atom    3 type  1   force =   -39.63872725    6.19925127   -0.74905321
     atom    4 type  1   force =    39.50373471   -6.20512431    0.72848827
     atom    5 type  1   force =    39.16420244    6.62984043   -0.84947940
     atom    6 type  2   force =    -0.15642003   -3.64258626  -13.99342179
     atom    7 type  2   force =    -0.42444769    3.66024063   14.05938859
     atom    8 type  3   force =   -52.07815298    0.00336504   -0.11453112
     atom    9 type  3   force =    50.56412991   -0.67773058   -0.51196171
     atom   10 type  3   force =   -36.04353957   -2.09498259  -23.08574298
     atom   11 type  3   force =   -35.11955934   -0.85341763   22.10781101
     atom   12 type  3   force =   -35.22983798    0.83136784  -22.15888439
     atom   13 type  3   force =   -36.02396664    2.23530955   23.11459450
     atom   14 type  3   force =    35.96627657   -2.11097245  -23.13096648
     atom   15 type  3   force =    35.01061269   -0.88421725   22.17293648
     atom   16 type  3   force =    35.10891312    0.89290325  -22.25789646
     atom   17 type  3   force =    35.80928202    2.37597523   23.29033113
     atom   18 type  4   force =    -0.25508260    4.39554356  -14.02818266
     atom   19 type  4   force =   -35.88143481    0.92992975  -25.56698128
     atom   20 type  4   force =   -35.86667585   -0.99114941   25.57902518
     atom   21 type  4   force =    35.73530697    0.88909038  -25.71822252
     atom   22 type  4   force =    35.55877495   -1.09623065   25.89911308
     atom   23 type  5   force =     4.16173310    0.37666364    0.41094032
     The local contribution  to forces
     atom    1 type  1   force =     0.20308572    4.70649787  -14.06972536
     atom    2 type  1   force =    39.81567310    6.28219514   -0.77496624
     atom    3 type  1   force =    39.78528152   -6.33702585    0.77524260
     atom    4 type  1   force =   -39.66010659    6.35387815   -0.76062144
     atom    5 type  1   force =   -39.30567383   -6.77770591    0.87153705
     atom    6 type  2   force =     0.14345933    3.67454471   14.05448976
     atom    7 type  2   force =     0.43527800   -3.70888042  -14.13099915
     atom    8 type  3   force =    52.26429727   -0.00464809    0.10724783
     atom    9 type  3   force =   -50.50243529    0.76816393    0.54630213
     atom   10 type  3   force =    36.26025783    2.05437294   23.24978263
     atom   11 type  3   force =    35.34210066    0.80659181  -22.26656452
     atom   12 type  3   force =    35.44248329   -0.76132774   22.29483517
     atom   13 type  3   force =    36.24598743   -2.18676146  -23.27278146
     atom   14 type  3   force =   -36.17152941    2.07166021   23.30440497
     atom   15 type  3   force =   -35.23407502    0.83324434  -22.32601611
     atom   16 type  3   force =   -35.31926906   -0.81847895   22.39947053
     atom   17 type  3   force =   -36.05284909   -2.31223425  -23.43376161
     atom   18 type  4   force =     0.26623959   -4.42715795   14.07215907
     atom   19 type  4   force =    35.69941842   -0.94790018   25.38783369
     atom   20 type  4   force =    35.68441704    1.00918642  -25.40635801
     atom   21 type  4   force =   -35.55637391   -0.91339021   25.53799808
     atom   22 type  4   force =   -35.36740986    1.10869846  -25.72376247
     atom   23 type  5   force =    -4.15142137   -0.35973504   -0.40494946
     The core correction contribution to forces
     atom    1 type  1   force =     0.00066596    0.00090118   -0.00086968
     atom    2 type  1   force =    -0.01181073   -0.00159984    0.00023097
     atom    3 type  1   force =    -0.01266009    0.00267392   -0.00154645
     atom    4 type  1   force =     0.01231509   -0.00214516    0.00224142
     atom    5 type  1   force =     0.00999194    0.00610170   -0.00116780
     atom    6 type  2   force =    -0.00036909    0.00251264    0.00277707
     atom    7 type  2   force =     0.00089317   -0.00303723   -0.00224137
     atom    8 type  3   force =    -0.03249299    0.00094289   -0.00018955
     atom    9 type  3   force =     0.01225769   -0.00931310   -0.00458754
     atom   10 type  3   force =    -0.02176370    0.00933787   -0.01666762
     atom   11 type  3   force =    -0.02409100    0.00894194    0.01817608
     atom   12 type  3   force =    -0.02234648   -0.01000002   -0.01539818
     atom   13 type  3   force =    -0.02331105   -0.00918514    0.01642989
     atom   14 type  3   force =     0.02207668    0.00997200   -0.01613024
     atom   15 type  3   force =     0.02349465    0.01026259    0.01509920
     atom   16 type  3   force =     0.02332871   -0.01178516   -0.01489984
     atom   17 type  3   force =     0.02387535   -0.00988691    0.01438547
     atom   18 type  4   force =     0.00059767   -0.00289223    0.00291637
     atom   19 type  4   force =    -0.00991687    0.00007734   -0.00947688
     atom   20 type  4   force =    -0.00976140    0.00059587    0.00907597
     atom   21 type  4   force =     0.00979259    0.00005430   -0.00961185
     atom   22 type  4   force =     0.01016403    0.00043357    0.00908010
     atom   23 type  5   force =     0.00000000    0.00000000    0.00000000
     The Hubbard contrib.    to forces
     atom    1 type  1   force =     0.00000000    0.00000000    0.00000000
     atom    2 type  1   force =     0.00000000    0.00000000    0.00000000
     atom    3 type  1   force =     0.00000000    0.00000000    0.00000000
     atom    4 type  1   force =     0.00000000    0.00000000    0.00000000
     atom    5 type  1   force =     0.00000000    0.00000000    0.00000000
     atom    6 type  2   force =     0.00000000    0.00000000    0.00000000
     atom    7 type  2   force =     0.00000000    0.00000000    0.00000000
     atom    8 type  3   force =     0.00000000    0.00000000    0.00000000
     atom    9 type  3   force =     0.00000000    0.00000000    0.00000000
     atom   10 type  3   force =     0.00000000    0.00000000    0.00000000
     atom   11 type  3   force =     0.00000000    0.00000000    0.00000000
     atom   12 type  3   force =     0.00000000    0.00000000    0.00000000
     atom   13 type  3   force =     0.00000000    0.00000000    0.00000000
     atom   14 type  3   force =     0.00000000    0.00000000    0.00000000
     atom   15 type  3   force =     0.00000000    0.00000000    0.00000000
     atom   16 type  3   force =     0.00000000    0.00000000    0.00000000
     atom   17 type  3   force =     0.00000000    0.00000000    0.00000000
     atom   18 type  4   force =     0.00000000    0.00000000    0.00000000
     atom   19 type  4   force =     0.00000000    0.00000000    0.00000000
     atom   20 type  4   force =     0.00000000    0.00000000    0.00000000
     atom   21 type  4   force =     0.00000000    0.00000000    0.00000000
     atom   22 type  4   force =     0.00000000    0.00000000    0.00000000
     atom   23 type  5   force =     0.00000000    0.00000000    0.00000000
     The SCF correction term to forces
     atom    1 type  1   force =    -0.00207705    0.00273945    0.00081534
     atom    2 type  1   force =    -0.00986773    0.00454451    0.00233041
     atom    3 type  1   force =    -0.00958663   -0.00687415    0.00260151
     atom    4 type  1   force =     0.00864245    0.00287963    0.00376250
     atom    5 type  1   force =     0.00888466   -0.00578975    0.00127503
     atom    6 type  2   force =    -0.00463403    0.00214311    0.00922530
     atom    7 type  2   force =    -0.00493483    0.00082782    0.00296122
     atom    8 type  3   force =    -0.00229893    0.00159169    0.00536700
     atom    9 type  3   force =    -0.00036013    0.00279047    0.00589011
     atom   10 type  3   force =    -0.00313582   -0.00297676    0.00148390
     atom   11 type  3   force =    -0.00454136   -0.00235904   -0.00121981
     atom   12 type  3   force =    -0.00263823   -0.00324074    0.00132130
     atom   13 type  3   force =    -0.00354272   -0.00380814   -0.00225040
     atom   14 type  3   force =     0.00063953   -0.00353303    0.00135191
     atom   15 type  3   force =     0.00493507    0.00041450   -0.00239993
     atom   16 type  3   force =     0.00062687   -0.00389964    0.00233825
     atom   17 type  3   force =     0.00047991   -0.00158454   -0.00217449
     atom   18 type  4   force =    -0.00335261    0.00299539    0.00580167
     atom   19 type  4   force =    -0.00072643    0.00455184    0.00070619
     atom   20 type  4   force =     0.00103584    0.00430761   -0.00311597
     atom   21 type  4   force =    -0.00259300    0.00565618   -0.00152994
     atom   22 type  4   force =    -0.00328420    0.00180601   -0.00080822
     atom   23 type  5   force =     0.00059620    0.00063337    0.00036230

     Total force =     0.516873     Total SCF correction =     0.032440


     Computing stress (Cartesian axis) and pressure


     negative rho (up, down):  9.090E-01 9.090E-01
          total   stress  (Ry/bohr**3)                   (kbar)     P=       83.31
   0.00067296   0.00000208  -0.00000266           99.00        0.31       -0.39
   0.00000208   0.00064317  -0.00000882            0.31       94.61       -1.30
  -0.00000266  -0.00000882   0.00038290           -0.39       -1.30       56.33


     Molecular Dynamics Calculation

     Starting temperature  =   300.00 K

     temperature is set once at start

     mass Hf               =   178.49
     mass Nb               =    92.91
     mass Ta               =   180.95
     mass Zr               =    91.22
     mass H                =     2.01
     Time step             =     4.20 a.u.,  0.2032 femto-seconds

     Entering Dynamics:    iteration =     1
                           time      =   0.0002 pico-seconds


ATOMIC_POSITIONS (angstrom)
Hf            2.6701086740        2.8271767379        6.6039959899
Hf            1.2530962707        1.2863380963        5.0584975738
Hf            1.2555924222        7.3898591619        5.0880992719
Hf            4.0871213296        1.2863382063        5.0584974964
Hf            4.0846256735        7.3898586782        5.0880993804
Nb            2.6701081754        2.7969840527        3.5156149314
Nb            2.6701078355        5.8764337042        6.6350287725
Ta            1.2094785899        4.3409824083        5.0711571761
Ta            4.1307404201        4.3409827363        5.0711573070
Ta            1.3073609817        1.3141761607        2.0588088498
Ta            1.3028965848        1.3084445804        8.0946122364
Ta            1.3041179324        7.3758816009        2.0462670365
Ta            1.3078191470        7.3651382764        8.0860354109
Ta            4.0328567191        1.3141761757        2.0588088452
Ta            4.0373209974        1.3084445153        8.0946122324
Ta            4.0360997154        7.3758816255        2.0462670969
Ta            4.0323984069        7.3651384471        8.0860353895
Zr            2.6701085775        5.8663416380        3.5274148356
Zr            1.2439361902        4.3221320990        2.0000248908
Zr            1.2404867684        4.3541779925        8.1497935071
Zr            4.0962812853        4.3221318848        2.0000248297
Zr            4.0997312421        4.3541779291        8.1497933991
H             5.6818680372        5.1156523870        5.5199946499


     kinetic energy (Ekin) =           8.09816517 Ry
     temperature           =       38745.42891373 K 
     Ekin + Etot (const)   =       -2934.96873974 Ry
     Ions kinetic stress =          143.02 (kbar)
                                    321.78         160.91          92.89
                                    160.91          80.47          46.45
                                     92.89          46.45          26.82



     Linear momentum :    0.0000000000    0.0000000000   -0.0000000000

     File outdir/pwscf.msd.dat deleted, as requested

     Writing config-only to output data dir outdir/pwscf.save/
     NEW-OLD atomic charge density approx. for the potential

     Check: negative core charge=   -0.000002

     negative rho (up, down):  9.089E-01 9.089E-01
     Generating pointlists ...
     new r_m :   0.0791 (alat units)  1.3961 (a.u.) for type    3
     new r_m :   0.0791 (alat units)  1.3961 (a.u.) for type    5

     total cpu time spent up to now is      396.1 secs

     Self-consistent Calculation

     iteration #  1     ecut=   120.00 Ry     beta= 0.70
     Davidson diagonalization with overlap
     ethr =  1.00E-06,  avg # of iterations =  7.0

     negative rho (up, down):  9.089E-01 9.089E-01

     total cpu time spent up to now is      447.0 secs

     total energy              =   -2943.06328488 Ry
     estimated scf accuracy    <       0.03046327 Ry

     total magnetization       =     0.04 Bohr mag/cell
     absolute magnetization    =     0.04 Bohr mag/cell

     iteration #  2     ecut=   120.00 Ry     beta= 0.70
     Davidson diagonalization with overlap
     ethr =  1.10E-05,  avg # of iterations =  2.0

     negative rho (up, down):  9.089E-01 9.089E-01

     total cpu time spent up to now is      465.1 secs

     total energy              =   -2943.06547913 Ry
     estimated scf accuracy    <       0.01015764 Ry

     total magnetization       =     0.04 Bohr mag/cell
     absolute magnetization    =     0.04 Bohr mag/cell

     iteration #  3     ecut=   120.00 Ry     beta= 0.70
     Davidson diagonalization with overlap
     ethr =  3.67E-06,  avg # of iterations =  1.0

     negative rho (up, down):  9.089E-01 9.089E-01

     total cpu time spent up to now is      480.4 secs

     total energy              =   -2943.06597138 Ry
     estimated scf accuracy    <       0.00141075 Ry

     total magnetization       =     0.04 Bohr mag/cell
     absolute magnetization    =     0.04 Bohr mag/cell

     iteration #  4     ecut=   120.00 Ry     beta= 0.70
     Davidson diagonalization with overlap
     ethr =  5.09E-07,  avg # of iterations =  2.0

     negative rho (up, down):  9.090E-01 9.090E-01

     Magnetic moment per site  (integrated on atomic sphere of radius R)
     atom   1 (R=0.112)  charge=  9.4634   -0.0000
     atom   2 (R=0.112)  charge=  9.0587    0.0001
     atom   3 (R=0.112)  charge=  9.0584    0.0001
     atom   4 (R=0.112)  charge=  9.0578   -0.0000
     atom   5 (R=0.112)  charge=  9.0505    0.0002
     atom   6 (R=0.110)  charge= 10.3505    0.0001
     atom   7 (R=0.110)  charge= 10.3486    0.0000
     atom   8 (R=0.079)  charge=  7.1153   -0.0000
     atom   9 (R=0.079)  charge=  7.1185    0.0001
     atom  10 (R=0.079)  charge=  7.0970    0.0004
     atom  11 (R=0.079)  charge=  7.0951    0.0005
     atom  12 (R=0.079)  charge=  7.0985    0.0006
     atom  13 (R=0.079)  charge=  7.0971    0.0004
     atom  14 (R=0.079)  charge=  7.0963    0.0006
     atom  15 (R=0.079)  charge=  7.0952    0.0004
     atom  16 (R=0.079)  charge=  7.0989    0.0004
     atom  17 (R=0.079)  charge=  7.0983    0.0009
     atom  18 (R=0.111)  charge=  9.4549    0.0000
     atom  19 (R=0.111)  charge=  8.9972    0.0007
     atom  20 (R=0.111)  charge=  8.9968    0.0004
     atom  21 (R=0.111)  charge=  8.9961    0.0008
     atom  22 (R=0.111)  charge=  8.9962    0.0007
     atom  23 (R=0.079)  charge=  0.9324    0.0000

     total cpu time spent up to now is      498.0 secs

     End of self-consistent calculation

 ------ SPIN UP ------------


          k = 0.0000 0.0000 0.0000 ( 61588 PWs)   bands (ev):

   -60.7757 -60.7666 -60.7313 -60.7217 -60.6982 -60.6874 -60.6540 -60.6456
   -60.5114 -60.2751 -54.3838 -54.3362 -54.2554 -54.2095 -52.6958 -46.2596
   -46.2578 -41.6444 -41.6348 -41.5485 -41.5340 -39.8033 -27.7769 -27.7696
   -27.6930 -27.6817 -27.5882 -27.5824 -27.4636 -27.4548 -27.3521 -27.3262
   -27.2847 -27.2641 -27.2514 -27.2300 -27.2178 -27.1660 -27.1585 -27.1349
   -27.0829 -26.9874 -26.9550 -26.9507 -26.9405 -26.9300 -26.9137 -26.8800
   -26.8785 -26.8536 -26.8498 -26.8161 -24.1686 -23.9555 -23.6584 -23.5674
   -23.3134 -23.1794 -23.1580 -23.0550 -22.9293 -22.8598 -22.8357 -22.6171
   -22.5036 -22.4524 -22.3942 -22.3496 -22.2779 -22.2307 -21.7558 -21.6894
   -21.6268 -20.2004 -19.9514 -19.8379 -19.8305 -19.6213 -19.6036 -19.5961
   -19.5804 -19.5789 -19.5356 -19.3772 -19.3737 -18.1490 -17.9448 -17.8213
     1.4385   2.8213   2.9339   3.1445   3.3095   3.4676   3.5186   3.6916
     3.7540   3.8572   3.9197   4.0611   4.2269   4.5075   4.6653   4.6923
     4.7715   4.8127   5.0421   5.0870   5.1619   5.2712   5.2910   5.3191
     5.4008   5.5586   5.6266   5.7276   5.7333   5.7573   5.7711   5.7956
     5.9443   6.1056   6.1876   6.2304   6.2699   6.3077   6.3656   6.3879
     6.4545   6.6194   6.6635   6.7107   6.8781   6.9380   7.0029   7.0483
     7.0961   7.1513   7.2586   7.2769   7.3226   7.4327   7.5579   7.5770
     7.6221   7.7310   7.8986   7.9186   8.0883   8.0962   8.1163   8.2029
     8.2583   8.3085   8.3558   8.3823   8.4803   8.5560   8.6353   8.6822
     8.8225   8.8975   8.9598   9.0696   9.1438   9.2460   9.2921

 ------ SPIN DOWN ----------


          k = 0.0000 0.0000 0.0000 ( 61588 PWs)   bands (ev):

   -60.7750 -60.7658 -60.7307 -60.7209 -60.6975 -60.6865 -60.6533 -60.6448
   -60.5114 -60.2750 -54.3837 -54.3361 -54.2553 -54.2094 -52.6958 -46.2596
   -46.2577 -41.6439 -41.6342 -41.5480 -41.5334 -39.8033 -27.7759 -27.7685
   -27.6920 -27.6805 -27.5872 -27.5812 -27.4626 -27.4538 -27.3517 -27.3254
   -27.2844 -27.2634 -27.2506 -27.2293 -27.2169 -27.1654 -27.1578 -27.1346
   -27.0828 -26.9871 -26.9540 -26.9496 -26.9393 -26.9291 -26.9133 -26.8789
   -26.8775 -26.8527 -26.8488 -26.8160 -24.1685 -23.9554 -23.6583 -23.5674
   -23.3133 -23.1792 -23.1578 -23.0548 -22.9292 -22.8597 -22.8356 -22.6170
   -22.5035 -22.4523 -22.3941 -22.3495 -22.2778 -22.2306 -21.7557 -21.6894
   -21.6268 -20.1996 -19.9509 -19.8373 -19.8299 -19.6208 -19.6029 -19.5955
   -19.5800 -19.5783 -19.5352 -19.3766 -19.3729 -18.1489 -17.9447 -17.8212
     1.4391   2.8218   2.9353   3.1449   3.3100   3.4693   3.5191   3.6920
     3.7546   3.8576   3.9212   4.0618   4.2277   4.5079   4.6659   4.6933
     4.7721   4.8136   5.0433   5.0879   5.1627   5.2719   5.2918   5.3201
     5.4022   5.5592   5.6271   5.7285   5.7341   5.7580   5.7713   5.7963
     5.9448   6.1069   6.1884   6.2312   6.2706   6.3088   6.3662   6.3888
     6.4558   6.6201   6.6642   6.7116   6.8791   6.9394   7.0054   7.0504
     7.1003   7.1532   7.2617   7.2796   7.3236   7.4368   7.5591   7.5790
     7.6238   7.7326   7.8997   7.9198   8.0904   8.0975   8.1175   8.2056
     8.2601   8.3092   8.3582   8.3835   8.4813   8.5573   8.6365   8.6832
     8.8234   8.9004   8.9609   9.0705   9.1449   9.2467   9.2905

     the Fermi energy is     7.2370 ev

!    total energy              =   -2943.06598445 Ry
     estimated scf accuracy    <       0.00022178 Ry
     smearing contrib. (-TS)   =      -0.09986451 Ry
     internal energy E=F+TS    =   -2942.96611994 Ry

     total magnetization       =     0.04 Bohr mag/cell
     absolute magnetization    =     0.04 Bohr mag/cell

     convergence has been achieved in   4 iterations

     negative rho (up, down):  9.090E-01 9.090E-01

     Forces acting on atoms (cartesian axes, Ry/au):

     atom    1 type  1   force =    -0.00588945   -0.02333988    0.01261037
     atom    2 type  1   force =    -0.11882023   -0.01668969   -0.00102574
     atom    3 type  1   force =    -0.12052940    0.01208540    0.00365766
     atom    4 type  1   force =     0.11760097   -0.01357182   -0.00318840
     atom    5 type  1   force =     0.13305745   -0.00361225    0.00631926
     atom    6 type  2   force =    -0.01222310   -0.01972609    0.00379730
     atom    7 type  2   force =    -0.01725515    0.01102403   -0.01060572
     atom    8 type  3   force =    -0.12024557    0.00525535   -0.00080684
     atom    9 type  3   force =     0.12284654   -0.00895804   -0.01258122
     atom   10 type  3   force =    -0.02043520   -0.03059067   -0.05859468
     atom   11 type  3   force =    -0.02243773   -0.03507252    0.05543949
     atom   12 type  3   force =    -0.01978965    0.03485217   -0.05562078
     atom   13 type  3   force =    -0.01944090    0.02961298    0.06142784
     atom   14 type  3   force =     0.02312025   -0.03071338   -0.05938393
     atom   15 type  3   force =     0.02126088   -0.03652864    0.05509474
     atom   16 type  3   force =     0.02033658    0.03567786   -0.05303733
     atom   17 type  3   force =     0.01621895    0.03628477    0.06090082
     atom   18 type  4   force =    -0.00393778    0.02663686   -0.00930355
     atom   19 type  4   force =    -0.12981066   -0.00346074   -0.11522819
     atom   20 type  4   force =    -0.13291406    0.00572237    0.11376591
     atom   21 type  4   force =     0.12633341   -0.00698612   -0.11676403
     atom   22 type  4   force =     0.13699986    0.00401051    0.11313075
     atom   23 type  5   force =     0.02595400    0.02808753    0.00999628
     The non-local contrib.  to forces
     atom    1 type  1   force =    -0.00290843   -0.01111177    0.03246666
     atom    2 type  1   force =    -0.24780053   -0.16175840    0.01652894
     atom    3 type  1   force =    -0.24237515    0.15469681   -0.02437835
     atom    4 type  1   force =     0.24947880   -0.16380004    0.02138261
     atom    5 type  1   force =     0.25737938    0.14299660   -0.01736100
     atom    6 type  2   force =     0.00764480   -0.05554707   -0.06936516
     atom    7 type  2   force =    -0.02242868    0.06099495    0.06055543
     atom    8 type  3   force =    -0.26363483    0.00203986   -0.00068318
     atom    9 type  3   force =     0.04689962   -0.09075765   -0.04727334
     atom   10 type  3   force =    -0.21094046    0.00214408   -0.20951048
     atom   11 type  3   force =    -0.21482314    0.00560697    0.19709576
     atom   12 type  3   force =    -0.20462945   -0.02129235   -0.17742523
     atom   13 type  3   force =    -0.21053305   -0.00597143    0.20522929
     atom   14 type  3   force =     0.20282094    0.00224050   -0.21832936
     atom   15 type  3   force =     0.21336923    0.00313301    0.19565578
     atom   16 type  3   force =     0.20375205   -0.02280459   -0.18135483
     atom   17 type  3   force =     0.22901014   -0.01306389    0.19601676
     atom   18 type  4   force =    -0.01354756    0.05611428   -0.06140581
     atom   19 type  4   force =     0.06374285    0.00983912    0.07258463
     atom   20 type  4   force =     0.05785808   -0.01643332   -0.06440966
     atom   21 type  4   force =    -0.05968459    0.01129014    0.07385307
     atom   22 type  4   force =    -0.05829449   -0.01072928   -0.06763749
     atom   23 type  5   force =    -0.05312465   -0.02250877   -0.01507113
     The ionic contribution  to forces
     atom    1 type  1   force =    -0.23520321   -4.74430243   14.06615184
     atom    2 type  1   force =   -39.67766533   -6.14649581    0.75633951
     atom    3 type  1   force =   -39.66698298    6.20051993   -0.74519390
     atom    4 type  1   force =    39.50421000   -6.23546485    0.72989405
     atom    5 type  1   force =    39.18609307    6.67902699   -0.84113585
     atom    6 type  2   force =    -0.18323708   -3.66081171  -14.00995437
     atom    7 type  2   force =    -0.47355316    3.68888415   14.09054383
     atom    8 type  3   force =   -52.12849086    0.00817842   -0.11065072
     atom    9 type  3   force =    50.16717095   -0.87503568   -0.62514929
     atom   10 type  3   force =   -36.05227869   -2.09834626  -23.08826060
     atom   11 type  3   force =   -35.13088376   -0.85732627   22.10885349
     atom   12 type  3   force =   -35.24179732    0.83253165  -22.16048226
     atom   13 type  3   force =   -36.04084931    2.23483660   23.11351261
     atom   14 type  3   force =    35.96717130   -2.11999436  -23.13997341
     atom   15 type  3   force =    35.01461102   -0.89674539   22.18108805
     atom   16 type  3   force =    35.11297287    0.90178442  -22.26826317
     atom   17 type  3   force =    35.82722960    2.38132795   23.29421744
     atom   18 type  4   force =    -0.29187296    4.41434292  -14.05142603
     atom   19 type  4   force =   -35.89602228    0.93166447  -25.57112372
     atom   20 type  4   force =   -35.88909250   -0.98747092   25.58065772
     atom   21 type  4   force =    35.73232837    0.88811715  -25.75029880
     atom   22 type  4   force =    35.56556234   -1.09177868   25.94236249
     atom   23 type  5   force =     4.83057995    0.55255773    0.49829110
     The local contribution  to forces
     atom    1 type  1   force =     0.23028113    4.73495174  -14.08618553
     atom    2 type  1   force =    39.81073526    6.29368152   -0.77205003
     atom    3 type  1   force =    39.79377076   -6.34688526    0.77577191
     atom    4 type  1   force =   -39.64491996    6.38970057   -0.75336897
     atom    5 type  1   force =   -39.32259924   -6.83080814    0.86419761
     atom    6 type  2   force =     0.15986404    3.69558253   14.08729642
     atom    7 type  2   force =     0.47195657   -3.73970856  -14.15871459
     atom    8 type  3   force =    52.30006959   -0.00462092    0.11511669
     atom    9 type  3   force =   -50.08907262    0.97511821    0.67380499
     atom   10 type  3   force =    36.25533375    2.05159704   23.25875886
     atom   11 type  3   force =    35.33742482    0.80667294  -22.27271506
     atom   12 type  3   force =    35.44230168   -0.76946512   22.29758468
     atom   13 type  3   force =    36.24385486   -2.19490401  -23.27438249
     atom   14 type  3   force =   -36.16474315    2.07182901   23.31712466
     atom   15 type  3   force =   -35.22305528    0.84959263  -22.34124072
     atom   16 type  3   force =   -35.31798356   -0.83482308   22.41169894
     atom   17 type  3   force =   -36.06114824   -2.32452930  -23.44307346
     atom   18 type  4   force =     0.29785453   -4.43805019   14.10117526
     atom   19 type  4   force =    35.70690637   -0.93914748   25.39438200
     atom   20 type  4   force =    35.70372690    1.01331877  -25.41463909
     atom   21 type  4   force =   -35.55517401   -0.90012821   25.57077833
     atom   22 type  4   force =   -35.38220866    1.10604571  -25.77299070
     atom   23 type  5   force =    -4.75454969   -0.50351023   -0.47378721
     The core correction contribution to forces
     atom    1 type  1   force =     0.00074512    0.00088128   -0.00124620
     atom    2 type  1   force =    -0.01172804   -0.00158201    0.00030389
     atom    3 type  1   force =    -0.01257347    0.00278253   -0.00156233
     atom    4 type  1   force =     0.01219247   -0.00233766    0.00224459
     atom    5 type  1   force =     0.01050466    0.00553822   -0.00115399
     atom    6 type  2   force =    -0.00037186    0.00264724    0.00293550
     atom    7 type  2   force =     0.00081977   -0.00296692   -0.00228231
     atom    8 type  3   force =    -0.03189993    0.00084458   -0.00031008
     atom    9 type  3   force =     0.00822988   -0.01125687   -0.00604894
     atom   10 type  3   force =    -0.02154626    0.00933691   -0.01665580
     atom   11 type  3   force =    -0.02412333    0.00905193    0.01814899
     atom   12 type  3   force =    -0.02219347   -0.01003599   -0.01533992
     atom   13 type  3   force =    -0.02311362   -0.00923624    0.01640808
     atom   14 type  3   force =     0.02200928    0.00994532   -0.01624149
     atom   15 type  3   force =     0.02339013    0.01021523    0.01522283
     atom   16 type  3   force =     0.02300980   -0.01172832   -0.01480859
     atom   17 type  3   force =     0.02348604   -0.00974081    0.01473263
     atom   18 type  4   force =     0.00063993   -0.00285350    0.00293491
     atom   19 type  4   force =    -0.00993767    0.00005312   -0.00954059
     atom   20 type  4   force =    -0.00977045    0.00055998    0.00912805
     atom   21 type  4   force =     0.00976923    0.00002606   -0.00962195
     atom   22 type  4   force =     0.01012562    0.00042137    0.00895932
     atom   23 type  5   force =     0.00000000    0.00000000    0.00000000
     The Hubbard contrib.    to forces
     atom    1 type  1   force =     0.00000000    0.00000000    0.00000000
     atom    2 type  1   force =     0.00000000    0.00000000    0.00000000
     atom    3 type  1   force =     0.00000000    0.00000000    0.00000000
     atom    4 type  1   force =     0.00000000    0.00000000    0.00000000
     atom    5 type  1   force =     0.00000000    0.00000000    0.00000000
     atom    6 type  2   force =     0.00000000    0.00000000    0.00000000
     atom    7 type  2   force =     0.00000000    0.00000000    0.00000000
     atom    8 type  3   force =     0.00000000    0.00000000    0.00000000
     atom    9 type  3   force =     0.00000000    0.00000000    0.00000000
     atom   10 type  3   force =     0.00000000    0.00000000    0.00000000
     atom   11 type  3   force =     0.00000000    0.00000000    0.00000000
     atom   12 type  3   force =     0.00000000    0.00000000    0.00000000
     atom   13 type  3   force =     0.00000000    0.00000000    0.00000000
     atom   14 type  3   force =     0.00000000    0.00000000    0.00000000
     atom   15 type  3   force =     0.00000000    0.00000000    0.00000000
     atom   16 type  3   force =     0.00000000    0.00000000    0.00000000
     atom   17 type  3   force =     0.00000000    0.00000000    0.00000000
     atom   18 type  4   force =     0.00000000    0.00000000    0.00000000
     atom   19 type  4   force =     0.00000000    0.00000000    0.00000000
     atom   20 type  4   force =     0.00000000    0.00000000    0.00000000
     atom   21 type  4   force =     0.00000000    0.00000000    0.00000000
     atom   22 type  4   force =     0.00000000    0.00000000    0.00000000
     atom   23 type  5   force =     0.00000000    0.00000000    0.00000000
     The SCF correction term to forces
     atom    1 type  1   force =     0.00087098   -0.00367862    0.00146273
     atom    2 type  1   force =     0.00731347   -0.00045492   -0.00210891
     atom    3 type  1   force =     0.00730650    0.00105147   -0.00094054
     atom    4 type  1   force =    -0.00368528   -0.00158977   -0.00330154
     atom    5 type  1   force =     0.00135464   -0.00028584    0.00181162
     atom    6 type  2   force =     0.00355207   -0.00151700   -0.00707595
     atom    7 type  2   force =     0.00562542    0.00390049   -0.00066894
     atom    8 type  3   force =     0.00338553   -0.00110651   -0.00424041
     atom    9 type  3   force =    -0.01070622   -0.00694597   -0.00787550
     atom   10 type  3   force =     0.00867153    0.00475763   -0.00288753
     atom   11 type  3   force =     0.00964274    0.00100200    0.00409546
     atom   12 type  3   force =     0.00620398    0.00319405    0.00008109
     atom   13 type  3   force =     0.01087528    0.00496814    0.00069949
     atom   14 type  3   force =    -0.00446307    0.00534623   -0.00192519
     atom   15 type  3   force =    -0.00737916   -0.00264404    0.00440793
     atom   16 type  3   force =    -0.00173951    0.00332952   -0.00027054
     atom   17 type  3   force =    -0.00268354    0.00237090   -0.00095341
     atom   18 type  4   force =     0.00266334   -0.00283658   -0.00054273
     atom   19 type  4   force =     0.00517513   -0.00578989   -0.00149136
     atom   20 type  4   force =     0.00403896   -0.00417206    0.00306803
     atom   21 type  4   force =    -0.00123052   -0.00621118   -0.00143555
     atom   22 type  4   force =     0.00149011    0.00013146    0.00247626
     atom   23 type  5   force =     0.00272345    0.00162888    0.00060265

     Total force =     0.505791     Total SCF correction =     0.035807


     Computing stress (Cartesian axis) and pressure


     negative rho (up, down):  9.090E-01 9.090E-01
          total   stress  (Ry/bohr**3)                   (kbar)     P=       84.84
   0.00069092   0.00001449   0.00000343          101.64        2.13        0.50
   0.00001449   0.00065701  -0.00000536            2.13       96.65       -0.79
   0.00000343  -0.00000536   0.00038232            0.50       -0.79       56.24


     Entering Dynamics:    iteration =     2
                           time      =   0.0004 pico-seconds


ATOMIC_POSITIONS (angstrom)
Hf            2.6702170531        2.8272291074        6.6040284848
Hf            1.2531950435        1.2863910536        5.0585288627
Hf            1.2556910299        7.3899147224        5.0881309864
Hf            4.0872401733        1.2863914524        5.0585285838
Hf            4.0847459664        7.3899128543        5.0881313560
Nb            2.6702150464        2.7970353253        3.5156470646
Nb            2.6702138118        5.8764899473        6.6350584327
Ta            1.2095773180        4.3410372625        5.0711884742
Ta            4.1308609352        4.3410371139        5.0711880697
Ta            1.3074681227        1.3142280006        2.0588352730
Ta            1.3030035854        1.3084960396        8.0946484082
Ta            1.3042251226        7.3759390504        2.0462937451
Ta            1.3079263952        7.3651952805        8.0860720779
Ta            4.0329675170        1.3142280236        2.0588352191
Ta            4.0374315983        1.3084958271        8.0946483807
Ta            4.0362102899        7.3759391463        2.0462940121
Ta            4.0325086162        7.3651959995        8.0860720052
Zr            2.6702167560        5.8664004230        3.5274446964
Zr            1.2440231877        4.3221858450        2.0000368451
Zr            1.2405732020        4.3542333429        8.1498442372
Zr            4.0964114589        4.3221850208        2.0000365503
Zr            4.0998633637        4.3542330240        8.1498439501
H             5.5011903907        5.0254222514        5.4678603383


     kinetic energy (Ekin) =           8.09547555 Ry
     temperature           =       38732.56049882 K 
     Ekin + Etot (const)   =       -2934.97050890 Ry
     Ions kinetic stress =          142.97 (kbar)
                                    321.80         160.77          92.87
                                    160.77          80.32          46.40
                                     92.87          46.40          26.80



     Linear momentum :    0.0000000000    0.0000000000   -0.0000000000

     Writing config-only to output data dir outdir/pwscf.save/
     NEW-OLD atomic charge density approx. for the potential

     Check: negative core charge=   -0.000002

     negative rho (up, down):  9.089E-01 9.089E-01
     Generating pointlists ...
     new r_m :   0.0699 (alat units)  1.2334 (a.u.) for type    3
     new r_m :   0.0699 (alat units)  1.2334 (a.u.) for type    5

     total cpu time spent up to now is      543.2 secs

     Self-consistent Calculation

     iteration #  1     ecut=   120.00 Ry     beta= 0.70
     Davidson diagonalization with overlap
     ethr =  1.00E-06,  avg # of iterations =  7.0

     negative rho (up, down):  9.091E-01 9.091E-01

     total cpu time spent up to now is      600.9 secs

     total energy              =   -2943.02488267 Ry
     estimated scf accuracy    <       0.02730840 Ry

     total magnetization       =     0.03 Bohr mag/cell
     absolute magnetization    =     0.04 Bohr mag/cell

     iteration #  2     ecut=   120.00 Ry     beta= 0.70
     Davidson diagonalization with overlap
     ethr =  9.86E-06,  avg # of iterations =  2.0

     negative rho (up, down):  9.090E-01 9.090E-01

     total cpu time spent up to now is      619.3 secs

     total energy              =   -2943.02754037 Ry
     estimated scf accuracy    <       0.00464000 Ry

     total magnetization       =     0.03 Bohr mag/cell
     absolute magnetization    =     0.04 Bohr mag/cell

     iteration #  3     ecut=   120.00 Ry     beta= 0.70
     Davidson diagonalization with overlap
     ethr =  1.68E-06,  avg # of iterations =  2.0

     negative rho (up, down):  9.088E-01 9.088E-01

     Magnetic moment per site  (integrated on atomic sphere of radius R)
     atom   1 (R=0.112)  charge=  9.4639   -0.0000
     atom   2 (R=0.112)  charge=  9.0596    0.0000
     atom   3 (R=0.112)  charge=  9.0588    0.0000
     atom   4 (R=0.112)  charge=  9.0597    0.0000
     atom   5 (R=0.112)  charge=  9.0533    0.0002
     atom   6 (R=0.110)  charge= 10.3513    0.0000
     atom   7 (R=0.110)  charge= 10.3493    0.0000
     atom   8 (R=0.070)  charge=  5.8250   -0.0000
     atom   9 (R=0.070)  charge=  5.8396    0.0000
     atom  10 (R=0.070)  charge=  5.8105    0.0002
     atom  11 (R=0.070)  charge=  5.8100    0.0003
     atom  12 (R=0.070)  charge=  5.8082    0.0004
     atom  13 (R=0.070)  charge=  5.8118    0.0002
     atom  14 (R=0.070)  charge=  5.8080    0.0003
     atom  15 (R=0.070)  charge=  5.8075    0.0003
     atom  16 (R=0.070)  charge=  5.8072    0.0004
     atom  17 (R=0.070)  charge=  5.8097    0.0005
     atom  18 (R=0.111)  charge=  9.4557    0.0000
     atom  19 (R=0.111)  charge=  8.9989    0.0007
     atom  20 (R=0.111)  charge=  8.9974    0.0004
     atom  21 (R=0.111)  charge=  9.0000    0.0008
     atom  22 (R=0.111)  charge=  8.9977    0.0007
     atom  23 (R=0.070)  charge=  0.8957    0.0000

     total cpu time spent up to now is      636.2 secs

     End of self-consistent calculation

 ------ SPIN UP ------------


          k = 0.0000 0.0000 0.0000 ( 61588 PWs)   bands (ev):

   -60.7815 -60.7757 -60.7363 -60.7319 -60.7000 -60.6996 -60.6572 -60.6529
   -60.4987 -60.1145 -54.3948 -54.3492 -54.2661 -54.2211 -52.7075 -46.2677
   -46.2654 -41.6442 -41.6430 -41.5514 -41.5425 -39.8141 -27.7831 -27.7787
   -27.6970 -27.6923 -27.5955 -27.5908 -27.4735 -27.4552 -27.3488 -27.3323
   -27.2746 -27.2695 -27.2589 -27.2336 -27.2242 -27.1685 -27.1610 -27.1305
   -27.0716 -26.9605 -26.9586 -26.9553 -26.9431 -26.8938 -26.8842 -26.8660
   -26.8557 -26.8318 -26.7880 -26.7800 -24.1786 -23.9658 -23.6684 -23.5796
   -23.3239 -23.1885 -23.1687 -23.0645 -22.9388 -22.8726 -22.8461 -22.6289
   -22.5117 -22.4603 -22.4035 -22.3567 -22.2868 -22.2379 -21.7659 -21.6990
   -21.6372 -20.2099 -19.9511 -19.8460 -19.8395 -19.6213 -19.6102 -19.6011
   -19.5865 -19.5844 -19.5402 -19.3828 -19.3778 -18.1581 -17.9544 -17.8325
     1.3808   2.5850   2.9255   3.1387   3.2978   3.4643   3.5085   3.6893
     3.7452   3.8590   3.9135   4.0461   4.2185   4.4905   4.6431   4.6860
     4.7586   4.7948   5.0358   5.0720   5.1532   5.2676   5.2830   5.3080
     5.3911   5.5523   5.6406   5.7236   5.7287   5.7499   5.7795   5.7885
     5.9350   6.1034   6.1863   6.2271   6.2613   6.3205   6.3586   6.3768
     6.4444   6.6207   6.6591   6.7097   6.8792   6.9335   6.9934   7.0445
     7.0930   7.1473   7.2408   7.2667   7.3197   7.4277   7.5534   7.5624
     7.6184   7.7253   7.8930   7.9165   8.0806   8.0894   8.1113   8.1945
     8.2553   8.3060   8.3500   8.3771   8.4859   8.5491   8.6292   8.6772
     8.8214   8.8944   8.9662   9.0646   9.1303   9.2558   9.2889

 ------ SPIN DOWN ----------


          k = 0.0000 0.0000 0.0000 ( 61588 PWs)   bands (ev):

   -60.7809 -60.7751 -60.7357 -60.7313 -60.6994 -60.6989 -60.6565 -60.6522
   -60.4988 -60.1145 -54.3947 -54.3491 -54.2661 -54.2210 -52.7075 -46.2677
   -46.2654 -41.6437 -41.6424 -41.5510 -41.5419 -39.8141 -27.7821 -27.7778
   -27.6961 -27.6914 -27.5946 -27.5899 -27.4727 -27.4543 -27.3484 -27.3316
   -27.2744 -27.2689 -27.2582 -27.2329 -27.2235 -27.1679 -27.1603 -27.1303
   -27.0716 -26.9597 -26.9576 -26.9544 -26.9422 -26.8929 -26.8833 -26.8653
   -26.8549 -26.8316 -26.7879 -26.7800 -24.1785 -23.9657 -23.6683 -23.5795
   -23.3239 -23.1884 -23.1686 -23.0644 -22.9387 -22.8725 -22.8461 -22.6289
   -22.5117 -22.4603 -22.4034 -22.3567 -22.2867 -22.2378 -21.7659 -21.6990
   -21.6373 -20.2091 -19.9506 -19.8453 -19.8389 -19.6208 -19.6095 -19.6005
   -19.5860 -19.5837 -19.5397 -19.3819 -19.3772 -18.1581 -17.9543 -17.8324
     1.3814   2.5854   2.9267   3.1390   3.2981   3.4657   3.5090   3.6895
     3.7458   3.8594   3.9148   4.0466   4.2192   4.4910   4.6436   4.6868
     4.7592   4.7956   5.0369   5.0728   5.1539   5.2682   5.2837   5.3088
     5.3924   5.5528   5.6410   5.7244   5.7295   5.7506   5.7798   5.7890
     5.9355   6.1046   6.1870   6.2278   6.2619   6.3214   6.3592   6.3776
     6.4456   6.6214   6.6598   6.7104   6.8800   6.9347   6.9954   7.0465
     7.0967   7.1489   7.2439   7.2690   7.3205   7.4313   7.5546   7.5643
     7.6199   7.7267   7.8940   7.9175   8.0825   8.0906   8.1124   8.1968
     8.2570   8.3066   8.3521   8.3782   8.4868   8.5503   8.6303   8.6782
     8.8223   8.8970   8.9674   9.0654   9.1313   9.2563   9.2862

     the Fermi energy is     7.2300 ev

!    total energy              =   -2943.02753831 Ry
     estimated scf accuracy    <       0.00069063 Ry
     smearing contrib. (-TS)   =      -0.10037939 Ry
     internal energy E=F+TS    =   -2942.92715892 Ry

     total magnetization       =     0.03 Bohr mag/cell
     absolute magnetization    =     0.04 Bohr mag/cell

     convergence has been achieved in   3 iterations

     negative rho (up, down):  9.088E-01 9.088E-01

     Forces acting on atoms (cartesian axes, Ry/au):

     atom    1 type  1   force =    -0.00707894   -0.03050615    0.01889404
     atom    2 type  1   force =    -0.11288663   -0.01768254   -0.00127264
     atom    3 type  1   force =    -0.11369151    0.01479459    0.00482863
     atom    4 type  1   force =     0.11270756   -0.01871168   -0.00416210
     atom    5 type  1   force =     0.12590816    0.00258870    0.00878808
     atom    6 type  2   force =    -0.01370805   -0.02199400    0.00185416
     atom    7 type  2   force =    -0.01675804    0.01288056   -0.00989395
     atom    8 type  3   force =    -0.12540891    0.00658966   -0.00036087
     atom    9 type  3   force =     0.01499546   -0.06801778   -0.04997022
     atom   10 type  3   force =    -0.01666816   -0.02711171   -0.05937627
     atom   11 type  3   force =    -0.01778824   -0.03442540    0.05607550
     atom   12 type  3   force =    -0.01863457    0.03505147   -0.05626018
     atom   13 type  3   force =    -0.01522488    0.03125321    0.06117058
     atom   14 type  3   force =     0.01953225   -0.02853384   -0.06050897
     atom   15 type  3   force =     0.01646392   -0.03795842    0.05656536
     atom   16 type  3   force =     0.01899927    0.03650153   -0.05386183
     atom   17 type  3   force =     0.01269065    0.03718961    0.05985607
     atom   18 type  4   force =    -0.00323267    0.02840719   -0.01102496
     atom   19 type  4   force =    -0.12807561   -0.00605734   -0.11594855
     atom   20 type  4   force =    -0.13076837    0.00353023    0.11451406
     atom   21 type  4   force =     0.12377699   -0.00884552   -0.11970558
     atom   22 type  4   force =     0.13227996    0.00449764    0.11678894
     atom   23 type  5   force =     0.14257036    0.08656000    0.04301071
     The non-local contrib.  to forces
     atom    1 type  1   force =    -0.00255405   -0.01314185    0.03441855
     atom    2 type  1   force =    -0.24245392   -0.16321114    0.01649545
     atom    3 type  1   force =    -0.23715865    0.15667775   -0.02414921
     atom    4 type  1   force =     0.24622125   -0.16794232    0.02055842
     atom    5 type  1   force =     0.25553738    0.14571370   -0.01781026
     atom    6 type  2   force =     0.00908928   -0.05533012   -0.07091157
     atom    7 type  2   force =    -0.01914248    0.06039226    0.06106721
     atom    8 type  3   force =    -0.25775198    0.00039037   -0.00216490
     atom    9 type  3   force =     0.03218907   -0.10219157   -0.05697148
     atom   10 type  3   force =    -0.20851585    0.00270484   -0.21332939
     atom   11 type  3   force =    -0.21168293    0.00672775    0.19889258
     atom   12 type  3   force =    -0.20320085   -0.02074772   -0.17852801
     atom   13 type  3   force =    -0.20573187   -0.00515428    0.20608575
     atom   14 type  3   force =     0.20041221    0.00320278   -0.21984659
     atom   15 type  3   force =     0.21042140    0.00172902    0.19792214
     atom   16 type  3   force =     0.20309038   -0.02166096   -0.18152058
     atom   17 type  3   force =     0.22271130   -0.00913212    0.20032315
     atom   18 type  4   force =    -0.01254935    0.05568162   -0.06203094
     atom   19 type  4   force =     0.06727770    0.00805762    0.07237903
     atom   20 type  4   force =     0.06085103   -0.01755530   -0.06462951
     atom   21 type  4   force =    -0.06022507    0.00965352    0.07120564
     atom   22 type  4   force =    -0.05888545   -0.01043384   -0.06256313
     atom   23 type  5   force =    -0.07504614   -0.03464800   -0.02222518
     The ionic contribution  to forces
     atom    1 type  1   force =    -0.26820296   -4.76883069   14.08771834
     atom    2 type  1   force =   -39.69438204   -6.15340387    0.75844761
     atom    3 type  1   force =   -39.69321885    6.20327033   -0.74171758
     atom    4 type  1   force =    39.50644766   -6.26988759    0.73170453
     atom    5 type  1   force =    39.21938276    6.72057172   -0.82978687
     atom    6 type  2   force =    -0.21236123   -3.68220548  -14.02999717
     atom    7 type  2   force =    -0.51931461    3.72265992   14.12644394
     atom    8 type  3   force =   -52.18147016    0.01197931   -0.10740746
     atom    9 type  3   force =    49.60655158   -1.15441545   -0.78598220
     atom   10 type  3   force =   -36.06117777   -2.10192268  -23.09116968
     atom   11 type  3   force =   -35.14182886   -0.86133180   22.11036543
     atom   12 type  3   force =   -35.25336198    0.83395744  -22.16258245
     atom   13 type  3   force =   -36.05571682    2.23484186   23.11323123
     atom   14 type  3   force =    35.96893761   -2.12992386  -23.14949126
     atom   15 type  3   force =    35.01982863   -0.90943045   22.18937185
     atom   16 type  3   force =    35.11888774    0.91020344  -22.27750791
     atom   17 type  3   force =    35.84723222    2.38373740   23.29504711
     atom   18 type  4   force =    -0.32919390    4.43736075  -14.07805656
     atom   19 type  4   force =   -35.91118232    0.93332058  -25.57607493
     atom   20 type  4   force =   -35.91051249   -0.98414412   25.58352564
     atom   21 type  4   force =    35.73154303    0.88816292  -25.78486285
     atom   22 type  4   force =    35.57932917   -1.08400361   25.98327159
     atom   23 type  5   force =     5.63378361    0.81943393    0.63550966
     The local contribution  to forces
     atom    1 type  1   force =     0.26014606    4.73369952  -14.08494901
     atom    2 type  1   force =    39.84943530    6.29735643   -0.77370133
     atom    3 type  1   force =    39.84516473   -6.34080946    0.77741955
     atom    4 type  1   force =   -39.66128527    6.41095578   -0.75678285
     atom    5 type  1   force =   -39.37191543   -6.85645301    0.86498299
     atom    6 type  2   force =     0.18873628    3.69483038   14.08162126
     atom    7 type  2   force =     0.52656676   -3.75118794  -14.17884482
     atom    8 type  3   force =    52.34464721   -0.00805156    0.11171566
     atom    9 type  3   force =   -49.60774041    1.21613615    0.80932023
     atom   10 type  3   force =    36.29319543    2.07696354   23.26114629
     atom   11 type  3   force =    35.38253907    0.81291059  -22.26938969
     atom   12 type  3   force =    35.47560545   -0.76700289   22.30092532
     atom   13 type  3   force =    36.29380218   -2.18176921  -23.27450779
     atom   14 type  3   force =   -36.17735488    2.09474641   23.31948131
     atom   15 type  3   force =   -35.24789865    0.85099901  -22.33939315
     atom   16 type  3   force =   -35.32450494   -0.83665645   22.41657661
     atom   17 type  3   force =   -36.08535049   -2.31989916  -23.45031218
     atom   18 type  4   force =     0.34081355   -4.45690395   14.12048941
     atom   19 type  4   force =    35.73935804   -0.95784443   25.39231601
     atom   20 type  4   force =    35.74444623    0.99780375  -25.40763602
     atom   21 type  4   force =   -35.56243979   -0.91384801   25.59001785
     atom   22 type  4   force =   -35.40717013    1.09877693  -25.79876269
     atom   23 type  5   force =    -5.41919704   -0.69918985   -0.57008664
     The core correction contribution to forces
     atom    1 type  1   force =     0.00081032    0.00089399   -0.00158265
     atom    2 type  1   force =    -0.01153073   -0.00167091    0.00030048
     atom    3 type  1   force =    -0.01227627    0.00293337   -0.00157960
     atom    4 type  1   force =     0.01208451   -0.00270323    0.00214741
     atom    5 type  1   force =     0.01106833    0.00504515   -0.00117342
     atom    6 type  2   force =    -0.00035759    0.00274629    0.00314119
     atom    7 type  2   force =     0.00068108   -0.00289925   -0.00230686
     atom    8 type  3   force =    -0.03133205    0.00072445   -0.00040423
     atom    9 type  3   force =     0.00597694   -0.01260509   -0.00738723
     atom   10 type  3   force =    -0.02142230    0.00914356   -0.01681327
     atom   11 type  3   force =    -0.02411613    0.00909925    0.01828724
     atom   12 type  3   force =    -0.02232836   -0.01012754   -0.01541694
     atom   13 type  3   force =    -0.02312260   -0.00937603    0.01640394
     atom   14 type  3   force =     0.02192864    0.00980934   -0.01638020
     atom   15 type  3   force =     0.02333609    0.01016523    0.01548906
     atom   16 type  3   force =     0.02277335   -0.01159415   -0.01485267
     atom   17 type  3   force =     0.02283557   -0.00946816    0.01523622
     atom   18 type  4   force =     0.00065253   -0.00281867    0.00294634
     atom   19 type  4   force =    -0.01002299    0.00005462   -0.00958072
     atom   20 type  4   force =    -0.00981706    0.00054626    0.00922065
     atom   21 type  4   force =     0.00972206    0.00002322   -0.00960456
     atom   22 type  4   force =     0.01004814    0.00036379    0.00884044
     atom   23 type  5   force =     0.00000000    0.00000000    0.00000000
     The Hubbard contrib.    to forces
     atom    1 type  1   force =     0.00000000    0.00000000    0.00000000
     atom    2 type  1   force =     0.00000000    0.00000000    0.00000000
     atom    3 type  1   force =     0.00000000    0.00000000    0.00000000
     atom    4 type  1   force =     0.00000000    0.00000000    0.00000000
     atom    5 type  1   force =     0.00000000    0.00000000    0.00000000
     atom    6 type  2   force =     0.00000000    0.00000000    0.00000000
     atom    7 type  2   force =     0.00000000    0.00000000    0.00000000
     atom    8 type  3   force =     0.00000000    0.00000000    0.00000000
     atom    9 type  3   force =     0.00000000    0.00000000    0.00000000
     atom   10 type  3   force =     0.00000000    0.00000000    0.00000000
     atom   11 type  3   force =     0.00000000    0.00000000    0.00000000
     atom   12 type  3   force =     0.00000000    0.00000000    0.00000000
     atom   13 type  3   force =     0.00000000    0.00000000    0.00000000
     atom   14 type  3   force =     0.00000000    0.00000000    0.00000000
     atom   15 type  3   force =     0.00000000    0.00000000    0.00000000
     atom   16 type  3   force =     0.00000000    0.00000000    0.00000000
     atom   17 type  3   force =     0.00000000    0.00000000    0.00000000
     atom   18 type  4   force =     0.00000000    0.00000000    0.00000000
     atom   19 type  4   force =     0.00000000    0.00000000    0.00000000
     atom   20 type  4   force =     0.00000000    0.00000000    0.00000000
     atom   21 type  4   force =     0.00000000    0.00000000    0.00000000
     atom   22 type  4   force =     0.00000000    0.00000000    0.00000000
     atom   23 type  5   force =     0.00000000    0.00000000    0.00000000
     The SCF correction term to forces
     atom    1 type  1   force =     0.00330544    0.01687854   -0.01626552
     atom    2 type  1   force =    -0.01337150    0.00325263   -0.00236917
     atom    3 type  1   force =    -0.01561871   -0.00727173   -0.00469886
     atom    4 type  1   force =     0.00982316    0.01087134   -0.00134394
     atom    5 type  1   force =     0.01241888   -0.01228319   -0.00697868
     atom    6 type  2   force =     0.00176896    0.01797060    0.01844614
     atom    7 type  2   force =    -0.00496502   -0.01607877   -0.01580775
     atom    8 type  3   force =     0.00108183    0.00155276   -0.00165427
     atom    9 type  3   force =    -0.02139797   -0.01493616   -0.00850386
     atom   10 type  3   force =    -0.01816392   -0.01399530    0.00123545
     atom   11 type  3   force =    -0.02211565   -0.00182553   -0.00163437
     atom   12 type  3   force =    -0.01476507   -0.00102215   -0.00021242
     atom   13 type  3   force =    -0.02387202   -0.00728346    0.00040313
     atom   14 type  3   force =     0.00619243   -0.00636285    0.00617344
     atom   15 type  3   force =     0.01136021    0.00858444   -0.00637886
     atom   16 type  3   force =    -0.00066350   -0.00378469    0.00388839
     atom   17 type  3   force =     0.00584581   -0.00804269    0.00000746
     atom   18 type  4   force =    -0.00237174   -0.00490690    0.00607247
     atom   19 type  4   force =    -0.01292228    0.01035994    0.00545774
     atom   20 type  4   force =    -0.01515232    0.00688532   -0.00552102
     atom   21 type  4   force =     0.00576051    0.00716850    0.01398402
     atom   22 type  4   force =     0.00954199   -0.00019997   -0.01355160
     atom   23 type  5   force =     0.00361369    0.00096959    0.00025854

     Total force =     0.520461     Total SCF correction =     0.084879
     SCF correction compared to forces is large: reduce conv_thr to get better values


     Computing stress (Cartesian axis) and pressure


     negative rho (up, down):  9.088E-01 9.088E-01
          total   stress  (Ry/bohr**3)                   (kbar)     P=       89.03
   0.00076226   0.00003665   0.00001689          112.13        5.39        2.48
   0.00003665   0.00066791  -0.00000029            5.39       98.25       -0.04
   0.00001689  -0.00000029   0.00038558            2.48       -0.04       56.72


     Entering Dynamics:    iteration =     3
                           time      =   0.0006 pico-seconds


ATOMIC_POSITIONS (angstrom)
Hf            2.6703250260        2.8272797265        6.6040620638
Hf            1.2532873388        1.2864429963        5.0585600785
Hf            1.2557831140        7.3899711319        5.0881629778
Hf            4.0873654841        1.2864436249        5.0585594324
Hf            4.0848734838        7.3899671790        5.0881638358
Nb            2.6703204063        2.7970841734        3.5156794023
Nb            2.6703179408        5.8765476104        6.6350870022
Ta            1.2096689479        4.3410924897        5.0712197518
Ta            4.1309822992        4.3410876417        5.0712160040
Ta            1.3075743202        1.3142783059        2.0588583356
[...]
     4.7576   4.9286   5.0302   5.0937   5.2143   5.2549   5.2818   5.3387
     5.4243   5.5410   5.6006   5.7022   5.7105   5.7260   5.7506   5.7953
     5.9275   6.0796   6.1507   6.2118   6.2586   6.2697   6.3544   6.3828
     6.4658   6.5833   6.6550   6.7004   6.8572   6.9194   6.9992   7.0391
     7.0843   7.1337   7.2519   7.2918   7.2994   7.4234   7.5344   7.5980
     7.6113   7.7388   7.8901   7.9161   8.0783   8.0928   8.1066   8.1998
     8.2414   8.2957   8.3464   8.3690   8.4183   8.5550   8.6382   8.6640
     8.8072   8.8855   8.9103   9.0562   9.1448   9.2032   9.2596

     the Fermi energy is     7.2269 ev

!    total energy              =   -2943.02149686 Ry
     estimated scf accuracy    <       0.00096922 Ry
     smearing contrib. (-TS)   =      -0.09868367 Ry
     internal energy E=F+TS    =   -2942.92281319 Ry

     total magnetization       =     0.00 Bohr mag/cell
     absolute magnetization    =     0.00 Bohr mag/cell

     convergence has been achieved in   4 iterations

     negative rho (up, down):  9.091E-01 9.091E-01

     Forces acting on atoms (cartesian axes, Ry/au):

     atom    1 type  1   force =    -0.00956106   -0.02760151    0.01477526
     atom    2 type  1   force =    -0.11529169   -0.01700396   -0.01010981
     atom    3 type  1   force =    -0.11869604    0.01299299   -0.00429197
     atom    4 type  1   force =     0.11494132   -0.01484820   -0.01246673
     atom    5 type  1   force =     0.13926689   -0.00391613   -0.00158608
     atom    6 type  2   force =    -0.01710797   -0.02126157   -0.00008721
     atom    7 type  2   force =    -0.01903151    0.01022917   -0.00755369
     atom    8 type  3   force =    -0.11691656    0.00350817   -0.00541350
     atom    9 type  3   force =     0.18757970    0.03478590    0.01220793
     atom   10 type  3   force =    -0.01835342   -0.03113242   -0.05718620
     atom   11 type  3   force =    -0.01979568   -0.03297720    0.06057771
     atom   12 type  3   force =    -0.01775953    0.03664332   -0.05202537
     atom   13 type  3   force =    -0.01826004    0.02840843    0.06441222
     atom   14 type  3   force =     0.02188738   -0.03204334   -0.05713085
     atom   15 type  3   force =     0.01902783   -0.03458385    0.06031028
     atom   16 type  3   force =     0.01924057    0.03853065   -0.05090286
     atom   17 type  3   force =     0.01850950    0.03552810    0.06438145
     atom   18 type  4   force =    -0.00732036    0.02510063   -0.01494142
     atom   19 type  4   force =    -0.12511617   -0.00431640   -0.11422075
     atom   20 type  4   force =    -0.13051546    0.00608839    0.11838651
     atom   21 type  4   force =     0.12453930   -0.00838864   -0.11679818
     atom   22 type  4   force =     0.14236383    0.00323530    0.11526476
     atom   23 type  5   force =    -0.05363084   -0.00697782   -0.00560151
     The non-local contrib.  to forces
     atom    1 type  1   force =     0.00073658   -0.01150800    0.02398980
     atom    2 type  1   force =    -0.25003861   -0.16077739    0.00953074
     atom    3 type  1   force =    -0.24355712    0.15610654   -0.02948148
     atom    4 type  1   force =     0.25248121   -0.16197299    0.01554409
     atom    5 type  1   force =     0.25453173    0.14746028   -0.01968713
     atom    6 type  2   force =     0.00743949   -0.05017176   -0.05968994
     atom    7 type  2   force =    -0.02647432    0.06516948    0.05805266
     atom    8 type  3   force =    -0.28030595    0.00584706   -0.00171270
     atom    9 type  3   force =     0.18891959   -0.01924445   -0.00633412
     atom   10 type  3   force =    -0.20542880    0.00299281   -0.20472213
     atom   11 type  3   force =    -0.21177301    0.00364679    0.20031497
     atom   12 type  3   force =    -0.20460933   -0.01907405   -0.17662468
     atom   13 type  3   force =    -0.21525231   -0.00449910    0.20721341
     atom   14 type  3   force =     0.20019600    0.00075003   -0.21617124
     atom   15 type  3   force =     0.21317109    0.00510567    0.19738327
     atom   16 type  3   force =     0.20214359   -0.01936420   -0.18335375
     atom   17 type  3   force =     0.24442374   -0.02087826    0.18506482
     atom   18 type  4   force =    -0.00977645    0.05703878   -0.06442595
     atom   19 type  4   force =     0.06108066    0.00805534    0.06780662
     atom   20 type  4   force =     0.05672355   -0.01827766   -0.05931839
     atom   21 type  4   force =    -0.06156894    0.01029998    0.07400014
     atom   22 type  4   force =    -0.06115663   -0.01065960   -0.07206079
     atom   23 type  5   force =    -0.01858489   -0.00426210   -0.00408258
     The ionic contribution  to forces
     atom    1 type  1   force =    -0.18729508   -4.78871820   14.32251550
     atom    2 type  1   force =   -39.67768888   -6.18640384    0.76271522
     atom    3 type  1   force =   -39.56746637    6.20162838   -0.74577026
     atom    4 type  1   force =    39.60539244   -6.28734233    0.76349604
     atom    5 type  1   force =    39.23954966    6.34872143   -0.83181322
     atom    6 type  2   force =    -0.28116813   -3.85728084  -14.30117621
     atom    7 type  2   force =    -0.15807192    3.67935863   14.08994721
     atom    8 type  3   force =   -52.29751127    0.06036085   -0.08240496
     atom    9 type  3   force =    51.05655675    0.00138234   -0.18743992
     atom   10 type  3   force =   -36.03058943   -2.09767769  -23.08071963
     atom   11 type  3   force =   -35.08804060   -0.84304693   22.09554127
     atom   12 type  3   force =   -35.19467243    0.81648030  -22.13945869
     atom   13 type  3   force =   -35.95525390    2.21389201   23.09095579
     atom   14 type  3   force =    35.98453932   -2.11862044  -23.12237077
     atom   15 type  3   force =    35.02455964   -0.84655316   22.13629767
     atom   16 type  3   force =    35.12794183    0.83997621  -22.18790626
     atom   17 type  3   force =    35.78861576    2.29388040   23.20474762
     atom   18 type  4   force =    -0.14145067    4.55352038  -14.08321221
     atom   19 type  4   force =   -35.85791755    0.94283075  -25.54436727
     atom   20 type  4   force =   -35.78614026   -0.98074015   25.53509678
     atom   21 type  4   force =    35.80691623    0.94822061  -25.65562302
     atom   22 type  4   force =    35.61718614   -1.04672103   25.64044403
     atom   23 type  5   force =     2.97200871    0.15285233    0.32050529
     The local contribution  to forces
     atom    1 type  1   force =     0.17681397    4.77158230  -14.34565787
     atom    2 type  1   force =    39.82479477    6.32917767   -0.81253468
     atom    3 type  1   force =    39.70384595   -6.34568574    0.74309241
     atom    4 type  1   force =   -39.75465936    6.43340274   -0.82486327
     atom    5 type  1   force =   -39.36021392   -6.50358134    0.82059650
     atom    6 type  2   force =     0.25995841    3.88010945   14.31728854
     atom    7 type  2   force =     0.16253064   -3.73324913  -14.17468760
     atom    8 type  3   force =    52.49186723   -0.06314358    0.04689620
     atom    9 type  3   force =   -51.09073189    0.05048126    0.17119843
     atom   10 type  3   force =    36.24455153    2.04786803   23.24152999
     atom   11 type  3   force =    35.30180530    0.80417531  -22.24076899
     atom   12 type  3   force =    35.40766176   -0.74448680   22.27706619
     atom   13 type  3   force =    36.17119472   -2.17751364  -23.23970106
     atom   14 type  3   force =   -36.18657574    2.07035771   23.29460214
     atom   15 type  3   force =   -35.24104551    0.80661361  -22.27655853
     atom   16 type  3   force =   -35.33597728   -0.76348791   22.33347926
     atom   17 type  3   force =   -36.03620219   -2.23384864  -23.32929139
     atom   18 type  4   force =     0.14420662   -4.57858228   14.09210964
     atom   19 type  4   force =    35.68688099   -0.95575993   25.36603192
     atom   20 type  4   force =    35.60777248    1.00359363  -25.35376013
     atom   21 type  4   force =   -35.63432466   -0.96839948   25.46883905
     atom   22 type  4   force =   -35.42301400    1.05770640  -25.44885776
     atom   23 type  5   force =    -3.00427935   -0.15368938   -0.32535565
     The core correction contribution to forces
     atom    1 type  1   force =     0.00070283    0.00113016   -0.00103970
     atom    2 type  1   force =    -0.01197473   -0.00147458    0.00028928
     atom    3 type  1   force =    -0.01272755    0.00240464   -0.00153011
     atom    4 type  1   force =     0.01275209   -0.00174038    0.00218169
     atom    5 type  1   force =     0.00894259    0.00715911   -0.00149036
     atom    6 type  2   force =    -0.00050833    0.00218903    0.00222719
     atom    7 type  2   force =     0.00102051   -0.00328206   -0.00225617
     atom    8 type  3   force =    -0.03362835    0.00104838    0.00024341
     atom    9 type  3   force =     0.02081850   -0.00511230   -0.00128561
     atom   10 type  3   force =    -0.02194376    0.00916696   -0.01667034
     atom   11 type  3   force =    -0.02375789    0.00873890    0.01789518
     atom   12 type  3   force =    -0.02238193   -0.00964565   -0.01545997
     atom   13 type  3   force =    -0.02344851   -0.00896278    0.01630510
     atom   14 type  3   force =     0.02161575    0.01003733   -0.01581797
     atom   15 type  3   force =     0.02331514    0.01022033    0.01485887
     atom   16 type  3   force =     0.02320724   -0.01167044   -0.01495669
     atom   17 type  3   force =     0.02431629   -0.00991807    0.01377904
     atom   18 type  4   force =     0.00044029   -0.00296255    0.00282625
     atom   19 type  4   force =    -0.00976061    0.00008780   -0.00930952
     atom   20 type  4   force =    -0.00969652    0.00063411    0.00894734
     atom   21 type  4   force =     0.00993294    0.00004660   -0.00967832
     atom   22 type  4   force =     0.01040564    0.00045714    0.00925105
     atom   23 type  5   force =     0.00000000    0.00000000    0.00000000
     The Hubbard contrib.    to forces
     atom    1 type  1   force =     0.00000000    0.00000000    0.00000000
     atom    2 type  1   force =     0.00000000    0.00000000    0.00000000
     atom    3 type  1   force =     0.00000000    0.00000000    0.00000000
     atom    4 type  1   force =     0.00000000    0.00000000    0.00000000
     atom    5 type  1   force =     0.00000000    0.00000000    0.00000000
     atom    6 type  2   force =     0.00000000    0.00000000    0.00000000
     atom    7 type  2   force =     0.00000000    0.00000000    0.00000000
     atom    8 type  3   force =     0.00000000    0.00000000    0.00000000
     atom    9 type  3   force =     0.00000000    0.00000000    0.00000000
     atom   10 type  3   force =     0.00000000    0.00000000    0.00000000
     atom   11 type  3   force =     0.00000000    0.00000000    0.00000000
     atom   12 type  3   force =     0.00000000    0.00000000    0.00000000
     atom   13 type  3   force =     0.00000000    0.00000000    0.00000000
     atom   14 type  3   force =     0.00000000    0.00000000    0.00000000
     atom   15 type  3   force =     0.00000000    0.00000000    0.00000000
     atom   16 type  3   force =     0.00000000    0.00000000    0.00000000
     atom   17 type  3   force =     0.00000000    0.00000000    0.00000000
     atom   18 type  4   force =     0.00000000    0.00000000    0.00000000
     atom   19 type  4   force =     0.00000000    0.00000000    0.00000000
     atom   20 type  4   force =     0.00000000    0.00000000    0.00000000
     atom   21 type  4   force =     0.00000000    0.00000000    0.00000000
     atom   22 type  4   force =     0.00000000    0.00000000    0.00000000
     atom   23 type  5   force =     0.00000000    0.00000000    0.00000000
     The SCF correction term to forces
     atom    1 type  1   force =    -0.00050902   -0.00012443    0.01269861
     atom    2 type  1   force =    -0.00037389    0.00243752    0.02762071
     atom    3 type  1   force =     0.00121940   -0.00149749    0.02712855
     atom    4 type  1   force =    -0.00101471    0.00276809    0.02890581
     atom    5 type  1   force =    -0.00353282   -0.00371227    0.02853922
     atom    6 type  2   force =    -0.00281906    0.00385587    0.03899429
     atom    7 type  2   force =     0.00197391    0.00219558    0.01912129
     atom    8 type  3   force =     0.00267213   -0.00064121    0.02929562
     atom    9 type  3   force =     0.01202711    0.00724238    0.03380023
     atom   10 type  3   force =    -0.00493261    0.00648080    0.00112700
     atom   11 type  3   force =     0.00198086   -0.00652795   -0.01467364
     atom   12 type  3   force =    -0.00374725   -0.00666714    0.00018286
     atom   13 type  3   force =     0.00451030    0.00545527   -0.01262994
     atom   14 type  3   force =     0.00212240    0.00539536    0.00035807
     atom   15 type  3   force =    -0.00096219   -0.01000696   -0.01393991
     atom   16 type  3   force =     0.00193554   -0.00695967   -0.00043435
     atom   17 type  3   force =    -0.00263376    0.00625600   -0.01218756
     atom   18 type  4   force =    -0.00072980   -0.00395037    0.03549193
     atom   19 type  4   force =    -0.00538932    0.00043298    0.00334857
     atom   20 type  4   force =     0.00083563    0.00084180   -0.01484800
     atom   21 type  4   force =     0.00359407    0.00140699    0.00339504
     atom   22 type  4   force =    -0.00104697    0.00241574   -0.01578068
     atom   23 type  5   force =    -0.00276497   -0.00191535    0.00106250

     Total force =     0.528727     Total SCF correction =     0.102396
     SCF correction compared to forces is large: reduce conv_thr to get better values


     Computing stress (Cartesian axis) and pressure


     negative rho (up, down):  9.091E-01 9.091E-01
          total   stress  (Ry/bohr**3)                   (kbar)     P=       81.84
   0.00063426  -0.00000036  -0.00000313           93.30       -0.05       -0.46
  -0.00000036   0.00065031  -0.00001086           -0.05       95.66       -1.60
  -0.00000313  -0.00001086   0.00038448           -0.46       -1.60       56.56


     Entering Dynamics:    iteration =    20
                           time      =   0.0041 pico-seconds


ATOMIC_POSITIONS (angstrom)
Hf            2.6722164395        2.8279569270        6.6047492547
Hf            1.2538154423        1.2871909006        5.0590815715
Hf            1.2563042597        7.3910260393        5.0887380621
Hf            4.0905542877        1.2872187361        5.0590582393
Hf            4.0881351636        7.3909127296        5.0887664044
Nb            2.6722502297        2.7977018444        3.5163963599
Nb            2.6720496057        5.8777085865        6.6353365539
Ta            1.2101832955        4.3421319446        5.0717857733
Ta            4.0880244372        4.3182684245        5.0577879329
Ta            1.3091719657        1.3148658839        2.0587430573
Ta            1.3047249961        1.3090712902        8.0958377708
Ta            1.3059655228        7.3773157293        2.0462335947
Ta            1.3096748584        7.3665183025        8.0873154635
Ta            4.0351477476        1.3149014930        2.0587524058
Ta            4.0395980787        1.3090796479        8.0958428941
Ta            4.0383872634        7.3773121425        2.0462600219
Ta            4.0346400324        7.3665441259        8.0872985053
Zr            2.6722435534        5.8679624025        3.5278806601
Zr            1.2430619267        4.3230651183        1.9980142175
Zr            1.2395516814        4.3553116761        8.1529597462
Zr            4.1012111631        4.3230002296        1.9980503816
Zr            4.1047875822        4.3552951808        8.1529355738
H             6.3949651724        5.5365070190        5.7696284693


     kinetic energy (Ekin) =           8.05991062 Ry
     temperature           =       38562.40113391 K 
     Ekin + Etot (const)   =       -2934.96158624 Ry
     Ions kinetic stress =          142.35 (kbar)
                                    308.75         164.90          96.23
                                    164.90          88.15          51.43
                                     96.23          51.43          30.15



     Linear momentum :    0.0000000000    0.0000000000   -0.0000000000

     The maximum number of steps has been reached.

     End of molecular dynamics calculation

     diffusion coefficients :
     atom     1   D =       0.00000003 cm^2/s
     atom     2   D =       0.00000001 cm^2/s
     atom     3   D =       0.00000001 cm^2/s
     atom     4   D =       0.00000006 cm^2/s
     atom     5   D =       0.00000006 cm^2/s
     atom     6   D =       0.00000003 cm^2/s
     atom     7   D =       0.00000002 cm^2/s
     atom     8   D =       0.00000001 cm^2/s
     atom     9   D =       0.00001028 cm^2/s
     atom    10   D =       0.00000002 cm^2/s
     atom    11   D =       0.00000002 cm^2/s
     atom    12   D =       0.00000002 cm^2/s
     atom    13   D =       0.00000003 cm^2/s
     atom    14   D =       0.00000003 cm^2/s
     atom    15   D =       0.00000003 cm^2/s
     atom    16   D =       0.00000003 cm^2/s
     atom    17   D =       0.00000004 cm^2/s
     atom    18   D =       0.00000003 cm^2/s
     atom    19   D =       0.00000002 cm^2/s
     atom    20   D =       0.00000005 cm^2/s
     atom    21   D =       0.00000012 cm^2/s
     atom    22   D =       0.00000016 cm^2/s
     atom    23   D =       0.00176986 cm^2/s

     < D > =       0.00007743 cm^2/s

     Writing all to output data dir outdir/pwscf.save/

     init_run     :      9.97s CPU     11.53s WALL (       1 calls)
     electrons    :   2393.88s CPU   2937.39s WALL (      20 calls)
     update_pot   :     19.75s CPU     20.65s WALL (      19 calls)
     forces       :    219.03s CPU    248.42s WALL (      20 calls)
     stress       :    364.30s CPU    390.39s WALL (      20 calls)

     Called by init_run:
     wfcinit      :      7.41s CPU      8.60s WALL (       1 calls)
     potinit      :      0.47s CPU      0.51s WALL (       1 calls)
     hinit0       :      0.95s CPU      1.10s WALL (       1 calls)

     Called by electrons:
     c_bands      :   1904.27s CPU   2358.10s WALL (      98 calls)
     sum_band     :    324.93s CPU    384.95s WALL (      98 calls)
     v_of_rho     :     10.31s CPU     12.49s WALL (     118 calls)
     newd         :    180.50s CPU    211.97s WALL (     118 calls)
     mix_rho      :      0.88s CPU      1.24s WALL (      98 calls)

     Called by c_bands:
     init_us_2    :      3.59s CPU      3.71s WALL (     474 calls)
     init_us_2:cp :      3.58s CPU      3.71s WALL (     474 calls)
     regterg      :   1890.77s CPU   2341.47s WALL (     196 calls)

     Called by *egterg:
     rdiaghg      :     68.96s CPU     87.58s WALL (    1691 calls)
     h_psi        :    968.24s CPU   1108.46s WALL (    1731 calls)
     s_psi        :    333.50s CPU    334.29s WALL (    1731 calls)
     g_psi        :      0.70s CPU      0.76s WALL (    1533 calls)

     Called by h_psi:
     h_psi:calbec :    472.78s CPU    573.47s WALL (    1731 calls)
     vloc_psi     :    103.04s CPU    141.24s WALL (    1731 calls)
     add_vuspsi   :    391.20s CPU    392.43s WALL (    1731 calls)

     General routines
     calbec       :    816.62s CPU    979.31s WALL (    2127 calls)
     fft          :      9.33s CPU     27.54s WALL (    2469 calls)
     ffts         :      0.24s CPU      0.30s WALL (      98 calls)
     fftw         :    111.38s CPU    153.97s WALL (  104364 calls)

     Parallel routines

     PWSCF        :  50m34.22s CPU      1h 0m WALL


   This run was terminated on:  20:17:22  13Jun2023            

=------------------------------------------------------------------------------=
   JOB DONE.
=------------------------------------------------------------------------------=
