
     Program PWSCF v.7.2 starts on 15Jun2023 at  5: 5:22 

     This program is part of the open-source Quantum ESPRESSO suite
     for quantum simulation of materials; please cite
         "P. Giannozzi et al., J. Phys.:Condens. Matter 21 395502 (2009);
         "P. Giannozzi et al., J. Phys.:Condens. Matter 29 465901 (2017);
         "P. Giannozzi et al., J. Chem. Phys. 152 154105 (2020);
          URL http://www.quantum-espresso.org", 
     in publications or presentations arising from this work. More details at
     http://www.quantum-espresso.org/quote

     Parallel version (MPI), running on    42 processors

     MPI processes distributed on     1 nodes
     174304 MiB available memory on the printing compute node when the environment starts

     Reading input from md_data/md_Hf5Nb2Ta10Zr5H_20steps_100eV_incident75_polar30.in
Warning: card &CELL ignored
Warning: card / ignored

     Current dimensions of program PWSCF are:
     Max number of different atomic species (ntypx) = 10
     Max number of k-points (npk) =  40000
     Max angular momentum in pseudopotentials (lmaxx) =  4

     File outdir/pwscf.md deleted, as requested

     gamma-point specific algorithms are used

     R & G space division:  proc/nbgrp/npool/nimage =      42
     Subspace diagonalization in iterative solution of the eigenvalue problem:
     one sub-group per band group will be used
     custom distributed-memory algorithm (size of sub-group:  2*  2 procs)


     Parallelization info
     --------------------
     sticks:   dense  smooth     PW     G-vecs:    dense   smooth      PW
     Min         262     262     63                23470    23470    2920
     Max         265     265     66                23484    23484    2942
     Sum       11057   11057   2753               986005   986005  123175

     Using Slab Decomposition



     bravais-lattice index     =            0
     lattice parameter (alat)  =      17.6500  a.u.
     unit-cell volume          =    5552.8853 (a.u.)^3
     number of atoms/cell      =           23
     number of atomic types    =            5
     number of electrons       =       277.00
     number of Kohn-Sham states=          167
     kinetic-energy cutoff     =     120.0000  Ry
     charge density cutoff     =     480.0000  Ry
     scf convergence threshold =      1.0E-03
     mixing beta               =       0.7000
     number of iterations used =            8  TF        mixing
     energy convergence thresh.=      0.0E+00
     force convergence thresh. =      0.0E+00
     Exchange-correlation=  SLA  PW   PBX  PBC
                           (   1   4   3   4   0   0   0)
     nstep                     =           20


     celldm(1)=  17.650041  celldm(2)=   0.000000  celldm(3)=   0.000000
     celldm(4)=   0.000000  celldm(5)=   0.000000  celldm(6)=   0.000000

     crystal axes: (cart. coord. in units of alat)
               a(1) = (   1.000000   0.000000   0.000000 )  
               a(2) = (   0.000000   0.929336   0.000000 )  
               a(3) = (   0.000000   0.000000   1.086698 )  

     reciprocal axes: (cart. coord. in units 2 pi/alat)
               b(1) = (  1.000000  0.000000  0.000000 )  
               b(2) = (  0.000000  1.076037  0.000000 )  
               b(3) = (  0.000000  0.000000  0.920219 )  


     PseudoPot. # 1 for Hf read from file:
     q-e/pseudo/hf_pbe_v1.uspp.F.UPF
     MD5 check sum: 8ee9378dfe14276e333edf04c5e4aa26
     Pseudo is Ultrasoft + core correction, Zval = 12.0
     Generated by new atomic code, or converted to UPF format
     Using radial grid of  921 points,  8 beta functions with: 
                l(1) =   0
                l(2) =   0
                l(3) =   0
                l(4) =   1
                l(5) =   1
                l(6) =   2
                l(7) =   2
                l(8) =   3
     Q(r) pseudized with  6 coefficients,  rinner =    1.200   1.200   1.200
                                                       1.200   1.200   1.200
                                                       1.200

     PseudoPot. # 2 for Nb read from file:
     q-e/pseudo/nb_pbe_v1.uspp.F.UPF
     MD5 check sum: 573aab8a2fa660278ed4a62cd769473f
     Pseudo is Ultrasoft + core correction, Zval = 13.0
     Generated by new atomic code, or converted to UPF format
     Using radial grid of  887 points,  6 beta functions with: 
                l(1) =   0
                l(2) =   0
                l(3) =   1
                l(4) =   1
                l(5) =   2
                l(6) =   2
     Q(r) pseudized with  6 coefficients,  rinner =    1.000   1.000   1.000
                                                       1.000   1.000

     PseudoPot. # 3 for Ta read from file:
     q-e/pseudo/ta_pbe_v1.uspp.F.UPF
     MD5 check sum: f8bbe9446314a3b8ea5d9f3e3836c939
     Pseudo is Ultrasoft + core correction, Zval = 13.0
     Generated by new atomic code, or converted to UPF format
     Using radial grid of  921 points,  7 beta functions with: 
                l(1) =   0
                l(2) =   0
                l(3) =   1
                l(4) =   1
                l(5) =   2
                l(6) =   2
                l(7) =   3
     Q(r) pseudized with  6 coefficients,  rinner =    1.300   1.300   1.300
                                                       1.300   1.300   1.300
                                                       1.300

     PseudoPot. # 4 for Zr read from file:
     q-e/pseudo/zr_pbe_v1.uspp.F.UPF
     MD5 check sum: 5db81b1e868ab7776c4564c113de050b
     Pseudo is Ultrasoft + core correction, Zval = 12.0
     Generated by new atomic code, or converted to UPF format
     Using radial grid of  887 points,  6 beta functions with: 
                l(1) =   0
                l(2) =   0
                l(3) =   1
                l(4) =   1
                l(5) =   2
                l(6) =   2
     Q(r) pseudized with  6 coefficients,  rinner =    1.200   1.200   1.200
                                                       1.200   1.200

     PseudoPot. # 5 for H  read from file:
     q-e/pseudo/h_pbe_v1.4.uspp.F.UPF
     MD5 check sum: 761ae9a214b05c3daf00ab9f6b793d6f
     Pseudo is Ultrasoft, Zval =  1.0
     Generated by new atomic code, or converted to UPF format
     Using radial grid of  615 points,  2 beta functions with: 
                l(1) =   0
                l(2) =   0
     Q(r) pseudized with  8 coefficients,  rinner =    0.700

     atomic species   valence    mass     pseudopotential
        Hf            12.00   178.49000     Hf( 1.00)
        Nb            13.00    92.90637     Nb( 1.00)
        Ta            13.00   180.94788     Ta( 1.00)
        Zr            12.00    91.22400     Zr( 1.00)
        H              1.00     2.01400     H ( 1.00)

     Starting magnetic structure 
     atomic species   magnetization
        Hf           0.000
        Nb           0.000
        Ta           0.000
        Zr           0.000
        H            0.000

     No symmetry found



   Cartesian axes

     site n.     atom                  positions (alat units)
         1           Hf  tau(   1) = (   0.2858672   0.3026898   0.7070626  )
         2           Hf  tau(   2) = (   0.1341532   0.1377178   0.5415917  )
         3           Hf  tau(   3) = (   0.1344204   0.7911996   0.5447610  )
         4           Hf  tau(   4) = (   0.4375813   0.1377178   0.5415917  )
         5           Hf  tau(   5) = (   0.4373140   0.7911996   0.5447610  )
         6           Nb  tau(   6) = (   0.2858672   0.2994572   0.3764008  )
         7           Nb  tau(   7) = (   0.2858672   0.6291626   0.7103852  )
         8           Ta  tau(   8) = (   0.1294832   0.4647675   0.5429471  )
         9           Ta  tau(   9) = (   0.4422513   0.4647675   0.5429471  )
        10           Ta  tau(  10) = (   0.1399628   0.1406984   0.2204260  )
        11           Ta  tau(  11) = (   0.1394848   0.1400847   0.8666573  )
        12           Ta  tau(  12) = (   0.1396156   0.7897030   0.2190832  )
        13           Ta  tau(  13) = (   0.1400119   0.7885528   0.8657390  )
        14           Ta  tau(  14) = (   0.4317717   0.1406984   0.2204260  )
        15           Ta  tau(  15) = (   0.4322496   0.1400847   0.8666573  )
        16           Ta  tau(  16) = (   0.4321189   0.7897030   0.2190832  )
        17           Ta  tau(  17) = (   0.4317226   0.7885528   0.8657390  )
        18           Zr  tau(  18) = (   0.2858672   0.6280820   0.3776642  )
        19           Zr  tau(  19) = (   0.1331729   0.4627493   0.2141328  )
        20           Zr  tau(  20) = (   0.1328036   0.4661802   0.8725649  )
        21           Zr  tau(  21) = (   0.4385616   0.4627493   0.2141328  )
        22           Zr  tau(  22) = (   0.4389309   0.4661802   0.8725649  )
        23           H   tau(  23) = (   0.4976729   0.6437937   0.6464781  )

     number of k points=     1  Gaussian smearing, width (Ry)=  0.0220
                       cart. coord. in units 2pi/alat
        k(    1) = (   0.0000000   0.0000000   0.0000000), wk =   1.0000000

     Dense  grid:   493003 G-vectors     FFT dimensions: ( 125, 120, 135)

     Estimated max dynamical RAM per process >     133.03 MB

     Estimated total dynamical RAM >       5.46 GB

     Check: negative core charge=   -0.000002
     Generating pointlists ...
     new r_m :   0.0780 (alat units)  1.3760 (a.u.) for type    1
     new r_m :   0.0915 (alat units)  1.6143 (a.u.) for type    2
     new r_m :   0.0883 (alat units)  1.5588 (a.u.) for type    3
     new r_m :   0.1112 (alat units)  1.9625 (a.u.) for type    4
     new r_m :   0.0780 (alat units)  1.3760 (a.u.) for type    5

     Initial potential from superposition of free atoms

     starting charge     266.9726, renormalised to     277.0000

     negative rho (up, down):  9.215E-01 9.215E-01
     Starting wfcs are  287 randomized atomic wfcs

     total cpu time spent up to now is       12.4 secs

     Self-consistent Calculation

     iteration #  1     ecut=   120.00 Ry     beta= 0.70
     Davidson diagonalization with overlap
     ethr =  1.00E-02,  avg # of iterations =  2.0

     negative rho (up, down):  9.951E-01 9.947E-01

     total cpu time spent up to now is       30.5 secs

     total energy              =   -2930.63011233 Ry
     estimated scf accuracy    <     276.40208455 Ry

     total magnetization       =    -0.00 Bohr mag/cell
     absolute magnetization    =     0.09 Bohr mag/cell

     iteration #  2     ecut=   120.00 Ry     beta= 0.70
     Davidson diagonalization with overlap
     ethr =  1.00E-02,  avg # of iterations =  5.0

     negative rho (up, down):  9.689E-01 9.691E-01

     total cpu time spent up to now is       64.9 secs

     total energy              =   -2942.31447921 Ry
     estimated scf accuracy    <      28.99362127 Ry

     total magnetization       =    -0.01 Bohr mag/cell
     absolute magnetization    =     0.26 Bohr mag/cell

     iteration #  3     ecut=   120.00 Ry     beta= 0.70
     Davidson diagonalization with overlap
     ethr =  1.00E-02,  avg # of iterations =  2.0

     negative rho (up, down):  1.000E+00 1.004E+00

     total cpu time spent up to now is      102.6 secs

     total energy              =   -2942.55210621 Ry
     estimated scf accuracy    <      13.27563544 Ry

     total magnetization       =     0.01 Bohr mag/cell
     absolute magnetization    =     0.37 Bohr mag/cell

     iteration #  4     ecut=   120.00 Ry     beta= 0.70
     Davidson diagonalization with overlap
     ethr =  4.79E-03,  avg # of iterations =  4.0

     negative rho (up, down):  1.003E+00 1.006E+00

     total cpu time spent up to now is      128.1 secs

     total energy              =   -2942.94211975 Ry
     estimated scf accuracy    <       2.94871228 Ry

     total magnetization       =     0.11 Bohr mag/cell
     absolute magnetization    =     0.36 Bohr mag/cell

     iteration #  5     ecut=   120.00 Ry     beta= 0.70
     Davidson diagonalization with overlap
     ethr =  1.06E-03,  avg # of iterations =  8.0

     negative rho (up, down):  9.792E-01 9.803E-01

     total cpu time spent up to now is      149.1 secs

     total energy              =   -2943.07394197 Ry
     estimated scf accuracy    <       1.33578940 Ry

     total magnetization       =     0.05 Bohr mag/cell
     absolute magnetization    =     0.19 Bohr mag/cell

     iteration #  6     ecut=   120.00 Ry     beta= 0.70
     Davidson diagonalization with overlap
     ethr =  4.82E-04,  avg # of iterations =  2.0

     negative rho (up, down):  9.696E-01 9.700E-01

     total cpu time spent up to now is      164.9 secs

     total energy              =   -2943.09819178 Ry
     estimated scf accuracy    <       1.25239676 Ry

     total magnetization       =     0.04 Bohr mag/cell
     absolute magnetization    =     0.14 Bohr mag/cell

     iteration #  7     ecut=   120.00 Ry     beta= 0.70
     Davidson diagonalization with overlap
     ethr =  4.52E-04,  avg # of iterations =  2.0

     negative rho (up, down):  9.435E-01 9.433E-01

     total cpu time spent up to now is      180.7 secs

     total energy              =   -2943.04835287 Ry
     estimated scf accuracy    <       0.37698159 Ry

     total magnetization       =     0.04 Bohr mag/cell
     absolute magnetization    =     0.12 Bohr mag/cell

     iteration #  8     ecut=   120.00 Ry     beta= 0.70
     Davidson diagonalization with overlap
     ethr =  1.36E-04,  avg # of iterations =  7.0

     negative rho (up, down):  9.222E-01 9.217E-01

     total cpu time spent up to now is      198.2 secs

     total energy              =   -2943.05042533 Ry
     estimated scf accuracy    <       0.31755071 Ry

     total magnetization       =     0.04 Bohr mag/cell
     absolute magnetization    =     0.10 Bohr mag/cell

     iteration #  9     ecut=   120.00 Ry     beta= 0.70
     Davidson diagonalization with overlap
     ethr =  1.15E-04,  avg # of iterations =  2.0

     negative rho (up, down):  9.105E-01 9.102E-01

     total cpu time spent up to now is      231.8 secs

     total energy              =   -2943.05264629 Ry
     estimated scf accuracy    <       0.07036244 Ry

     total magnetization       =     0.03 Bohr mag/cell
     absolute magnetization    =     0.08 Bohr mag/cell

     iteration # 10     ecut=   120.00 Ry     beta= 0.70
     Davidson diagonalization with overlap
     ethr =  2.54E-05,  avg # of iterations = 14.0

     negative rho (up, down):  9.081E-01 9.081E-01

     total cpu time spent up to now is      276.1 secs

     total energy              =   -2943.05390349 Ry
     estimated scf accuracy    <       0.04595401 Ry

     total magnetization       =     0.03 Bohr mag/cell
     absolute magnetization    =     0.06 Bohr mag/cell

     iteration # 11     ecut=   120.00 Ry     beta= 0.70
     Davidson diagonalization with overlap
     ethr =  1.66E-05,  avg # of iterations =  2.0

     negative rho (up, down):  9.090E-01 9.090E-01

     total cpu time spent up to now is      294.0 secs

     total energy              =   -2943.05826437 Ry
     estimated scf accuracy    <       0.01083874 Ry

     total magnetization       =     0.02 Bohr mag/cell
     absolute magnetization    =     0.05 Bohr mag/cell

     iteration # 12     ecut=   120.00 Ry     beta= 0.70
     Davidson diagonalization with overlap
     ethr =  3.91E-06,  avg # of iterations = 10.0

     negative rho (up, down):  9.091E-01 9.091E-01

     total cpu time spent up to now is      312.8 secs

     total energy              =   -2943.06126476 Ry
     estimated scf accuracy    <       0.00170513 Ry

     total magnetization       =     0.02 Bohr mag/cell
     absolute magnetization    =     0.04 Bohr mag/cell

     iteration # 13     ecut=   120.00 Ry     beta= 0.70
     Davidson diagonalization with overlap
     ethr =  6.16E-07,  avg # of iterations =  6.0

     negative rho (up, down):  9.089E-01 9.089E-01

     Magnetic moment per site  (integrated on atomic sphere of radius R)
     atom   1 (R=0.078)  charge=  6.4152  magn= -0.0000
     atom   2 (R=0.078)  charge=  6.3300  magn=  0.0000
     atom   3 (R=0.078)  charge=  6.3296  magn= -0.0000
     atom   4 (R=0.078)  charge=  6.3296  magn=  0.0000
     atom   5 (R=0.078)  charge=  6.3454  magn= -0.0000
     atom   6 (R=0.091)  charge=  8.7374  magn=  0.0001
     atom   7 (R=0.091)  charge=  8.7449  magn=  0.0001
     atom   8 (R=0.088)  charge=  8.1236  magn= -0.0001
     atom   9 (R=0.088)  charge=  8.1311  magn= -0.0001
     atom  10 (R=0.088)  charge=  8.1035  magn=  0.0005
     atom  11 (R=0.088)  charge=  8.1030  magn=  0.0008
     atom  12 (R=0.088)  charge=  8.1055  magn=  0.0012
     atom  13 (R=0.088)  charge=  8.1032  magn=  0.0001
     atom  14 (R=0.088)  charge=  8.1043  magn= -0.0000
     atom  15 (R=0.088)  charge=  8.0977  magn=  0.0004
     atom  16 (R=0.088)  charge=  8.1031  magn=  0.0008
     atom  17 (R=0.088)  charge=  8.1061  magn= -0.0003
     atom  18 (R=0.111)  charge=  9.4514  magn= -0.0000
     atom  19 (R=0.111)  charge=  9.0024  magn=  0.0016
     atom  20 (R=0.111)  charge=  8.9953  magn=  0.0007
     atom  21 (R=0.111)  charge=  9.0005  magn=  0.0008
     atom  22 (R=0.111)  charge=  9.0024  magn= -0.0003
     atom  23 (R=0.078)  charge=  1.0519  magn= -0.0000

     total cpu time spent up to now is      331.2 secs

     End of self-consistent calculation

 ------ SPIN UP ------------


          k = 0.0000 0.0000 0.0000 ( 61588 PWs)   bands (ev):

   -60.8006 -60.7548 -60.7492 -60.7100 -60.6798 -60.6697 -60.6354 -60.6256
   -60.5748 -60.5319 -54.3586 -54.2758 -54.2274 -54.0982 -52.6981 -46.3911
   -46.2295 -41.6730 -41.6254 -41.5603 -41.5243 -39.7707 -27.7880 -27.7536
   -27.6979 -27.6690 -27.6062 -27.5674 -27.4602 -27.4393 -27.4240 -27.3606
   -27.3063 -27.2786 -27.2454 -27.2374 -27.2063 -27.1823 -27.1748 -27.1495
   -27.1432 -27.1223 -27.1102 -27.0703 -26.9723 -26.9415 -26.9312 -26.9115
   -26.8812 -26.8567 -26.8312 -26.8258 -24.1500 -23.9370 -23.6457 -23.5355
   -23.2849 -23.1973 -23.1263 -23.0638 -22.8952 -22.8064 -22.7987 -22.5859
   -22.5686 -22.4505 -22.4270 -22.3911 -22.2638 -22.2272 -21.7575 -21.6970
   -21.6232 -20.1844 -19.9621 -19.8275 -19.8178 -19.7011 -19.6213 -19.6019
   -19.5902 -19.5707 -19.5332 -19.3748 -19.3599 -18.1211 -17.9160 -17.7875
     0.2486   1.8620   2.9460   3.1303   3.3023   3.3598   3.5084   3.6111
     3.6738   3.8011   3.9096   4.0667   4.0989   4.5089   4.5907   4.7049
     4.7284   4.8845   5.0499   5.1203   5.2663   5.2743   5.2991   5.3868
     5.4496   5.5319   5.5658   5.6960   5.7329   5.7570   5.7738   5.8467
     5.9900   6.0615   6.1780   6.2144   6.2810   6.3225   6.3641   6.4318
     6.4417   6.5840   6.6686   6.7081   6.9073   6.9882   7.0289   7.1247
     7.1377   7.1615   7.2815   7.3124   7.4045   7.4923   7.5545   7.5937
     7.6279   7.8380   7.9004   7.9710   8.0541   8.0958   8.1172   8.1951
     8.2323   8.2761   8.3452   8.3734   8.4490   8.5480   8.6366   8.7021
     8.8551   8.9276   8.9726   9.0525   9.0754   9.2147   9.2740

 ------ SPIN DOWN ----------


          k = 0.0000 0.0000 0.0000 ( 61588 PWs)   bands (ev):

   -60.8008 -60.7542 -60.7492 -60.7094 -60.6790 -60.6692 -60.6345 -60.6251
   -60.5751 -60.5321 -54.3587 -54.2758 -54.2274 -54.0983 -52.6981 -46.3910
   -46.2295 -41.6731 -41.6241 -41.5597 -41.5230 -39.7709 -27.7879 -27.7527
   -27.6976 -27.6680 -27.6061 -27.5667 -27.4602 -27.4383 -27.4235 -27.3610
   -27.3056 -27.2786 -27.2446 -27.2371 -27.2055 -27.1823 -27.1746 -27.1494
   -27.1425 -27.1220 -27.1104 -27.0707 -26.9724 -26.9412 -26.9303 -26.9105
   -26.8805 -26.8555 -26.8302 -26.8254 -24.1500 -23.9371 -23.6457 -23.5357
   -23.2848 -23.1974 -23.1264 -23.0637 -22.8953 -22.8066 -22.7989 -22.5859
   -22.5687 -22.4506 -22.4272 -22.3911 -22.2638 -22.2272 -21.7575 -21.6969
   -21.6231 -20.1831 -19.9620 -19.8261 -19.8165 -19.7012 -19.6214 -19.6012
   -19.5894 -19.5692 -19.5325 -19.3744 -19.3580 -18.1212 -17.9159 -17.7876
     0.2484   1.8623   2.9468   3.1305   3.3022   3.3602   3.5088   3.6111
     3.6739   3.8013   3.9104   4.0669   4.0995   4.5091   4.5909   4.7054
     4.7290   4.8850   5.0504   5.1206   5.2666   5.2748   5.2992   5.3876
     5.4498   5.5322   5.5661   5.6963   5.7330   5.7576   5.7745   5.8470
     5.9903   6.0620   6.1785   6.2149   6.2813   6.3230   6.3644   6.4324
     6.4422   6.5842   6.6693   6.7088   6.9080   6.9891   7.0308   7.1271
     7.1396   7.1623   7.2837   7.3128   7.4065   7.4946   7.5558   7.5946
     7.6294   7.8383   7.9008   7.9712   8.0549   8.0968   8.1178   8.1970
     8.2336   8.2764   8.3475   8.3748   8.4499   8.5486   8.6372   8.7026
     8.8559   8.9299   8.9730   9.0531   9.0758   9.2152   9.2751

     the Fermi energy is     7.2756 ev

!    total energy              =   -2943.06231816 Ry
     estimated scf accuracy    <       0.00057416 Ry
     smearing contrib. (-TS)   =      -0.10021009 Ry
     internal energy E=F+TS    =   -2942.96210807 Ry

     total magnetization       =     0.02 Bohr mag/cell
     absolute magnetization    =     0.04 Bohr mag/cell

     convergence has been achieved in  13 iterations

     negative rho (up, down):  9.089E-01 9.089E-01

     Forces acting on atoms (cartesian axes, Ry/au):

     atom    1 type  1   force =     0.00211413   -0.02489019    0.00022664
     atom    2 type  1   force =    -0.11858540   -0.01348123   -0.00298225
     atom    3 type  1   force =    -0.11124376    0.00999044    0.00350975
     atom    4 type  1   force =     0.12170515   -0.00839729   -0.00230692
     atom    5 type  1   force =     0.07900982    0.07853608   -0.06562845
     atom    6 type  2   force =    -0.00006329   -0.01786845    0.01309095
     atom    7 type  2   force =    -0.01299500    0.01543677   -0.02845194
     atom    8 type  3   force =    -0.10301471    0.00227551   -0.00388288
     atom    9 type  3   force =     0.10240653   -0.00259414   -0.02310312
     atom   10 type  3   force =    -0.02299388   -0.03073473   -0.05901514
     atom   11 type  3   force =    -0.02342579   -0.03543457    0.05487533
     atom   12 type  3   force =    -0.01725131    0.03434918   -0.05267866
     atom   13 type  3   force =    -0.00355298    0.03152157    0.06611798
     atom   14 type  3   force =     0.02062356   -0.03085858   -0.05673511
     atom   15 type  3   force =     0.02204056   -0.03789601    0.06232211
     atom   16 type  3   force =     0.01870428    0.03783298   -0.05532912
     atom   17 type  3   force =     0.00925305    0.04956496    0.06665044
     atom   18 type  4   force =    -0.00285397    0.02198050   -0.01175683
     atom   19 type  4   force =    -0.12729084   -0.00525555   -0.11600453
     atom   20 type  4   force =    -0.12020503    0.00572000    0.12286450
     atom   21 type  4   force =     0.12670756   -0.00648285   -0.11411370
     atom   22 type  4   force =     0.12146444   -0.00631230    0.12695772
     atom   23 type  5   force =     0.03944688   -0.06700212    0.07537323
     The non-local contrib.  to forces
     atom    1 type  1   force =     0.00517216   -0.00955563    0.02659515
     atom    2 type  1   force =    -0.24876156   -0.15977044    0.01635709
     atom    3 type  1   force =    -0.23553397    0.15006958   -0.01361762
     atom    4 type  1   force =     0.24349132   -0.17639179    0.02037375
     atom    5 type  1   force =     0.20602299    0.17192539   -0.02728535
     atom    6 type  2   force =     0.00161298   -0.04362357   -0.06309835
     atom    7 type  2   force =     0.00936895    0.05245254    0.09052904
     atom    8 type  3   force =    -0.25480260    0.00718960    0.00404621
     atom    9 type  3   force =     0.24575259    0.03791366    0.03180339
     atom   10 type  3   force =    -0.21167785    0.00982248   -0.20607675
     atom   11 type  3   force =    -0.21967613    0.00515746    0.19364639
     atom   12 type  3   force =    -0.20370002   -0.02578501   -0.17751508
     atom   13 type  3   force =    -0.19970295   -0.00959493    0.19793781
     atom   14 type  3   force =     0.21407417    0.00415359   -0.20712620
     atom   15 type  3   force =     0.22404680    0.00949202    0.18804126
     atom   16 type  3   force =     0.20203703   -0.02099999   -0.18230653
     atom   17 type  3   force =     0.23908206   -0.04298819    0.14375218
     atom   18 type  4   force =    -0.00013099    0.05482913   -0.06196557
     atom   19 type  4   force =     0.06224573    0.01197135    0.07530247
     atom   20 type  4   force =     0.05362779   -0.01847815   -0.06787028
     atom   21 type  4   force =    -0.05866515    0.01626139    0.07422760
     atom   22 type  4   force =    -0.06156005   -0.01550484   -0.05611139
     atom   23 type  5   force =    -0.03525218    0.00788566   -0.02254301
     The ionic contribution  to forces
     atom    1 type  1   force =    -0.21460128   -4.79819872   14.02152357
     atom    2 type  1   force =   -39.75457536   -6.07871978    0.72339639
     atom    3 type  1   force =   -39.90585882    6.23938284   -0.83066129
     atom    4 type  1   force =    39.59425130   -5.99964753    0.66399896
     atom    5 type  1   force =    38.95604430    7.71753021   -1.85749659
     atom    6 type  2   force =    -0.12651468   -3.63879489  -14.01733125
     atom    7 type  2   force =    -1.53968500    3.44983733   14.35313334
     atom    8 type  3   force =   -52.33006405   -0.08473446   -0.17868932
     atom    9 type  3   force =    51.61750043   -1.36379786   -0.92737579
     atom   10 type  3   force =   -36.08690350   -2.06681194  -23.07672652
     atom   11 type  3   force =   -35.19928867   -0.80601326   22.12116074
     atom   12 type  3   force =   -35.30261362    0.82790882  -22.16632816
     atom   13 type  3   force =   -36.22217554    2.27359432   23.19160712
     atom   14 type  3   force =    36.01101710   -2.05473118  -23.11636998
     atom   15 type  3   force =    35.05893981   -0.75874786   22.20765353
     atom   16 type  3   force =    35.17101546    0.88143309  -22.29395910
     atom   17 type  3   force =    35.75229346    2.71538036   23.86980693
     atom   18 type  4   force =    -0.34789318    4.30593244  -14.26530521
     atom   19 type  4   force =   -35.94330853    0.91198374  -25.54953125
     atom   20 type  4   force =   -36.02277319   -1.05469590   25.60840879
     atom   21 type  4   force =    35.83873301    0.85937373  -25.65029142
     atom   22 type  4   force =    35.69436327   -1.42727548   26.09327383
     atom   23 type  5   force =     5.30209729   -0.05018804    1.07610269
     The local contribution  to forces
     atom    1 type  1   force =     0.20667544    4.78722315  -14.05193742
     atom    2 type  1   force =    39.90261114    6.22523150   -0.74618936
     atom    3 type  1   force =    40.04479047   -6.38078117    0.84456471
     atom    4 type  1   force =   -39.73773571    6.17042259   -0.69535444
     atom    5 type  1   force =   -39.09693016   -7.80923144    1.81411417
     atom    6 type  2   force =     0.12537892    3.67388735   14.07507027
     atom    7 type  2   force =     1.51083554   -3.49304318  -14.47037989
     atom    8 type  3   force =    52.50899039    0.07908224    0.16246693
     atom    9 type  3   force =   -51.78560314    1.32162408    0.86210215
     atom   10 type  3   force =    36.29800338    2.02502216   23.24011451
     atom   11 type  3   force =    35.41479156    0.76163762  -22.27811358
     atom   12 type  3   force =    35.50836108   -0.76455008   22.30638102
     atom   13 type  3   force =    36.43371788   -2.22819461  -23.33895065
     atom   14 type  3   force =   -36.22609689    2.01841104   23.28462371
     atom   15 type  3   force =   -35.29171947    0.71262537  -22.35210589
     atom   16 type  3   force =   -35.37603353   -0.81923611   22.43805376
     atom   17 type  3   force =   -36.00948649   -2.62533604  -23.95868449
     atom   18 type  4   force =     0.34401907   -4.34703759   14.29871506
     atom   19 type  4   force =    35.76729059   -0.92999233   25.36968083
     atom   20 type  4   force =    35.85684405    1.07794997  -25.42723028
     atom   21 type  4   force =   -35.66770317   -0.88381250   25.47426976
     atom   22 type  4   force =   -35.52360330    1.43618118  -25.91865004
     atom   23 type  5   force =    -5.22756157   -0.02553925   -0.97929215
     The core correction contribution to forces
     atom    1 type  1   force =     0.00014555    0.00183506   -0.00050012
     atom    2 type  1   force =    -0.01148143   -0.00131750    0.00038245
     atom    3 type  1   force =    -0.01081710    0.00335912   -0.00072600
     atom    4 type  1   force =     0.01303801   -0.00332827    0.00066483
     atom    5 type  1   force =     0.00730208    0.00086084   -0.00199875
     atom    6 type  2   force =    -0.00019092    0.00211317    0.00256613
     atom    7 type  2   force =     0.00068658   -0.00271543   -0.00420502
     atom    8 type  3   force =    -0.03078944    0.00014804    0.00096154
     atom    9 type  3   force =     0.02721421   -0.00097607    0.00062071
     atom   10 type  3   force =    -0.02290301    0.00921418   -0.01624639
     atom   11 type  3   force =    -0.02351311    0.00921488    0.01677804
     atom   12 type  3   force =    -0.02128890   -0.00974810   -0.01581726
     atom   13 type  3   force =    -0.02030093   -0.01002623    0.01576778
     atom   14 type  3   force =     0.02148763    0.00987862   -0.01600487
     atom   15 type  3   force =     0.02389600    0.00947579    0.01746518
     atom   16 type  3   force =     0.02156122   -0.00870734   -0.01628089
     atom   17 type  3   force =     0.02287424   -0.01057928    0.01209294
     atom   18 type  4   force =     0.00001069   -0.00303665    0.00290405
     atom   19 type  4   force =    -0.00979042   -0.00013233   -0.00974247
     atom   20 type  4   force =    -0.00938950    0.00065641    0.00937125
     atom   21 type  4   force =     0.00951873   -0.00034969   -0.00965854
     atom   22 type  4   force =     0.01019537    0.00093407    0.00805601
     atom   23 type  5   force =     0.00000000    0.00000000    0.00000000
     The Hubbard contrib.    to forces
     atom    1 type  1   force =     0.00000000    0.00000000    0.00000000
     atom    2 type  1   force =     0.00000000    0.00000000    0.00000000
     atom    3 type  1   force =     0.00000000    0.00000000    0.00000000
     atom    4 type  1   force =     0.00000000    0.00000000    0.00000000
     atom    5 type  1   force =     0.00000000    0.00000000    0.00000000
     atom    6 type  2   force =     0.00000000    0.00000000    0.00000000
     atom    7 type  2   force =     0.00000000    0.00000000    0.00000000
     atom    8 type  3   force =     0.00000000    0.00000000    0.00000000
     atom    9 type  3   force =     0.00000000    0.00000000    0.00000000
     atom   10 type  3   force =     0.00000000    0.00000000    0.00000000
     atom   11 type  3   force =     0.00000000    0.00000000    0.00000000
     atom   12 type  3   force =     0.00000000    0.00000000    0.00000000
     atom   13 type  3   force =     0.00000000    0.00000000    0.00000000
     atom   14 type  3   force =     0.00000000    0.00000000    0.00000000
     atom   15 type  3   force =     0.00000000    0.00000000    0.00000000
     atom   16 type  3   force =     0.00000000    0.00000000    0.00000000
     atom   17 type  3   force =     0.00000000    0.00000000    0.00000000
     atom   18 type  4   force =     0.00000000    0.00000000    0.00000000
     atom   19 type  4   force =     0.00000000    0.00000000    0.00000000
     atom   20 type  4   force =     0.00000000    0.00000000    0.00000000
     atom   21 type  4   force =     0.00000000    0.00000000    0.00000000
     atom   22 type  4   force =     0.00000000    0.00000000    0.00000000
     atom   23 type  5   force =     0.00000000    0.00000000    0.00000000
     The SCF correction term to forces
     atom    1 type  1   force =     0.00449986   -0.00616853    0.00396749
     atom    2 type  1   force =    -0.00660058    0.00112050    0.00249322
     atom    3 type  1   force =    -0.00404673   -0.00201442    0.00337199
     atom    4 type  1   force =     0.00843785    0.00057323    0.00743201
     atom    5 type  1   force =     0.00634823   -0.00252339    0.00646011
     atom    6 type  2   force =    -0.00057198   -0.01142499    0.01530618
     atom    7 type  2   force =     0.00557654    0.00893103    0.00189264
     atom    8 type  3   force =     0.00342859    0.00061561    0.00675381
     atom    9 type  3   force =    -0.00267994    0.00266756    0.00916847
     atom   10 type  3   force =     0.00026470   -0.00795608   -0.00065795
     atom   11 type  3   force =     0.00403817   -0.00540575    0.00082578
     atom   12 type  3   force =     0.00176777    0.00654907    0.00002286
     atom   13 type  3   force =     0.00468618    0.00576854   -0.00082204
     atom   14 type  3   force =    -0.00008083   -0.00854513   -0.00243573
     atom   15 type  3   force =     0.00665504   -0.01071581    0.00069006
     atom   16 type  3   force =    -0.00009828    0.00536884   -0.00141431
     atom   17 type  3   force =     0.00426739    0.01311364   -0.00089508
     atom   18 type  4   force =     0.00091806    0.01131869    0.01331687
     atom   19 type  4   force =    -0.00395059    0.00093955   -0.00229208
     atom   20 type  4   force =     0.00126344    0.00031319   -0.00039294
     atom   21 type  4   force =     0.00460176    0.00206975   -0.00323906
     atom   22 type  4   force =     0.00184676   -0.00062171   -0.00018864
     atom   23 type  5   force =    -0.00005905    0.00086503    0.00052774

     Total force =     0.505589     Total SCF correction =     0.045285


     Computing stress (Cartesian axis) and pressure


     negative rho (up, down):  9.089E-01 9.089E-01
          total   stress  (Ry/bohr**3)                   (kbar)     P=       87.47
   0.00062979  -0.00001014   0.00001711           92.65       -1.49        2.52
  -0.00001014   0.00072413  -0.00002151           -1.49      106.52       -3.16
   0.00001711  -0.00002151   0.00042984            2.52       -3.16       63.23


     Molecular Dynamics Calculation

     Starting temperature  =   300.00 K

     temperature is set once at start

     mass Hf               =   178.49
     mass Nb               =    92.91
     mass Ta               =   180.95
     mass Zr               =    91.22
     mass H                =     2.01
     Time step             =     4.20 a.u.,  0.2032 femto-seconds

     Entering Dynamics:    iteration =     1
                           time      =   0.0002 pico-seconds


ATOMIC_POSITIONS (angstrom)
Hf            2.6700325536        2.8272274683        6.6040249357
Hf            1.2530198140        1.2863889479        5.0585268512
Hf            1.2555162430        7.3899097347        5.0881285787
Hf            4.0870452614        1.2863890937        5.0585268705
Hf            4.0845478181        7.3899117012        5.0881265952
Nb            2.6700324895        2.7970347739        3.5156446489
Nb            2.6700317767        5.8764846804        6.6350570856
Ta            1.2094026766        4.3410330692        5.0711864330
Ta            4.1306622921        4.3410329314        5.0711858891
Ta            1.3072845693        1.3142268728        2.0588381506
Ta            1.3028201872        1.3084952864        8.0946414660
Ta            1.3040416699        7.3759322494        2.0462963996
Ta            1.3077432338        7.3651889937        8.0860648025
Ta            4.0327803495        1.3142268693        2.0588382151
Ta            4.0372447595        1.3084952168        8.0946416767
Ta            4.0360233572        7.3759323480        2.0462963246
Ta            4.0323219134        7.3651895043        8.0860648176
Zr            2.6700323328        5.8663922305        3.5274439810
Zr            1.2438600095        4.3221828227        2.0000541987
Zr            1.2404112010        4.3542287588        8.1498231569
Zr            4.0962049436        4.3221827538        2.0000543049
Zr            4.0996538556        4.3542280834        8.1498233866
H             4.5943455053        5.8382753696        5.9374989169


     kinetic energy (Ekin) =           8.09837954 Ry
     temperature           =       38746.45454354 K 
     Ekin + Etot (const)   =       -2934.96393862 Ry
     Ions kinetic stress =          143.03 (kbar)
                                     28.75          92.90          53.64
                                     92.90         300.25         173.35
                                     53.64         173.35         100.08



     Linear momentum :    0.0000000000   -0.0000000000   -0.0000000000

     File outdir/pwscf.msd.dat deleted, as requested

     Writing config-only to output data dir outdir/pwscf.save/
     NEW-OLD atomic charge density approx. for the potential

     Check: negative core charge=   -0.000002

     negative rho (up, down):  9.088E-01 9.088E-01
     Generating pointlists ...
     new r_m :   0.0904 (alat units)  1.5958 (a.u.) for type    2
     new r_m :   0.0791 (alat units)  1.3960 (a.u.) for type    3

     total cpu time spent up to now is      355.7 secs

     Self-consistent Calculation

     iteration #  1     ecut=   120.00 Ry     beta= 0.70
     Davidson diagonalization with overlap
     ethr =  1.00E-06,  avg # of iterations =  6.0

     negative rho (up, down):  9.090E-01 9.090E-01

     total cpu time spent up to now is      387.3 secs

     total energy              =   -2943.04992155 Ry
     estimated scf accuracy    <       0.07434920 Ry

     total magnetization       =     0.02 Bohr mag/cell
     absolute magnetization    =     0.03 Bohr mag/cell

     iteration #  2     ecut=   120.00 Ry     beta= 0.70
     Davidson diagonalization with overlap
     ethr =  2.68E-05,  avg # of iterations =  2.0

     negative rho (up, down):  9.089E-01 9.089E-01

     total cpu time spent up to now is      403.3 secs

     total energy              =   -2943.05554445 Ry
     estimated scf accuracy    <       0.04288359 Ry

     total magnetization       =     0.02 Bohr mag/cell
     absolute magnetization    =     0.03 Bohr mag/cell

     iteration #  3     ecut=   120.00 Ry     beta= 0.70
     Davidson diagonalization with overlap
     ethr =  1.55E-05,  avg # of iterations =  1.0

     negative rho (up, down):  9.089E-01 9.089E-01

     total cpu time spent up to now is      417.4 secs

     total energy              =   -2943.05784733 Ry
     estimated scf accuracy    <       0.00191011 Ry

     total magnetization       =     0.02 Bohr mag/cell
     absolute magnetization    =     0.03 Bohr mag/cell

     iteration #  4     ecut=   120.00 Ry     beta= 0.70
     Davidson diagonalization with overlap
     ethr =  6.90E-07,  avg # of iterations =  2.0

     negative rho (up, down):  9.090E-01 9.090E-01

     Magnetic moment per site  (integrated on atomic sphere of radius R)
     atom   1 (R=0.078)  charge=  6.4152  magn=  0.0000
     atom   2 (R=0.078)  charge=  6.3293  magn=  0.0000
     atom   3 (R=0.078)  charge=  6.3292  magn=  0.0000
     atom   4 (R=0.078)  charge=  6.3289  magn=  0.0000
     atom   5 (R=0.078)  charge=  6.3410  magn=  0.0000
     atom   6 (R=0.090)  charge=  8.6330  magn=  0.0000
     atom   7 (R=0.090)  charge=  8.6366  magn=  0.0001
     atom   8 (R=0.079)  charge=  7.1110  magn= -0.0000
     atom   9 (R=0.079)  charge=  7.1269  magn= -0.0000
     atom  10 (R=0.079)  charge=  7.0972  magn=  0.0003
     atom  11 (R=0.079)  charge=  7.0952  magn=  0.0005
     atom  12 (R=0.079)  charge=  7.0978  magn=  0.0007
     atom  13 (R=0.079)  charge=  7.0953  magn=  0.0002
     atom  14 (R=0.079)  charge=  7.0973  magn=  0.0000
     atom  15 (R=0.079)  charge=  7.0979  magn=  0.0002
     atom  16 (R=0.079)  charge=  7.0975  magn=  0.0004
     atom  17 (R=0.079)  charge=  7.1022  magn= -0.0002
     atom  18 (R=0.111)  charge=  9.4534  magn= -0.0000
     atom  19 (R=0.111)  charge=  8.9915  magn=  0.0012
     atom  20 (R=0.111)  charge=  8.9911  magn=  0.0006
     atom  21 (R=0.111)  charge=  8.9892  magn=  0.0005
     atom  22 (R=0.111)  charge=  8.9965  magn= -0.0002
     atom  23 (R=0.078)  charge=  1.0999  magn= -0.0000

     total cpu time spent up to now is      434.7 secs

     End of self-consistent calculation

 ------ SPIN UP ------------


          k = 0.0000 0.0000 0.0000 ( 61588 PWs)   bands (ev):

   -60.7840 -60.7463 -60.7323 -60.7009 -60.6726 -60.6710 -60.6272 -60.6141
   -60.5555 -60.4608 -54.3458 -54.2651 -54.2198 -54.1367 -52.6855 -46.3748
   -46.2355 -41.6515 -41.5942 -41.5393 -41.4935 -39.7805 -27.7784 -27.7456
   -27.6850 -27.6612 -27.5915 -27.5558 -27.4402 -27.4296 -27.4109 -27.3405
   -27.2967 -27.2620 -27.2362 -27.2260 -27.2020 -27.1640 -27.1590 -27.1356
   -27.1246 -27.1042 -27.0687 -27.0267 -26.9580 -26.9361 -26.9223 -26.9039
   -26.8699 -26.8484 -26.8241 -26.8189 -24.1453 -23.9354 -23.6404 -23.5320
   -23.2736 -23.1892 -23.1246 -23.0492 -22.8909 -22.8090 -22.8068 -22.5796
   -22.5677 -22.4499 -22.4178 -22.3990 -22.2577 -22.2230 -21.7445 -21.6840
   -21.6116 -20.1580 -19.9397 -19.7959 -19.7940 -19.6793 -19.6021 -19.5814
   -19.5623 -19.5445 -19.5143 -19.3525 -19.3271 -18.1295 -17.9203 -17.7906
     0.1180   1.8527   2.9546   3.1409   3.3475   3.3717   3.5139   3.6218
     3.6798   3.8094   3.9197   4.0862   4.1355   4.5158   4.6099   4.7171
     4.7430   4.9086   5.0525   5.1278   5.2655   5.2813   5.3094   5.3946
     5.4240   5.5315   5.5757   5.7025   5.7452   5.7707   5.7859   5.8735
     6.0107   6.0729   6.1904   6.2255   6.2921   6.3418   6.3789   6.4335
     6.4574   6.5989   6.6780   6.7198   6.9144   7.0048   7.0398   7.1260
     7.1458   7.1704   7.2892   7.3143   7.4085   7.5057   7.5697   7.5941
     7.6342   7.8633   7.9082   7.9534   8.0568   8.1098   8.1285   8.1982
     8.2512   8.2885   8.3655   8.3891   8.4681   8.5597   8.6435   8.7036
     8.8660   8.9310   8.9377   9.0633   9.0897   9.2450   9.2825

 ------ SPIN DOWN ----------


          k = 0.0000 0.0000 0.0000 ( 61588 PWs)   bands (ev):

   -60.7841 -60.7459 -60.7322 -60.7004 -60.6721 -60.6707 -60.6266 -60.6135
   -60.5556 -60.4608 -54.3458 -54.2651 -54.2198 -54.1367 -52.6855 -46.3747
   -46.2355 -41.6516 -41.5934 -41.5389 -41.4927 -39.7805 -27.7782 -27.7450
   -27.6847 -27.6604 -27.5914 -27.5553 -27.4398 -27.4289 -27.4107 -27.3406
   -27.2963 -27.2619 -27.2357 -27.2258 -27.2015 -27.1637 -27.1589 -27.1349
   -27.1243 -27.1040 -27.0687 -27.0268 -26.9580 -26.9358 -26.9217 -26.9031
   -26.8692 -26.8476 -26.8234 -26.8184 -24.1453 -23.9354 -23.6403 -23.5320
   -23.2736 -23.1891 -23.1246 -23.0492 -22.8909 -22.8090 -22.8068 -22.5796
   -22.5677 -22.4499 -22.4177 -22.3988 -22.2576 -22.2229 -21.7445 -21.6840
   -21.6116 -20.1572 -19.9397 -19.7950 -19.7931 -19.6794 -19.6022 -19.5807
   -19.5615 -19.5437 -19.5138 -19.3522 -19.3260 -18.1295 -17.9203 -17.7905
     0.1180   1.8531   2.9553   3.1411   3.3476   3.3723   3.5143   3.6219
     3.6800   3.8097   3.9206   4.0866   4.1359   4.5161   4.6101   4.7176
     4.7435   4.9091   5.0531   5.1281   5.2659   5.2818   5.3096   5.3953
     5.4245   5.5318   5.5761   5.7029   5.7455   5.7713   5.7865   5.8739
     6.0110   6.0734   6.1909   6.2259   6.2925   6.3422   6.3794   6.4342
     6.4579   6.5992   6.6785   6.7204   6.9151   7.0056   7.0414   7.1282
     7.1473   7.1710   7.2911   7.3147   7.4103   7.5076   7.5708   7.5950
     7.6355   7.8637   7.9088   7.9535   8.0575   8.1109   8.1292   8.1996
     8.2523   8.2890   8.3673   8.3901   8.4689   8.5605   8.6440   8.7041
     8.8666   8.9326   8.9381   9.0641   9.0901   9.2454   9.2834

     the Fermi energy is     7.2828 ev

!    total energy              =   -2943.05760287 Ry
     estimated scf accuracy    <       0.00058772 Ry
     smearing contrib. (-TS)   =      -0.10038966 Ry
     internal energy E=F+TS    =   -2942.95721321 Ry

     total magnetization       =     0.02 Bohr mag/cell
     absolute magnetization    =     0.03 Bohr mag/cell

     convergence has been achieved in   4 iterations

     negative rho (up, down):  9.090E-01 9.090E-01

     Forces acting on atoms (cartesian axes, Ry/au):

     atom    1 type  1   force =     0.00816991   -0.03090672    0.00283371
     atom    2 type  1   force =    -0.12230030   -0.01552308   -0.00095773
     atom    3 type  1   force =    -0.11392404    0.01261377    0.00466158
     atom    4 type  1   force =     0.12888118   -0.01032032    0.00563102
     atom    5 type  1   force =     0.09590895    0.04855168   -0.03929348
     atom    6 type  2   force =    -0.00240437   -0.02073389    0.01071523
     atom    7 type  2   force =    -0.01621666    0.01230595   -0.02675490
     atom    8 type  3   force =    -0.10366979    0.00303204   -0.00204229
     atom    9 type  3   force =     0.09053394   -0.03425606   -0.04545733
     atom   10 type  3   force =    -0.02404803   -0.03295532   -0.06106471
     atom   11 type  3   force =    -0.02373123   -0.03674224    0.05401996
     atom   12 type  3   force =    -0.01803356    0.03624108   -0.05438031
     atom   13 type  3   force =    -0.00158967    0.03502393    0.06592282
     atom   14 type  3   force =     0.01966098   -0.03447263   -0.05953843
     atom   15 type  3   force =     0.02095270   -0.04244879    0.06193726
     atom   16 type  3   force =     0.01720654    0.04104296   -0.05604647
     atom   17 type  3   force =     0.00692549    0.05615849    0.06875572
     atom   18 type  4   force =    -0.00299377    0.02780787   -0.01051276
     atom   19 type  4   force =    -0.13040161   -0.00529329   -0.11717141
     atom   20 type  4   force =    -0.12222421    0.00590213    0.12075252
     atom   21 type  4   force =     0.12806775   -0.00614344   -0.11533242
     atom   22 type  4   force =     0.12296642   -0.00553837    0.12331059
     atom   23 type  5   force =     0.04226337   -0.00334573    0.07001181
     The non-local contrib.  to forces
     atom    1 type  1   force =     0.00840225   -0.01237482    0.02820601
     atom    2 type  1   force =    -0.24952027   -0.16039580    0.01763244
     atom    3 type  1   force =    -0.23730927    0.15103623   -0.01382441
     atom    4 type  1   force =     0.24666383   -0.18003306    0.02377796
     atom    5 type  1   force =     0.21436757    0.16033967   -0.01915069
     atom    6 type  2   force =     0.00105820   -0.04284194   -0.06423398
     atom    7 type  2   force =     0.01351108    0.06293653    0.09574325
     atom    8 type  3   force =    -0.25289216    0.00781715    0.00647780
     atom    9 type  3   force =     0.22722524    0.02198284    0.01851899
     atom   10 type  3   force =    -0.21048764    0.00544493   -0.20848171
     atom   11 type  3   force =    -0.21626458    0.00438917    0.19309989
     atom   12 type  3   force =    -0.20035409   -0.02379830   -0.17819849
     atom   13 type  3   force =    -0.19343082   -0.00831188    0.19938425
     atom   14 type  3   force =     0.21313600    0.00054313   -0.20673338
     atom   15 type  3   force =     0.22220724    0.00394935    0.18942857
     atom   16 type  3   force =     0.19918157   -0.01756901   -0.18191808
     atom   17 type  3   force =     0.23323757   -0.03116119    0.15411719
     atom   18 type  4   force =    -0.00008034    0.05892137   -0.05833752
     atom   19 type  4   force =     0.06178143    0.01203994    0.07645564
     atom   20 type  4   force =     0.05431530   -0.01890561   -0.06958260
     atom   21 type  4   force =    -0.05848502    0.01635178    0.07459469
     atom   22 type  4   force =    -0.05671873   -0.01469018   -0.05607793
     atom   23 type  5   force =    -0.03591315   -0.00719483   -0.02669052
     The ionic contribution  to forces
     atom    1 type  1   force =    -0.23625316   -4.83877368   14.04342588
     atom    2 type  1   force =   -39.75704144   -6.09318555    0.72852452
     atom    3 type  1   force =   -39.90691642    6.25517173   -0.81864042
     atom    4 type  1   force =    39.60101610   -6.04904135    0.67731362
     atom    5 type  1   force =    39.09353167    7.69666146   -1.61452246
     atom    6 type  2   force =    -0.14120057   -3.66558345  -14.03481324
     atom    7 type  2   force =    -1.55391049    3.58705240   14.45353674
     atom    8 type  3   force =   -52.36868716   -0.08895428   -0.17823093
     atom    9 type  3   force =    51.50000970   -1.74876491   -1.14603623
     atom   10 type  3   force =   -36.08907892   -2.07273312  -23.08147269
     atom   11 type  3   force =   -35.19797497   -0.81895234   22.12232232
     atom   12 type  3   force =   -35.30586224    0.83369676  -22.17310282
     atom   13 type  3   force =   -36.20938262    2.27842778   23.18859795
     atom   14 type  3   force =    36.01275032   -2.06611839  -23.12322296
     atom   15 type  3   force =    35.06622464   -0.79597713   22.20444119
     atom   16 type  3   force =    35.17443077    0.89493370  -22.30584084
     atom   17 type  3   force =    35.81770598    2.66793742   23.74652540
     atom   18 type  4   force =    -0.38344278    4.33718923  -14.30513137
     atom   19 type  4   force =   -35.95060548    0.91188638  -25.56072037
     atom   20 type  4   force =   -36.03103598   -1.04925535   25.61951815
     atom   21 type  4   force =    35.83840826    0.85639803  -25.68162973
     atom   22 type  4   force =    35.70509757   -1.39620620   26.14553623
     atom   23 type  5   force =     5.32221723    0.36419085    1.09362203
     The local contribution  to forces
     atom    1 type  1   force =     0.25483624    4.80929073  -14.06021747
     atom    2 type  1   force =    39.89419143    6.23365835   -0.74205811
     atom    3 type  1   force =    40.04418181   -6.39058495    0.84365849
     atom    4 type  1   force =   -39.71984939    6.21738895   -0.68011474
     atom    5 type  1   force =   -39.21224781   -7.80683718    1.60322458
     atom    6 type  2   force =     0.14777656    3.67005913   14.11593726
     atom    7 type  2   force =     1.55082679   -3.62266475  -14.56832151
     atom    8 type  3   force =    52.55454454    0.08346729    0.17959566
     atom    9 type  3   force =   -51.64090411    1.71449599    1.10963510
     atom   10 type  3   force =    36.30093854    2.00867249   23.24174497
     atom   11 type  3   force =    35.42472045    0.75901642  -22.27665432
     atom   12 type  3   force =    35.51216574   -0.74817965   22.30854912
     atom   13 type  3   force =    36.42908404   -2.21376094  -23.33778318
     atom   14 type  3   force =   -36.22062372    2.00406653   23.27668598
     atom   15 type  3   force =   -35.27228950    0.72236737  -22.34811435
     atom   16 type  3   force =   -35.36861401   -0.81264023   22.44332216
     atom   17 type  3   force =   -36.04793278   -2.54866381  -23.84503550
     atom   18 type  4   force =     0.39549490   -4.34863652   14.36121004
     atom   19 type  4   force =    35.76359754   -0.92896472   25.37501255
     atom   20 type  4   force =    35.86395599    1.07255132  -25.44068513
     atom   21 type  4   force =   -35.64708009   -0.87682502   25.50229260
     atom   22 type  4   force =   -35.51532338    1.40464407  -25.98484448
     atom   23 type  5   force =    -5.24239170   -0.36300640   -0.99673748
     The core correction contribution to forces
     atom    1 type  1   force =     0.00028059    0.00170642   -0.00082756
     atom    2 type  1   force =    -0.01135843   -0.00132627    0.00043073
     atom    3 type  1   force =    -0.01105669    0.00364972   -0.00078205
     atom    4 type  1   force =     0.01346445   -0.00372495    0.00037438
     atom    5 type  1   force =     0.00656123    0.00179186   -0.00317311
     atom    6 type  2   force =    -0.00008940    0.00210215    0.00273395
     atom    7 type  2   force =     0.00040614   -0.00324133   -0.00442121
     atom    8 type  3   force =    -0.03045462    0.00013575    0.00109876
     atom    9 type  3   force =     0.02447287   -0.00293813   -0.00114525
     atom   10 type  3   force =    -0.02268469    0.00925415   -0.01634397
     atom   11 type  3   force =    -0.02374603    0.00932703    0.01659938
     atom   12 type  3   force =    -0.02127256   -0.00974084   -0.01572907
     atom   13 type  3   force =    -0.01988726   -0.01022632    0.01582178
     atom   14 type  3   force =     0.02154905    0.00958012   -0.01596429
     atom   15 type  3   force =     0.02347410    0.00948395    0.01744285
     atom   16 type  3   force =     0.02116557   -0.00890502   -0.01618187
     atom   17 type  3   force =     0.02302440   -0.01049478    0.01251803
     atom   18 type  4   force =     0.00011314   -0.00303304    0.00288196
     atom   19 type  4   force =    -0.00977735   -0.00012081   -0.00983228
     atom   20 type  4   force =    -0.00940712    0.00068221    0.00946493
     atom   21 type  4   force =     0.00958510   -0.00032215   -0.00967045
     atom   22 type  4   force =     0.00999272    0.00083614    0.00805719
     atom   23 type  5   force =     0.00000000    0.00000000    0.00000000
     The Hubbard contrib.    to forces
     atom    1 type  1   force =     0.00000000    0.00000000    0.00000000
     atom    2 type  1   force =     0.00000000    0.00000000    0.00000000
     atom    3 type  1   force =     0.00000000    0.00000000    0.00000000
     atom    4 type  1   force =     0.00000000    0.00000000    0.00000000
     atom    5 type  1   force =     0.00000000    0.00000000    0.00000000
     atom    6 type  2   force =     0.00000000    0.00000000    0.00000000
     atom    7 type  2   force =     0.00000000    0.00000000    0.00000000
     atom    8 type  3   force =     0.00000000    0.00000000    0.00000000
     atom    9 type  3   force =     0.00000000    0.00000000    0.00000000
     atom   10 type  3   force =     0.00000000    0.00000000    0.00000000
     atom   11 type  3   force =     0.00000000    0.00000000    0.00000000
     atom   12 type  3   force =     0.00000000    0.00000000    0.00000000
     atom   13 type  3   force =     0.00000000    0.00000000    0.00000000
     atom   14 type  3   force =     0.00000000    0.00000000    0.00000000
     atom   15 type  3   force =     0.00000000    0.00000000    0.00000000
     atom   16 type  3   force =     0.00000000    0.00000000    0.00000000
     atom   17 type  3   force =     0.00000000    0.00000000    0.00000000
     atom   18 type  4   force =     0.00000000    0.00000000    0.00000000
     atom   19 type  4   force =     0.00000000    0.00000000    0.00000000
     atom   20 type  4   force =     0.00000000    0.00000000    0.00000000
     atom   21 type  4   force =     0.00000000    0.00000000    0.00000000
     atom   22 type  4   force =     0.00000000    0.00000000    0.00000000
     atom   23 type  5   force =     0.00000000    0.00000000    0.00000000
     The SCF correction term to forces
     atom    1 type  1   force =    -0.01772374    0.00928579   -0.00716432
     atom    2 type  1   force =     0.00280068    0.00576734   -0.00489847
     atom    3 type  1   force =    -0.00145121   -0.00661780   -0.00516120
     atom    4 type  1   force =    -0.01104153    0.00513124   -0.01513137
     atom    5 type  1   force =    -0.00493143   -0.00336298   -0.00508296
     atom    6 type  2   force =    -0.00857688    0.01557137   -0.00831992
     atom    7 type  2   force =    -0.02567791   -0.01173576   -0.00270333
     atom    8 type  3   force =    -0.00480811    0.00060728   -0.01039475
     atom    9 type  3   force =    -0.01889749   -0.01899071   -0.02584110
     atom   10 type  3   force =    -0.00136305    0.01644738    0.00407752
     atom   11 type  3   force =    -0.00909383    0.00951864   -0.00075848
     atom   12 type  3   force =    -0.00133813   -0.01569575    0.00468979
     atom   13 type  3   force =    -0.00660072   -0.01106356    0.00049086
     atom   14 type  3   force =    -0.00577839    0.01749713    0.01028506
     atom   15 type  3   force =    -0.01729150    0.01776881   -0.00067216
     atom   16 type  3   force =    -0.00758509   -0.01473532    0.00516100
     atom   17 type  3   force =    -0.01773740   -0.02141801    0.00121943
     atom   18 type  4   force =    -0.01370641   -0.01659203   -0.01054703
     atom   19 type  4   force =     0.00597453   -0.00009293    0.00250189
     atom   20 type  4   force =     0.00131988    0.00087071    0.00262600
     atom   21 type  4   force =    -0.01298821   -0.00170494   -0.00033071
     atom   22 type  4   force =    -0.01870947   -0.00008106    0.01122842
     atom   23 type  5   force =    -0.00027674    0.00270580    0.00040662

     Total force =     0.505731     Total SCF correction =     0.089731
     SCF correction compared to forces is large: reduce conv_thr to get better values


     Computing stress (Cartesian axis) and pressure


     negative rho (up, down):  9.090E-01 9.090E-01
          total   stress  (Ry/bohr**3)                   (kbar)     P=       86.20
   0.00061057  -0.00000046   0.00001002           89.82       -0.07        1.47
  -0.00000046   0.00072755   0.00000044           -0.07      107.03        0.06
   0.00001002   0.00000044   0.00041986            1.47        0.06       61.76


     Entering Dynamics:    iteration =     2
                           time      =   0.0004 pico-seconds


ATOMIC_POSITIONS (angstrom)
Hf            2.6700656190        2.8273301341        6.6040858154
Hf            1.2530419303        1.2864928236        5.0585874212
Hf            1.2555390505        7.3900158983        5.0881896575
Hf            4.0870886842        1.2864934139        5.0585878381
Hf            4.0845881241        7.3900218935        5.0881831683
Nb            2.6700647569        2.7971366566        3.5157072622
Nb            2.6700618087        5.8765920410        6.6351132786
Ta            1.2094264296        4.3411384585        5.0712469182
Ta            4.1307028504        4.3411360724        5.0712433730
Ta            1.3073150935        1.3143292910        2.0588937348
Ta            1.3028507170        1.3085973573        8.0947067871
Ta            1.3040726969        7.3760404260        2.0463525415
Ta            1.3077755793        7.3652970213        8.0861311155
Ta            4.0328145819        1.3143291981        2.0588939502
Ta            4.0372791051        1.3085968950        8.0947076567
Ta            4.0360573964        7.3760408950        2.0463522972
Ta            4.0323551032        7.3652992388        8.0861313060
Zr            2.6700643724        5.8665017396        3.5275028514
Zr            1.2438707600        4.3222870867        2.0000952428
Zr            1.2404232673        4.3543348958        8.1499043212
Zr            4.0962589703        4.3222868534        2.0000956615
Zr            4.0997070153        4.3543322605        8.1499050679
H             4.5406409810        5.6635011677        5.8372482385


     kinetic energy (Ekin) =           8.09202210 Ry
     temperature           =       38716.03756120 K 
     Ekin + Etot (const)   =       -2934.96558077 Ry
     Ions kinetic stress =          142.91 (kbar)
                                     28.53          92.64          53.23
                                     92.64         300.86         172.89
                                     53.23         172.89          99.35



     Linear momentum :   -0.0000000000   -0.0000000000   -0.0000000000

     Writing config-only to output data dir outdir/pwscf.save/
     NEW-OLD atomic charge density approx. for the potential

     Check: negative core charge=   -0.000002

     negative rho (up, down):  9.089E-01 9.089E-01
     Generating pointlists ...
     new r_m :   0.0699 (alat units)  1.2334 (a.u.) for type    3
     new r_m :   0.0699 (alat units)  1.2334 (a.u.) for type    5

     total cpu time spent up to now is      484.2 secs

     Self-consistent Calculation

     iteration #  1     ecut=   120.00 Ry     beta= 0.70
     Davidson diagonalization with overlap
     c_bands:  1 eigenvalues not converged
     c_bands:  1 eigenvalues not converged
     ethr =  1.00E-06,  avg # of iterations = 20.0

     negative rho (up, down):  9.089E-01 9.089E-01

     total cpu time spent up to now is      540.7 secs

     total energy              =   -2943.00440536 Ry
     estimated scf accuracy    <       0.12613577 Ry

     total magnetization       =     0.02 Bohr mag/cell
     absolute magnetization    =     0.03 Bohr mag/cell

     iteration #  2     ecut=   120.00 Ry     beta= 0.70
     Davidson diagonalization with overlap
     ethr =  4.55E-05,  avg # of iterations =  2.0

     negative rho (up, down):  9.091E-01 9.091E-01

     total cpu time spent up to now is      556.9 secs

     total energy              =   -2943.01450660 Ry
     estimated scf accuracy    <       0.04765192 Ry

     total magnetization       =     0.02 Bohr mag/cell
     absolute magnetization    =     0.02 Bohr mag/cell

     iteration #  3     ecut=   120.00 Ry     beta= 0.70
     Davidson diagonalization with overlap
     ethr =  1.72E-05,  avg # of iterations =  1.0

     negative rho (up, down):  9.090E-01 9.090E-01

     total cpu time spent up to now is      571.6 secs

     total energy              =   -2943.01764516 Ry
     estimated scf accuracy    <       0.00278513 Ry

     total magnetization       =     0.02 Bohr mag/cell
     absolute magnetization    =     0.02 Bohr mag/cell

     iteration #  4     ecut=   120.00 Ry     beta= 0.70
     Davidson diagonalization with overlap
     ethr =  1.01E-06,  avg # of iterations =  2.0

     negative rho (up, down):  9.089E-01 9.089E-01

     Magnetic moment per site  (integrated on atomic sphere of radius R)
     atom   1 (R=0.078)  charge=  6.4157  magn=  0.0000
     atom   2 (R=0.078)  charge=  6.3300  magn=  0.0000
     atom   3 (R=0.078)  charge=  6.3299  magn=  0.0000
     atom   4 (R=0.078)  charge=  6.3308  magn=  0.0000
     atom   5 (R=0.078)  charge=  6.3386  magn= -0.0000
     atom   6 (R=0.090)  charge=  8.6319  magn=  0.0000
     atom   7 (R=0.090)  charge=  8.6369  magn=  0.0001
     atom   8 (R=0.070)  charge=  5.8236  magn= -0.0000
     atom   9 (R=0.070)  charge=  5.8431  magn=  0.0000
     atom  10 (R=0.070)  charge=  5.8096  magn=  0.0002
     atom  11 (R=0.070)  charge=  5.8107  magn=  0.0003
     atom  12 (R=0.070)  charge=  5.8079  magn=  0.0004
     atom  13 (R=0.070)  charge=  5.8121  magn=  0.0001
     atom  14 (R=0.070)  charge=  5.8067  magn=  0.0000
     atom  15 (R=0.070)  charge=  5.8046  magn=  0.0001
     atom  16 (R=0.070)  charge=  5.8043  magn=  0.0002
     atom  17 (R=0.070)  charge=  5.8089  magn= -0.0001
     atom  18 (R=0.111)  charge=  9.4535  magn= -0.0000
     atom  19 (R=0.111)  charge=  9.0020  magn=  0.0010
     atom  20 (R=0.111)  charge=  8.9970  magn=  0.0005
     atom  21 (R=0.111)  charge=  8.9993  magn=  0.0004
     atom  22 (R=0.111)  charge=  8.9984  magn= -0.0002
     atom  23 (R=0.070)  charge=  0.9868  magn= -0.0000

     total cpu time spent up to now is      588.4 secs

     End of self-consistent calculation

 ------ SPIN UP ------------


          k = 0.0000 0.0000 0.0000 ( 61588 PWs)   bands (ev):

   -60.7813 -60.7445 -60.7251 -60.6989 -60.6713 -60.6633 -60.6261 -60.6183
   -60.5588 -60.3375 -54.3659 -54.3170 -54.2395 -54.1882 -52.7081 -46.3943
   -46.2376 -41.6659 -41.6177 -41.5563 -41.5172 -39.7853 -27.7748 -27.7451
   -27.6843 -27.6612 -27.5891 -27.5541 -27.4357 -27.4258 -27.3929 -27.3264
   -27.2942 -27.2614 -27.2354 -27.2238 -27.1984 -27.1722 -27.1532 -27.1367
   -27.1212 -27.1055 -26.9792 -26.9591 -26.9480 -26.9332 -26.9213 -26.9030
   -26.8729 -26.8486 -26.8236 -26.8169 -24.1719 -23.9644 -23.6630 -23.5616
   -23.2944 -23.2138 -23.1522 -23.0655 -22.9184 -22.8465 -22.8357 -22.6090
   -22.5926 -22.4585 -22.4406 -22.4239 -22.2688 -22.2366 -21.7643 -21.7054
   -21.6316 -20.1811 -19.9534 -19.8206 -19.8153 -19.6896 -19.6184 -19.5987
   -19.5836 -19.5660 -19.5342 -19.3677 -19.3526 -18.1337 -17.9284 -17.8012
     0.0316   1.8289   2.9484   3.1309   3.3562   3.3871   3.5032   3.6180
     3.6671   3.8006   3.9123   4.0736   4.1588   4.4978   4.6088   4.7102
     4.7425   4.9090   5.0386   5.1157   5.2403   5.2742   5.3001   5.3827
     5.3915   5.5101   5.5665   5.6894   5.7428   5.7614   5.7793   5.8809
     6.0146   6.0762   6.1900   6.2218   6.2811   6.3379   6.3690   6.4187
     6.4611   6.6000   6.6732   6.7115   6.9024   6.9953   7.0259   7.1190
     7.1438   7.1597   7.2818   7.2992   7.3967   7.4980   7.5557   7.5802
     7.6284   7.8699   7.8894   7.9257   8.0569   8.1018   8.1224   8.1836
     8.2498   8.2885   8.3628   8.3808   8.4674   8.5479   8.6240   8.6837
     8.8572   8.8794   8.9302   9.0530   9.0899   9.2589   9.2805

 ------ SPIN DOWN ----------


          k = 0.0000 0.0000 0.0000 ( 61588 PWs)   bands (ev):

   -60.7811 -60.7441 -60.7252 -60.6984 -60.6709 -60.6628 -60.6256 -60.6180
   -60.5588 -60.3375 -54.3659 -54.3170 -54.2395 -54.1882 -52.7081 -46.3942
   -46.2376 -41.6659 -41.6171 -41.5559 -41.5166 -39.7853 -27.7744 -27.7445
   -27.6840 -27.6606 -27.5889 -27.5536 -27.4351 -27.4252 -27.3929 -27.3263
   -27.2939 -27.2613 -27.2349 -27.2236 -27.1980 -27.1719 -27.1531 -27.1362
   -27.1209 -27.1054 -26.9792 -26.9591 -26.9479 -26.9328 -26.9207 -26.9024
   -26.8725 -26.8479 -26.8230 -26.8165 -24.1718 -23.9644 -23.6630 -23.5616
   -23.2943 -23.2137 -23.1521 -23.0655 -22.9184 -22.8465 -22.8357 -22.6090
   -22.5925 -22.4585 -22.4406 -22.4238 -22.2687 -22.2365 -21.7643 -21.7054
   -21.6316 -20.1804 -19.9534 -19.8197 -19.8148 -19.6896 -19.6184 -19.5981
   -19.5829 -19.5655 -19.5338 -19.3675 -19.3516 -18.1337 -17.9284 -17.8011
     0.0316   1.8292   2.9491   3.1311   3.3565   3.3875   3.5036   3.6182
     3.6672   3.8009   3.9131   4.0740   4.1591   4.4981   4.6091   4.7107
     4.7430   4.9095   5.0390   5.1159   5.2406   5.2746   5.3004   5.3832
     5.3922   5.5104   5.5669   5.6897   5.7430   5.7619   5.7797   5.8813
     6.0150   6.0767   6.1904   6.2221   6.2814   6.3382   6.3695   6.4193
     6.4616   6.6003   6.6736   6.7120   6.9030   6.9960   7.0274   7.1210
     7.1450   7.1603   7.2834   7.2996   7.3983   7.4997   7.5567   7.5810
     7.6294   7.8704   7.8898   7.9259   8.0575   8.1028   8.1230   8.1847
     8.2509   8.2889   8.3641   8.3817   8.4681   8.5486   8.6244   8.6842
     8.8578   8.8798   8.9316   9.0537   9.0902   9.2592   9.2810

     the Fermi energy is     7.2730 ev

!    total energy              =   -2943.01726150 Ry
     estimated scf accuracy    <       0.00084403 Ry
     smearing contrib. (-TS)   =      -0.10071101 Ry
     internal energy E=F+TS    =   -2942.91655050 Ry

     total magnetization       =     0.02 Bohr mag/cell
     absolute magnetization    =     0.02 Bohr mag/cell

     convergence has been achieved in   4 iterations

     negative rho (up, down):  9.089E-01 9.089E-01

     Forces acting on atoms (cartesian axes, Ry/au):

     atom    1 type  1   force =    -0.00167617   -0.02482863    0.00215886
     atom    2 type  1   force =    -0.11741126   -0.01111221   -0.00099459
     atom    3 type  1   force =    -0.10992788    0.00850026    0.00404973
     atom    4 type  1   force =     0.12618557   -0.00993940   -0.00120228
     atom    5 type  1   force =     0.10012588    0.01942102   -0.02758519
     atom    6 type  2   force =    -0.00036993   -0.01927994    0.00993475
     atom    7 type  2   force =    -0.01736318    0.00909293   -0.02098803
     atom    8 type  3   force =    -0.10310568    0.00416556   -0.00314519
     atom    9 type  3   force =     0.05856215   -0.13616108   -0.11459543
     atom   10 type  3   force =    -0.02346906   -0.02599506   -0.05923787
     atom   11 type  3   force =    -0.02333097   -0.03376066    0.05393316
     atom   12 type  3   force =    -0.01807353    0.02898028   -0.05240925
     atom   13 type  3   force =     0.00160281    0.03342615    0.06667054
     atom   14 type  3   force =     0.02218242   -0.02717535   -0.05458931
     atom   15 type  3   force =     0.01638467   -0.03673605    0.06309264
     atom   16 type  3   force =     0.01917496    0.03554698   -0.05159888
     atom   17 type  3   force =     0.00302805    0.04716008    0.06900940
     atom   18 type  4   force =    -0.00351931    0.02259543   -0.01202414
     atom   19 type  4   force =    -0.12459375   -0.00577860   -0.11642585
     atom   20 type  4   force =    -0.11877662    0.00643391    0.12295173
     atom   21 type  4   force =     0.12538668   -0.00661715   -0.11530326
     atom   22 type  4   force =     0.11807292   -0.00331888    0.12516216
     atom   23 type  5   force =     0.07091123    0.12538043    0.11313629
     The non-local contrib.  to forces
     atom    1 type  1   force =     0.00151819   -0.00868706    0.02635182
     atom    2 type  1   force =    -0.24778799   -0.15907674    0.01705435
     atom    3 type  1   force =    -0.23847256    0.14941532   -0.01553570
     atom    4 type  1   force =     0.24247240   -0.17908900    0.01868251
     atom    5 type  1   force =     0.21709775    0.14327331   -0.01632870
     atom    6 type  2   force =    -0.00023362   -0.03955645   -0.06432006
     atom    7 type  2   force =     0.01568662    0.06960743    0.09701588
     atom    8 type  3   force =    -0.25481533    0.00839678    0.00513627
     atom    9 type  3   force =     0.20936415    0.00953465    0.00045763
     atom   10 type  3   force =    -0.21442253    0.00727763   -0.20943340
     atom   11 type  3   force =    -0.21986835    0.00807041    0.19256384
     atom   12 type  3   force =    -0.20278612   -0.02729241   -0.17744734
     atom   13 type  3   force =    -0.19338858   -0.01138477    0.20043864
     atom   14 type  3   force =     0.21398213    0.00471712   -0.20264650
     atom   15 type  3   force =     0.21868034    0.00664014    0.19250857
     atom   16 type  3   force =     0.19784915   -0.02014397   -0.17792505
     atom   17 type  3   force =     0.22388211   -0.02847035    0.16818754
     atom   18 type  4   force =    -0.00486829    0.05406715   -0.05721704
     atom   19 type  4   force =     0.06168514    0.01185611    0.07393862
     atom   20 type  4   force =     0.05504246   -0.01868382   -0.06749399
     atom   21 type  4   force =    -0.06316217    0.01569349    0.07270324
     atom   22 type  4   force =    -0.06146531   -0.01204812   -0.05149164
     atom   23 type  5   force =    -0.03758183   -0.02882196   -0.03362405
     The ionic contribution  to forces
     atom    1 type  1   force =    -0.26136202   -4.87967888   14.07006447
     atom    2 type  1   force =   -39.76040202   -6.10903748    0.73348502
     atom    3 type  1   force =   -39.90439388    6.26834448   -0.80578442
     atom    4 type  1   force =    39.60644849   -6.10113957    0.68859766
     atom    5 type  1   force =    39.21833850    7.61219554   -1.39548451
     atom    6 type  2   force =    -0.15924187   -3.69497346  -14.05564164
     atom    7 type  2   force =    -1.51730652    3.72847514   14.53884264
     atom    8 type  3   force =   -52.41103683   -0.09020074   -0.17627842
     atom    9 type  3   force =    51.33274123   -2.29075807   -1.45706889
     atom   10 type  3   force =   -36.09148542   -2.07922480  -23.08622484
     atom   11 type  3   force =   -35.19724945   -0.83159581   22.12363063
     atom   12 type  3   force =   -35.30870690    0.83906342  -22.17888898
     atom   13 type  3   force =   -36.19591237    2.28069197   23.18387944
     atom   14 type  3   force =    36.01421918   -2.07886469  -23.13052290
     atom   15 type  3   force =    35.07204987   -0.82990190   22.20336132
     atom   16 type  3   force =    35.17810781    0.90749864  -22.31456726
     atom   17 type  3   force =    35.86696440    2.61888203   23.64156329
     atom   18 type  4   force =    -0.41889531    4.37639522  -14.34296407
     atom   19 type  4   force =   -35.95842737    0.91249986  -25.57216693
     atom   20 type  4   force =   -36.03767891   -1.04196225   25.62953970
     atom   21 type  4   force =    35.83803312    0.85482700  -25.71583346
     atom   22 type  4   force =    35.71896573   -1.35335305   26.18670414
     atom   23 type  5   force =     5.37623053    0.98181740    1.23175801
     The local contribution  to forces
     atom    1 type  1   force =     0.23579044    4.87228063  -14.09403315
     atom    2 type  1   force =    39.90002561    6.26525551   -0.74953727
     atom    3 type  1   force =    40.04704224   -6.41904859    0.82896900
     atom    4 type  1   force =   -39.75203954    6.27119249   -0.71718371
     atom    5 type  1   force =   -39.36363116   -7.73504867    1.37832635
     atom    6 type  2   force =     0.14351882    3.73352635   14.12192811
     atom    7 type  2   force =     1.46560121   -3.79365740  -14.65309271
     atom    8 type  3   force =    52.58656413    0.08576087    0.16162989
     atom    9 type  3   force =   -51.51643739    2.16788598    1.34406898
     atom   10 type  3   force =    36.29384081    2.06516820   23.25812663
     atom   11 type  3   force =    35.40472609    0.79334389  -22.28341494
     atom   12 type  3   force =    35.50068928   -0.79998487   22.32421577
     atom   13 type  3   force =    36.40085349   -2.23878732  -23.33776655
     atom   14 type  3   force =   -36.23718369    2.06638182   23.30848237
     atom   15 type  3   force =   -35.32971234    0.79574819  -22.35946433
     atom   16 type  3   force =   -35.38647389   -0.86739324   22.47177449
     atom   17 type  3   force =   -36.13915252   -2.56107351  -23.76886892
     atom   18 type  4   force =     0.40839113   -4.42381353   14.38805403
     atom   19 type  4   force =    35.78086103   -0.93032895   25.38768071
     atom   20 type  4   force =    35.87421520    1.06712906  -25.44229579
     atom   21 type  4   force =   -35.67747087   -0.87866227   25.53724937
     atom   22 type  4   force =   -35.57715952    1.36814852  -26.01598578
     atom   23 type  5   force =    -5.27135861   -0.83009282   -1.08673433
     The core correction contribution to forces
     atom    1 type  1   force =     0.00050206    0.00149958   -0.00085548
     atom    2 type  1   force =    -0.01114507   -0.00136619    0.00040467
     atom    3 type  1   force =    -0.01143719    0.00374782   -0.00080304
     atom    4 type  1   force =     0.01385491   -0.00382521   -0.00003777
     atom    5 type  1   force =     0.00629673    0.00247446   -0.00359852
     atom    6 type  2   force =     0.00007774    0.00210508    0.00287851
     atom    7 type  2   force =     0.00018952   -0.00358168   -0.00446099
     atom    8 type  3   force =    -0.03039617    0.00013493    0.00122901
     atom    9 type  3   force =     0.02231528   -0.00418508   -0.00273610
     atom   10 type  3   force =    -0.02267326    0.00908558   -0.01639757
     atom   11 type  3   force =    -0.02394716    0.00943259    0.01661219
     atom   12 type  3   force =    -0.02136944   -0.00961607   -0.01558015
     atom   13 type  3   force =    -0.01957717   -0.01042653    0.01587976
     atom   14 type  3   force =     0.02177667    0.00926630   -0.01605272
     atom   15 type  3   force =     0.02373936    0.00933800    0.01769943
     atom   16 type  3   force =     0.02117184   -0.00892513   -0.01609841
     atom   17 type  3   force =     0.02332371   -0.00983252    0.01358684
     atom   18 type  4   force =     0.00023268   -0.00301473    0.00276455
     atom   19 type  4   force =    -0.00973797   -0.00010899   -0.00970171
     atom   20 type  4   force =    -0.00945356    0.00066953    0.00943365
     atom   21 type  4   force =     0.00966006   -0.00030333   -0.00957516
     atom   22 type  4   force =     0.00992481    0.00066695    0.00797044
     atom   23 type  5   force =     0.00000000    0.00000000    0.00000000
     The Hubbard contrib.    to forces
     atom    1 type  1   force =     0.00000000    0.00000000    0.00000000
     atom    2 type  1   force =     0.00000000    0.00000000    0.00000000
     atom    3 type  1   force =     0.00000000    0.00000000    0.00000000
     atom    4 type  1   force =     0.00000000    0.00000000    0.00000000
     atom    5 type  1   force =     0.00000000    0.00000000    0.00000000
     atom    6 type  2   force =     0.00000000    0.00000000    0.00000000
     atom    7 type  2   force =     0.00000000    0.00000000    0.00000000
     atom    8 type  3   force =     0.00000000    0.00000000    0.00000000
     atom    9 type  3   force =     0.00000000    0.00000000    0.00000000
     atom   10 type  3   force =     0.00000000    0.00000000    0.00000000
     atom   11 type  3   force =     0.00000000    0.00000000    0.00000000
     atom   12 type  3   force =     0.00000000    0.00000000    0.00000000
     atom   13 type  3   force =     0.00000000    0.00000000    0.00000000
     atom   14 type  3   force =     0.00000000    0.00000000    0.00000000
     atom   15 type  3   force =     0.00000000    0.00000000    0.00000000
     atom   16 type  3   force =     0.00000000    0.00000000    0.00000000
     atom   17 type  3   force =     0.00000000    0.00000000    0.00000000
     atom   18 type  4   force =     0.00000000    0.00000000    0.00000000
     atom   19 type  4   force =     0.00000000    0.00000000    0.00000000
     atom   20 type  4   force =     0.00000000    0.00000000    0.00000000
     atom   21 type  4   force =     0.00000000    0.00000000    0.00000000
     atom   22 type  4   force =     0.00000000    0.00000000    0.00000000
     atom   23 type  5   force =     0.00000000    0.00000000    0.00000000
     The SCF correction term to forces
     atom    1 type  1   force =     0.02014645   -0.01014496    0.00059393
     atom    2 type  1   force =     0.00016950   -0.00678938   -0.00243864
     atom    3 type  1   force =    -0.00439521    0.00613917   -0.00283339
     atom    4 type  1   force =     0.01372060    0.00301984    0.00870176
     atom    5 type  1   force =     0.02029535   -0.00337568    0.00946291
     atom    6 type  2   force =     0.01378029   -0.02028352    0.00505254
     atom    7 type  2   force =     0.01673728    0.00834739    0.00066988
     atom    8 type  3   force =     0.00484981    0.00017166    0.00510079
     atom    9 type  3   force =     0.00885017   -0.01854062    0.00064568
     atom   10 type  3   force =     0.00954264   -0.02820373   -0.00534597
     atom   11 type  3   force =     0.01127919   -0.01291379    0.00450415
     atom   12 type  3   force =     0.01237094    0.02690815   -0.00474584
     atom   13 type  3   force =     0.00789873    0.01343074    0.00420199
     atom   14 type  3   force =     0.00765943   -0.02857797   -0.01388683
     atom   15 type  3   force =     0.02989872   -0.01846254    0.00895037
     atom   16 type  3   force =     0.00679134    0.02460862   -0.01481993
     atom   17 type  3   force =     0.02628164    0.02775238    0.01450338
     atom   18 type  4   force =     0.00989177    0.01905927   -0.00269889
     atom   19 type  4   force =    -0.00070328    0.00040130    0.00378619
     atom   20 type  4   force =    -0.00263053   -0.00062067   -0.00626912
     atom   21 type  4   force =     0.01659782    0.00192590    0.00011547
     atom   22 type  4   force =     0.02607849   -0.00663524   -0.00207227
     atom   23 type  5   force =     0.00189243    0.00257576    0.00169939

     Total force =     0.540486     Total SCF correction =     0.108292
     SCF correction compared to forces is large: reduce conv_thr to get better values


     Computing stress (Cartesian axis) and pressure


     negative rho (up, down):  9.089E-01 9.089E-01
          total   stress  (Ry/bohr**3)                   (kbar)     P=       91.46
   0.00064036   0.00001548   0.00001624           94.20        2.28        2.39
[...]
     4.7385   4.8671   5.0701   5.1386   5.2712   5.2842   5.3041   5.3903
     5.5249   5.5574   5.5893   5.7132   5.7431   5.7612   5.7921   5.8242
     5.9770   6.0683   6.1735   6.2255   6.2824   6.3374   6.3772   6.4301
     6.4542   6.5870   6.6786   6.7179   6.9288   6.9899   7.0435   7.1303
     7.1344   7.1790   7.2893   7.3108   7.4211   7.5102   7.5669   7.6309
     7.6537   7.8523   7.9090   8.0227   8.0918   8.1157   8.1380   8.2100
     8.2303   8.2870   8.3245   8.3877   8.4602   8.5655   8.6383   8.7285
     8.8529   8.9327   8.9917   9.0620   9.1663   9.2140   9.2939

     the Fermi energy is     7.2853 ev

!    total energy              =   -2943.08564100 Ry
     estimated scf accuracy    <       0.00032428 Ry
     smearing contrib. (-TS)   =      -0.09839922 Ry
     internal energy E=F+TS    =   -2942.98724177 Ry

     total magnetization       =     0.00 Bohr mag/cell
     absolute magnetization    =     0.00 Bohr mag/cell

     convergence has been achieved in   5 iterations

     negative rho (up, down):  9.093E-01 9.093E-01

     Forces acting on atoms (cartesian axes, Ry/au):

     atom    1 type  1   force =    -0.00065535   -0.02878727    0.00500267
     atom    2 type  1   force =    -0.11866730   -0.01514647   -0.00567262
     atom    3 type  1   force =    -0.11135399    0.01001792    0.00098299
     atom    4 type  1   force =     0.11759157   -0.01044684   -0.00595630
     atom    5 type  1   force =     0.07746574    0.06095581   -0.06497350
     atom    6 type  2   force =    -0.00600469   -0.02164307    0.00666385
     atom    7 type  2   force =    -0.00413863    0.01608159   -0.02452138
     atom    8 type  3   force =    -0.10331398    0.00088765   -0.00482416
     atom    9 type  3   force =     0.10841821    0.01226613   -0.00406773
     atom   10 type  3   force =    -0.02178146   -0.03323289   -0.05773879
     atom   11 type  3   force =    -0.01907241   -0.03469924    0.05855036
     atom   12 type  3   force =    -0.01652042    0.03764645   -0.05238287
     atom   13 type  3   force =    -0.00812795    0.02813540    0.06239933
     atom   14 type  3   force =     0.01996477   -0.03177300   -0.05671765
     atom   15 type  3   force =     0.02217260   -0.03438879    0.06179304
     atom   16 type  3   force =     0.01800128    0.03729323   -0.05671409
     atom   17 type  3   force =     0.01985522    0.03958169    0.05617936
     atom   18 type  4   force =     0.00053495    0.02350556   -0.01269638
     atom   19 type  4   force =    -0.12740824   -0.00477931   -0.11557443
     atom   20 type  4   force =    -0.11764482    0.00625671    0.12191134
     atom   21 type  4   force =     0.12636861   -0.00455139   -0.11614990
     atom   22 type  4   force =     0.12190112   -0.00477996    0.12223015
     atom   23 type  5   force =     0.02241517   -0.04839993    0.08227672
     The non-local contrib.  to forces
     atom    1 type  1   force =     0.00781595   -0.01284929    0.02172720
     atom    2 type  1   force =    -0.24928423   -0.16040657    0.01400344
     atom    3 type  1   force =    -0.23538380    0.15009455   -0.01438849
     atom    4 type  1   force =     0.24406889   -0.16392497    0.02056755
     atom    5 type  1   force =     0.20506153    0.16154257   -0.03315231
     atom    6 type  2   force =     0.00335060   -0.03850516   -0.05135816
     atom    7 type  2   force =    -0.00623333    0.04528161    0.07121563
     atom    8 type  3   force =    -0.26118650    0.00636118    0.00224960
     atom    9 type  3   force =     0.27192732    0.04107981    0.04388610
     atom   10 type  3   force =    -0.20472525    0.00769016   -0.20242574
     atom   11 type  3   force =    -0.21678130    0.00348952    0.19643953
     atom   12 type  3   force =    -0.20136343   -0.02148638   -0.17775571
     atom   13 type  3   force =    -0.19902102   -0.00955820    0.19209468
     atom   14 type  3   force =     0.20661677    0.00341941   -0.20904764
     atom   15 type  3   force =     0.22350785    0.01491087    0.18579148
     atom   16 type  3   force =     0.19868089   -0.02153419   -0.18150911
     atom   17 type  3   force =     0.22674949   -0.04322205    0.14548178
     atom   18 type  4   force =     0.00202465    0.05727608   -0.06238430
     atom   19 type  4   force =     0.06213381    0.01283011    0.07337431
     atom   20 type  4   force =     0.05471936   -0.01767068   -0.06759898
     atom   21 type  4   force =    -0.05757242    0.01955528    0.07499664
     atom   22 type  4   force =    -0.06775887   -0.01581692   -0.06059755
     atom   23 type  5   force =    -0.03471735    0.02169780   -0.00870503
     The ionic contribution  to forces
     atom    1 type  1   force =    -0.25590050   -4.63920512   14.22599835
     atom    2 type  1   force =   -39.78455675   -6.11139845    0.73917021
     atom    3 type  1   force =   -39.80467285    6.13535206   -0.82192076
     atom    4 type  1   force =    39.58488448   -6.21312138    0.70503484
     atom    5 type  1   force =    38.83149921    6.95647006   -2.03825091
     atom    6 type  2   force =    -0.43532301   -3.77595842  -14.28348594
     atom    7 type  2   force =    -1.03536162    3.13100051   13.90121242
     atom    8 type  3   force =   -52.31095211    0.07451482   -0.09187021
     atom    9 type  3   force =    51.71036438   -0.01506538   -0.30505987
     atom   10 type  3   force =   -36.08525829   -2.07165317  -23.05776517
     atom   11 type  3   force =   -35.18476674   -0.77584462   22.08964414
     atom   12 type  3   force =   -35.26762642    0.78537841  -22.10506029
     atom   13 type  3   force =   -36.18627821    2.20763193   23.12253778
     atom   14 type  3   force =    35.98744193   -2.10770065  -23.14111502
     atom   15 type  3   force =    35.01921248   -0.67784998   22.20090549
     atom   16 type  3   force =    35.15480568    0.80730099  -22.17845495
     atom   17 type  3   force =    35.47427144    2.73904877   24.05589358
     atom   18 type  4   force =    -0.18642958    4.37511098  -14.02576036
     atom   19 type  4   force =   -35.91799801    0.94997709  -25.48065211
     atom   20 type  4   force =   -35.92353241   -1.02259971   25.48130811
     atom   21 type  4   force =    35.81440413    0.97911649  -25.66336370
     atom   22 type  4   force =    35.62718319   -1.38302643   25.73695425
     atom   23 type  5   force =     5.17458956   -0.34747877    0.93410013
     The local contribution  to forces
     atom    1 type  1   force =     0.24943970    4.62211062  -14.24592851
     atom    2 type  1   force =    39.92962565    6.25624968   -0.77489542
     atom    3 type  1   force =    39.94172877   -6.27387118    0.82310053
     atom    4 type  1   force =   -39.72449203    6.36775651   -0.74865983
     atom    5 type  1   force =   -38.96782573   -7.05590185    1.99204881
     atom    6 type  2   force =     0.42947432    3.78429264   14.31482036
     atom    7 type  2   force =     1.03816868   -3.15984707  -13.99832370
     atom    8 type  3   force =    52.50427581   -0.08226252    0.06994328
     atom    9 type  3   force =   -51.90605150   -0.01789879    0.23855243
     atom   10 type  3   force =    36.29443914    2.01638616   23.21337448
     atom   11 type  3   force =    35.40973980    0.73159456  -22.23537095
     atom   12 type  3   force =    35.47592070   -0.70938795   22.24078508
     atom   13 type  3   force =    36.40188718   -2.16120102  -23.25685211
     atom   14 type  3   force =   -36.19583570    2.05727400   23.30472797
     atom   15 type  3   force =   -35.24808246    0.62281196  -22.33302470
     atom   16 type  3   force =   -35.35754541   -0.73352883   22.31357337
     atom   17 type  3   force =   -35.70279731   -2.64884327  -24.14958768
     atom   18 type  4   force =     0.18829784   -4.40114842   14.05018405
     atom   19 type  4   force =    35.74065939   -0.96908275   25.29442317
     atom   20 type  4   force =    35.76750204    1.04419722  -25.29171706
     atom   21 type  4   force =   -35.63983505   -1.00443148   25.47730576
     atom   22 type  4   force =   -35.45381777    1.39108774  -25.55444704
     atom   23 type  5   force =    -5.11750905    0.27781982   -0.84474858
     The core correction contribution to forces
     atom    1 type  1   force =     0.00000726    0.00169788   -0.00069933
     atom    2 type  1   force =    -0.01167170   -0.00166799    0.00067242
     atom    3 type  1   force =    -0.01105335    0.00224823   -0.00087881
     atom    4 type  1   force =     0.01250539   -0.00191924    0.00132960
     atom    5 type  1   force =     0.00844314    0.00150914   -0.00152353
     atom    6 type  2   force =    -0.00034614    0.00167150    0.00187499
     atom    7 type  2   force =     0.00174483   -0.00215903   -0.00326179
     atom    8 type  3   force =    -0.03197941    0.00032080    0.00054695
     atom    9 type  3   force =     0.03192439    0.00125276    0.00324956
     atom   10 type  3   force =    -0.02264905    0.00931918   -0.01616369
     atom   11 type  3   force =    -0.02281630    0.00899541    0.01699786
     atom   12 type  3   force =    -0.02072660   -0.00959269   -0.01599788
     atom   13 type  3   force =    -0.02057940   -0.00968915    0.01494379
     atom   14 type  3   force =     0.02070360    0.01039081   -0.01600021
     atom   15 type  3   force =     0.02434299    0.00900385    0.01695048
     atom   16 type  3   force =     0.02156499   -0.00810757   -0.01598018
     atom   17 type  3   force =     0.01954154   -0.00968409    0.01407753
     atom   18 type  4   force =    -0.00007335   -0.00303036    0.00290206
     atom   19 type  4   force =    -0.00977938   -0.00018813   -0.00967468
     atom   20 type  4   force =    -0.00940541    0.00059716    0.00941240
     atom   21 type  4   force =     0.00944651   -0.00048432   -0.00986808
     atom   22 type  4   force =     0.01063189    0.00103484    0.00817236
     atom   23 type  5   force =     0.00000000    0.00000000    0.00000000
     The Hubbard contrib.    to forces
     atom    1 type  1   force =     0.00000000    0.00000000    0.00000000
     atom    2 type  1   force =     0.00000000    0.00000000    0.00000000
     atom    3 type  1   force =     0.00000000    0.00000000    0.00000000
     atom    4 type  1   force =     0.00000000    0.00000000    0.00000000
     atom    5 type  1   force =     0.00000000    0.00000000    0.00000000
     atom    6 type  2   force =     0.00000000    0.00000000    0.00000000
     atom    7 type  2   force =     0.00000000    0.00000000    0.00000000
     atom    8 type  3   force =     0.00000000    0.00000000    0.00000000
     atom    9 type  3   force =     0.00000000    0.00000000    0.00000000
     atom   10 type  3   force =     0.00000000    0.00000000    0.00000000
     atom   11 type  3   force =     0.00000000    0.00000000    0.00000000
     atom   12 type  3   force =     0.00000000    0.00000000    0.00000000
     atom   13 type  3   force =     0.00000000    0.00000000    0.00000000
     atom   14 type  3   force =     0.00000000    0.00000000    0.00000000
     atom   15 type  3   force =     0.00000000    0.00000000    0.00000000
     atom   16 type  3   force =     0.00000000    0.00000000    0.00000000
     atom   17 type  3   force =     0.00000000    0.00000000    0.00000000
     atom   18 type  4   force =     0.00000000    0.00000000    0.00000000
     atom   19 type  4   force =     0.00000000    0.00000000    0.00000000
     atom   20 type  4   force =     0.00000000    0.00000000    0.00000000
     atom   21 type  4   force =     0.00000000    0.00000000    0.00000000
     atom   22 type  4   force =     0.00000000    0.00000000    0.00000000
     atom   23 type  5   force =     0.00000000    0.00000000    0.00000000
     The SCF correction term to forces
     atom    1 type  1   force =    -0.00175755   -0.00051722    0.00267694
     atom    2 type  1   force =    -0.00252006    0.00210101    0.01414871
     atom    3 type  1   force =    -0.00171255   -0.00378159    0.01384250
     atom    4 type  1   force =     0.00088504    0.00078640    0.01454350
     atom    5 type  1   force =     0.00054779   -0.00263996    0.01467641
     atom    6 type  2   force =    -0.00290026    0.00688053    0.02358457
     atom    7 type  2   force =    -0.00219699    0.00182973    0.00340803
     atom    8 type  3   force =    -0.00321157    0.00197752    0.01307819
     atom    9 type  3   force =     0.00051383    0.00292187    0.01407604
     atom   10 type  3   force =    -0.00332780    0.00504894    0.00401330
     atom   11 type  3   force =    -0.00418766   -0.00290996   -0.01038825
     atom   12 type  3   force =    -0.00246446   -0.00724079    0.00441791
     atom   13 type  3   force =    -0.00387630    0.00097601   -0.01155285
     atom   14 type  3   force =     0.00129838    0.00486758    0.00348921
     atom   15 type  3   force =     0.00345196   -0.00324134   -0.01005774
     atom   16 type  3   force =     0.00075534   -0.00681301    0.00442875
     atom   17 type  3   force =     0.00235027    0.00230649   -0.01091388
     atom   18 type  4   force =    -0.00302440   -0.00467857    0.02113414
     atom   19 type  4   force =    -0.00216385    0.00170852    0.00572685
     atom   20 type  4   force =    -0.00666819    0.00175687   -0.01072116
     atom   21 type  4   force =     0.00018565    0.00171680    0.00355146
     atom   22 type  4   force =     0.00592288    0.00196497   -0.00907990
     atom   23 type  5   force =     0.00031221   -0.00041463    0.00040217

     Total force =     0.496892     Total SCF correction =     0.058988
     SCF correction compared to forces is large: reduce conv_thr to get better values


     Computing stress (Cartesian axis) and pressure


     negative rho (up, down):  9.093E-01 9.093E-01
          total   stress  (Ry/bohr**3)                   (kbar)     P=       83.75
   0.00061953  -0.00000211   0.00002563           91.14       -0.31        3.77
  -0.00000211   0.00068434  -0.00002829           -0.31      100.67       -4.16
   0.00002563  -0.00002829   0.00040416            3.77       -4.16       59.45


     Entering Dynamics:    iteration =    20
                           time      =   0.0041 pico-seconds


ATOMIC_POSITIONS (angstrom)
Hf            2.6707286174        2.8289473392        6.6052423685
Hf            1.2522857005        1.2882187324        5.0596693505
Hf            1.2548312431        7.3920368759        5.0893137867
Hf            4.0891509019        1.2882612157        5.0597110776
Hf            4.0863965507        7.3920541461        5.0890873961
Nb            2.6708865748        2.7988712933        3.5171101311
Nb            2.6703236147        5.8787328760        6.6358895994
Ta            1.2088356683        4.3431005466        5.0723392822
Ta            4.1178558198        4.2988354745        5.0451819717
Ta            1.3076115465        1.3158309800        2.0593047271
Ta            1.3031838637        1.3100860902        8.0964153112
Ta            1.3044448159        7.3783371083        2.0468403433
Ta            1.3083285298        7.3675716635        8.0879396120
Ta            4.0336276932        1.3158979168        2.0593532536
Ta            4.0380425412        1.3100899789        8.0964849461
Ta            4.0368177259        7.3783402873        2.0468551719
Ta            4.0330290231        7.3676348302        8.0879235051
Zr            2.6707397972        5.8689245100        3.5284464801
Zr            1.2416042384        4.3240239349        1.9985795552
Zr            1.2382237561        4.3563555020        8.1536385208
Zr            4.0996912876        4.3240492314        1.9985990561
Zr            4.1030536897        4.3562002491        8.1536873367
H             4.8803861780        6.4814966328        6.4517270549


     kinetic energy (Ekin) =           8.12532061 Ry
     temperature           =       38875.35328507 K 
     Ekin + Etot (const)   =       -2934.96032039 Ry
     Ions kinetic stress =          143.50 (kbar)
                                     35.22          98.17          64.73
                                     98.17         275.47         181.55
                                     64.73         181.55         119.81



     Linear momentum :   -0.0000000000   -0.0000000000    0.0000000000

     The maximum number of steps has been reached.

     End of molecular dynamics calculation

     diffusion coefficients :
     atom     1   D =       0.00000002 cm^2/s
     atom     2   D =       0.00000002 cm^2/s
     atom     3   D =       0.00000003 cm^2/s
     atom     4   D =       0.00000004 cm^2/s
     atom     5   D =       0.00000004 cm^2/s
     atom     6   D =       0.00000003 cm^2/s
     atom     7   D =       0.00000003 cm^2/s
     atom     8   D =       0.00000003 cm^2/s
     atom     9   D =       0.00001070 cm^2/s
     atom    10   D =       0.00000001 cm^2/s
     atom    11   D =       0.00000003 cm^2/s
     atom    12   D =       0.00000003 cm^2/s
     atom    13   D =       0.00000004 cm^2/s
     atom    14   D =       0.00000002 cm^2/s
     atom    15   D =       0.00000003 cm^2/s
     atom    16   D =       0.00000003 cm^2/s
     atom    17   D =       0.00000004 cm^2/s
     atom    18   D =       0.00000004 cm^2/s
     atom    19   D =       0.00000004 cm^2/s
     atom    20   D =       0.00000010 cm^2/s
     atom    21   D =       0.00000007 cm^2/s
     atom    22   D =       0.00000013 cm^2/s
     atom    23   D =       0.00182272 cm^2/s

     < D > =       0.00007975 cm^2/s

     Writing all to output data dir outdir/pwscf.save/

     init_run     :     10.36s CPU     11.61s WALL (       1 calls)
     electrons    :   2128.47s CPU   2557.87s WALL (      20 calls)
     update_pot   :     17.96s CPU     20.33s WALL (      19 calls)
     forces       :    196.24s CPU    245.41s WALL (      20 calls)
     stress       :    367.98s CPU    414.93s WALL (      20 calls)

     Called by init_run:
     wfcinit      :      7.90s CPU      8.72s WALL (       1 calls)
     potinit      :      0.45s CPU      0.48s WALL (       1 calls)
     hinit0       :      0.93s CPU      1.05s WALL (       1 calls)

     Called by electrons:
     c_bands      :   1748.35s CPU   2104.93s WALL (      98 calls)
     sum_band     :    249.40s CPU    298.00s WALL (      98 calls)
     v_of_rho     :      9.73s CPU     11.81s WALL (     118 calls)
     newd         :    155.64s CPU    182.71s WALL (     118 calls)
     mix_rho      :      0.97s CPU      1.19s WALL (      98 calls)

     Called by c_bands:
     init_us_2    :      4.02s CPU      4.15s WALL (     474 calls)
     init_us_2:cp :      4.02s CPU      4.15s WALL (     474 calls)
     regterg      :   1735.56s CPU   2089.52s WALL (     196 calls)

     Called by *egterg:
     rdiaghg      :     56.82s CPU     72.45s WALL (    1545 calls)
     h_psi        :    900.17s CPU   1004.88s WALL (    1585 calls)
     s_psi        :    293.89s CPU    294.55s WALL (    1585 calls)
     g_psi        :      0.66s CPU      0.72s WALL (    1387 calls)

     Called by h_psi:
     h_psi:calbec :    429.41s CPU    501.42s WALL (    1585 calls)
     vloc_psi     :     92.42s CPU    123.92s WALL (    1585 calls)
     add_vuspsi   :    376.99s CPU    378.11s WALL (    1585 calls)

     General routines
     calbec       :    717.36s CPU    863.33s WALL (    1981 calls)
     fft          :      8.33s CPU     25.38s WALL (    2469 calls)
     ffts         :      0.21s CPU      0.26s WALL (      98 calls)
     fftw         :     99.16s CPU    133.68s WALL (  104952 calls)

     Parallel routines

     PWSCF        :  45m56.74s CPU  54m52.04s WALL


   This run was terminated on:   6: 0:14  15Jun2023            

=------------------------------------------------------------------------------=
   JOB DONE.
=------------------------------------------------------------------------------=
