
     Program PWSCF v.7.2 starts on 12Jun2023 at 14:11: 8 

     This program is part of the open-source Quantum ESPRESSO suite
     for quantum simulation of materials; please cite
         "P. Giannozzi et al., J. Phys.:Condens. Matter 21 395502 (2009);
         "P. Giannozzi et al., J. Phys.:Condens. Matter 29 465901 (2017);
         "P. Giannozzi et al., J. Chem. Phys. 152 154105 (2020);
          URL http://www.quantum-espresso.org", 
     in publications or presentations arising from this work. More details at
     http://www.quantum-espresso.org/quote

     Parallel version (MPI), running on    42 processors

     MPI processes distributed on     1 nodes
     181698 MiB available memory on the printing compute node when the environment starts

     Reading input from md_data/md_Hf5Nb2Ta10Zr5H_12steps_1000eV_incident75_polar0.in
Warning: card &CELL ignored
Warning: card / ignored

     Current dimensions of program PWSCF are:
     Max number of different atomic species (ntypx) = 10
     Max number of k-points (npk) =  40000
     Max angular momentum in pseudopotentials (lmaxx) =  4

     File outdir/pwscf.md deleted, as requested

     gamma-point specific algorithms are used

     R & G space division:  proc/nbgrp/npool/nimage =      42
     Subspace diagonalization in iterative solution of the eigenvalue problem:
     one sub-group per band group will be used
     custom distributed-memory algorithm (size of sub-group:  2*  2 procs)


     Parallelization info
     --------------------
     sticks:   dense  smooth     PW     G-vecs:    dense   smooth      PW
     Min         262     262     63                23470    23470    2920
     Max         265     265     66                23484    23484    2942
     Sum       11057   11057   2753               986005   986005  123175

     Using Slab Decomposition



     bravais-lattice index     =            0
     lattice parameter (alat)  =      17.6500  a.u.
     unit-cell volume          =    5552.8853 (a.u.)^3
     number of atoms/cell      =           23
     number of atomic types    =            5
     number of electrons       =       277.00
     number of Kohn-Sham states=          167
     kinetic-energy cutoff     =     120.0000  Ry
     charge density cutoff     =     480.0000  Ry
     scf convergence threshold =      1.0E-03
     mixing beta               =       0.7000
     number of iterations used =            8  TF        mixing
     energy convergence thresh.=      0.0E+00
     force convergence thresh. =      0.0E+00
     Exchange-correlation=  SLA  PW   PBX  PBC
                           (   1   4   3   4   0   0   0)
     nstep                     =           12


     celldm(1)=  17.650041  celldm(2)=   0.000000  celldm(3)=   0.000000
     celldm(4)=   0.000000  celldm(5)=   0.000000  celldm(6)=   0.000000

     crystal axes: (cart. coord. in units of alat)
               a(1) = (   1.000000   0.000000   0.000000 )  
               a(2) = (   0.000000   0.929336   0.000000 )  
               a(3) = (   0.000000   0.000000   1.086698 )  

     reciprocal axes: (cart. coord. in units 2 pi/alat)
               b(1) = (  1.000000  0.000000  0.000000 )  
               b(2) = (  0.000000  1.076037  0.000000 )  
               b(3) = (  0.000000  0.000000  0.920219 )  


     PseudoPot. # 1 for Hf read from file:
     q-e/pseudo/hf_pbe_v1.uspp.F.UPF
     MD5 check sum: 8ee9378dfe14276e333edf04c5e4aa26
     Pseudo is Ultrasoft + core correction, Zval = 12.0
     Generated by new atomic code, or converted to UPF format
     Using radial grid of  921 points,  8 beta functions with: 
                l(1) =   0
                l(2) =   0
                l(3) =   0
                l(4) =   1
                l(5) =   1
                l(6) =   2
                l(7) =   2
                l(8) =   3
     Q(r) pseudized with  6 coefficients,  rinner =    1.200   1.200   1.200
                                                       1.200   1.200   1.200
                                                       1.200

     PseudoPot. # 2 for Nb read from file:
     q-e/pseudo/nb_pbe_v1.uspp.F.UPF
     MD5 check sum: 573aab8a2fa660278ed4a62cd769473f
     Pseudo is Ultrasoft + core correction, Zval = 13.0
     Generated by new atomic code, or converted to UPF format
     Using radial grid of  887 points,  6 beta functions with: 
                l(1) =   0
                l(2) =   0
                l(3) =   1
                l(4) =   1
                l(5) =   2
                l(6) =   2
     Q(r) pseudized with  6 coefficients,  rinner =    1.000   1.000   1.000
                                                       1.000   1.000

     PseudoPot. # 3 for Ta read from file:
     q-e/pseudo/ta_pbe_v1.uspp.F.UPF
     MD5 check sum: f8bbe9446314a3b8ea5d9f3e3836c939
     Pseudo is Ultrasoft + core correction, Zval = 13.0
     Generated by new atomic code, or converted to UPF format
     Using radial grid of  921 points,  7 beta functions with: 
                l(1) =   0
                l(2) =   0
                l(3) =   1
                l(4) =   1
                l(5) =   2
                l(6) =   2
                l(7) =   3
     Q(r) pseudized with  6 coefficients,  rinner =    1.300   1.300   1.300
                                                       1.300   1.300   1.300
                                                       1.300

     PseudoPot. # 4 for Zr read from file:
     q-e/pseudo/zr_pbe_v1.uspp.F.UPF
     MD5 check sum: 5db81b1e868ab7776c4564c113de050b
     Pseudo is Ultrasoft + core correction, Zval = 12.0
     Generated by new atomic code, or converted to UPF format
     Using radial grid of  887 points,  6 beta functions with: 
                l(1) =   0
                l(2) =   0
                l(3) =   1
                l(4) =   1
                l(5) =   2
                l(6) =   2
     Q(r) pseudized with  6 coefficients,  rinner =    1.200   1.200   1.200
                                                       1.200   1.200

     PseudoPot. # 5 for H  read from file:
     q-e/pseudo/h_pbe_v1.4.uspp.F.UPF
     MD5 check sum: 761ae9a214b05c3daf00ab9f6b793d6f
     Pseudo is Ultrasoft, Zval =  1.0
     Generated by new atomic code, or converted to UPF format
     Using radial grid of  615 points,  2 beta functions with: 
                l(1) =   0
                l(2) =   0
     Q(r) pseudized with  8 coefficients,  rinner =    0.700

     atomic species   valence    mass     pseudopotential
        Hf            12.00   178.49000     Hf( 1.00)
        Nb            13.00    92.90637     Nb( 1.00)
        Ta            13.00   180.94788     Ta( 1.00)
        Zr            12.00    91.22400     Zr( 1.00)
        H              1.00   131.00000     H ( 1.00)

     Starting magnetic structure 
     atomic species   magnetization
        Hf           0.000
        Nb           0.000
        Ta           0.000
        Zr           0.000
        H            0.000

     No symmetry found



   Cartesian axes

     site n.     atom                  positions (alat units)
         1           Hf  tau(   1) = (   0.2858672   0.3026898   0.7070626  )
         2           Hf  tau(   2) = (   0.1341532   0.1377178   0.5415917  )
         3           Hf  tau(   3) = (   0.1344204   0.7911996   0.5447610  )
         4           Hf  tau(   4) = (   0.4375813   0.1377178   0.5415917  )
         5           Hf  tau(   5) = (   0.4373140   0.7911996   0.5447610  )
         6           Nb  tau(   6) = (   0.2858672   0.2994572   0.3764008  )
         7           Nb  tau(   7) = (   0.2858672   0.6291626   0.7103852  )
         8           Ta  tau(   8) = (   0.1294832   0.4647675   0.5429471  )
         9           Ta  tau(   9) = (   0.4422513   0.4647675   0.5429471  )
        10           Ta  tau(  10) = (   0.1399628   0.1406984   0.2204260  )
        11           Ta  tau(  11) = (   0.1394848   0.1400847   0.8666573  )
        12           Ta  tau(  12) = (   0.1396156   0.7897030   0.2190832  )
        13           Ta  tau(  13) = (   0.1400119   0.7885528   0.8657390  )
        14           Ta  tau(  14) = (   0.4317717   0.1406984   0.2204260  )
        15           Ta  tau(  15) = (   0.4322496   0.1400847   0.8666573  )
        16           Ta  tau(  16) = (   0.4321189   0.7897030   0.2190832  )
        17           Ta  tau(  17) = (   0.4317226   0.7885528   0.8657390  )
        18           Zr  tau(  18) = (   0.2858672   0.6280820   0.3776642  )
        19           Zr  tau(  19) = (   0.1331729   0.4627493   0.2141328  )
        20           Zr  tau(  20) = (   0.1328036   0.4661802   0.8725649  )
        21           Zr  tau(  21) = (   0.4385616   0.4627493   0.2141328  )
        22           Zr  tau(  22) = (   0.4389309   0.4661802   0.8725649  )
        23           H   tau(  23) = (   0.4976729   0.6715045   0.5430600  )

     number of k points=     1  Gaussian smearing, width (Ry)=  0.0220
                       cart. coord. in units 2pi/alat
        k(    1) = (   0.0000000   0.0000000   0.0000000), wk =   1.0000000

     Dense  grid:   493003 G-vectors     FFT dimensions: ( 125, 120, 135)

     Estimated max dynamical RAM per process >     133.03 MB

     Estimated total dynamical RAM >       5.46 GB

     Check: negative core charge=   -0.000002
     Generating pointlists ...
     new r_m :   0.0553 (alat units)  0.9761 (a.u.) for type    1
     new r_m :   0.1098 (alat units)  1.9374 (a.u.) for type    2
     new r_m :   0.0883 (alat units)  1.5583 (a.u.) for type    3
     new r_m :   0.1112 (alat units)  1.9625 (a.u.) for type    4
     new r_m :   0.0553 (alat units)  0.9761 (a.u.) for type    5

     Initial potential from superposition of free atoms

     starting charge     266.9726, renormalised to     277.0000

     negative rho (up, down):  9.211E-01 9.211E-01
     Starting wfcs are  287 randomized atomic wfcs

     total cpu time spent up to now is       12.5 secs

     Self-consistent Calculation

     iteration #  1     ecut=   120.00 Ry     beta= 0.70
     Davidson diagonalization with overlap
     ethr =  1.00E-02,  avg # of iterations =  2.0

     negative rho (up, down):  9.927E-01 9.923E-01

     total cpu time spent up to now is       32.4 secs

     total energy              =   -2930.58431981 Ry
     estimated scf accuracy    <     275.85505655 Ry

     total magnetization       =    -0.00 Bohr mag/cell
     absolute magnetization    =     0.09 Bohr mag/cell

     iteration #  2     ecut=   120.00 Ry     beta= 0.70
     Davidson diagonalization with overlap
     ethr =  1.00E-02,  avg # of iterations =  5.0

     negative rho (up, down):  9.673E-01 9.665E-01

     total cpu time spent up to now is       53.7 secs

     total energy              =   -2941.92298597 Ry
     estimated scf accuracy    <      29.81418509 Ry

     total magnetization       =    -0.02 Bohr mag/cell
     absolute magnetization    =     0.11 Bohr mag/cell

     iteration #  3     ecut=   120.00 Ry     beta= 0.70
     Davidson diagonalization with overlap
     ethr =  1.00E-02,  avg # of iterations =  2.0

     negative rho (up, down):  1.001E+00 9.999E-01

     total cpu time spent up to now is       72.2 secs

     total energy              =   -2942.29453221 Ry
     estimated scf accuracy    <      13.12204740 Ry

     total magnetization       =    -0.02 Bohr mag/cell
     absolute magnetization    =     0.11 Bohr mag/cell

     iteration #  4     ecut=   120.00 Ry     beta= 0.70
     Davidson diagonalization with overlap
     ethr =  4.74E-03,  avg # of iterations =  5.0

     negative rho (up, down):  1.003E+00 1.002E+00

     total cpu time spent up to now is       90.2 secs

     total energy              =   -2942.62701708 Ry
     estimated scf accuracy    <       2.93715729 Ry

     total magnetization       =    -0.07 Bohr mag/cell
     absolute magnetization    =     0.19 Bohr mag/cell

     iteration #  5     ecut=   120.00 Ry     beta= 0.70
     Davidson diagonalization with overlap
     ethr =  1.06E-03,  avg # of iterations =  7.0

     negative rho (up, down):  9.797E-01 9.785E-01

     total cpu time spent up to now is      121.7 secs

     total energy              =   -2942.76049617 Ry
     estimated scf accuracy    <       1.26550550 Ry

     total magnetization       =    -0.01 Bohr mag/cell
     absolute magnetization    =     0.12 Bohr mag/cell

     iteration #  6     ecut=   120.00 Ry     beta= 0.70
     Davidson diagonalization with overlap
     ethr =  4.57E-04,  avg # of iterations =  3.0

     negative rho (up, down):  9.705E-01 9.694E-01

     total cpu time spent up to now is      158.9 secs

     total energy              =   -2942.77546172 Ry
     estimated scf accuracy    <       1.10134664 Ry

     total magnetization       =    -0.02 Bohr mag/cell
     absolute magnetization    =     0.09 Bohr mag/cell

     iteration #  7     ecut=   120.00 Ry     beta= 0.70
     Davidson diagonalization with overlap
     ethr =  3.98E-04,  avg # of iterations =  2.0

     negative rho (up, down):  9.411E-01 9.409E-01

     total cpu time spent up to now is      188.5 secs

     total energy              =   -2942.73884484 Ry
     estimated scf accuracy    <       0.30874565 Ry

     total magnetization       =    -0.02 Bohr mag/cell
     absolute magnetization    =     0.08 Bohr mag/cell

     iteration #  8     ecut=   120.00 Ry     beta= 0.70
     Davidson diagonalization with overlap
     ethr =  1.11E-04,  avg # of iterations =  8.0

     negative rho (up, down):  9.201E-01 9.202E-01

     total cpu time spent up to now is      208.8 secs

     total energy              =   -2942.73037887 Ry
     estimated scf accuracy    <       0.28067786 Ry

     total magnetization       =    -0.02 Bohr mag/cell
     absolute magnetization    =     0.06 Bohr mag/cell

     iteration #  9     ecut=   120.00 Ry     beta= 0.70
     Davidson diagonalization with overlap
     ethr =  1.01E-04,  avg # of iterations =  2.0

     negative rho (up, down):  9.088E-01 9.088E-01

     total cpu time spent up to now is      225.7 secs

     total energy              =   -2942.73325608 Ry
     estimated scf accuracy    <       0.07252185 Ry

     total magnetization       =    -0.01 Bohr mag/cell
     absolute magnetization    =     0.05 Bohr mag/cell

     iteration # 10     ecut=   120.00 Ry     beta= 0.70
     Davidson diagonalization with overlap
     ethr =  2.62E-05,  avg # of iterations = 13.5

     negative rho (up, down):  9.070E-01 9.070E-01

     total cpu time spent up to now is      247.7 secs

     total energy              =   -2942.73556940 Ry
     estimated scf accuracy    <       0.04271114 Ry

     total magnetization       =    -0.01 Bohr mag/cell
     absolute magnetization    =     0.04 Bohr mag/cell

     iteration # 11     ecut=   120.00 Ry     beta= 0.70
     Davidson diagonalization with overlap
