
     Program PWSCF v.7.2 starts on 13Jun2023 at  6: 8:29 

     This program is part of the open-source Quantum ESPRESSO suite
     for quantum simulation of materials; please cite
         "P. Giannozzi et al., J. Phys.:Condens. Matter 21 395502 (2009);
         "P. Giannozzi et al., J. Phys.:Condens. Matter 29 465901 (2017);
         "P. Giannozzi et al., J. Chem. Phys. 152 154105 (2020);
          URL http://www.quantum-espresso.org", 
     in publications or presentations arising from this work. More details at
     http://www.quantum-espresso.org/quote

     Parallel version (MPI), running on    42 processors

     MPI processes distributed on     1 nodes
     179767 MiB available memory on the printing compute node when the environment starts

     Reading input from md_data/md_Hf5Nb2Ta10Zr5H_20steps_100eV_incident0_polar90.in
Warning: card &CELL ignored
Warning: card / ignored

     Current dimensions of program PWSCF are:
     Max number of different atomic species (ntypx) = 10
     Max number of k-points (npk) =  40000
     Max angular momentum in pseudopotentials (lmaxx) =  4

     File outdir/pwscf.md deleted, as requested

     gamma-point specific algorithms are used

     R & G space division:  proc/nbgrp/npool/nimage =      42
     Subspace diagonalization in iterative solution of the eigenvalue problem:
     one sub-group per band group will be used
     custom distributed-memory algorithm (size of sub-group:  2*  2 procs)


     Parallelization info
     --------------------
     sticks:   dense  smooth     PW     G-vecs:    dense   smooth      PW
     Min         262     262     63                23470    23470    2920
     Max         265     265     66                23484    23484    2942
     Sum       11057   11057   2753               986005   986005  123175

     Using Slab Decomposition



     bravais-lattice index     =            0
     lattice parameter (alat)  =      17.6500  a.u.
     unit-cell volume          =    5552.8853 (a.u.)^3
     number of atoms/cell      =           23
     number of atomic types    =            5
     number of electrons       =       277.00
     number of Kohn-Sham states=          167
     kinetic-energy cutoff     =     120.0000  Ry
     charge density cutoff     =     480.0000  Ry
     scf convergence threshold =      1.0E-03
     mixing beta               =       0.7000
     number of iterations used =            8  TF        mixing
     energy convergence thresh.=      0.0E+00
     force convergence thresh. =      0.0E+00
     Exchange-correlation=  SLA  PW   PBX  PBC
                           (   1   4   3   4   0   0   0)
     nstep                     =           20


     celldm(1)=  17.650041  celldm(2)=   0.000000  celldm(3)=   0.000000
     celldm(4)=   0.000000  celldm(5)=   0.000000  celldm(6)=   0.000000

     crystal axes: (cart. coord. in units of alat)
               a(1) = (   1.000000   0.000000   0.000000 )  
               a(2) = (   0.000000   0.929336   0.000000 )  
               a(3) = (   0.000000   0.000000   1.086698 )  

     reciprocal axes: (cart. coord. in units 2 pi/alat)
               b(1) = (  1.000000  0.000000  0.000000 )  
               b(2) = (  0.000000  1.076037  0.000000 )  
               b(3) = (  0.000000  0.000000  0.920219 )  


     PseudoPot. # 1 for Hf read from file:
     q-e/pseudo/hf_pbe_v1.uspp.F.UPF
     MD5 check sum: 8ee9378dfe14276e333edf04c5e4aa26
     Pseudo is Ultrasoft + core correction, Zval = 12.0
     Generated by new atomic code, or converted to UPF format
     Using radial grid of  921 points,  8 beta functions with: 
                l(1) =   0
                l(2) =   0
                l(3) =   0
                l(4) =   1
                l(5) =   1
                l(6) =   2
                l(7) =   2
                l(8) =   3
     Q(r) pseudized with  6 coefficients,  rinner =    1.200   1.200   1.200
                                                       1.200   1.200   1.200
                                                       1.200

     PseudoPot. # 2 for Nb read from file:
     q-e/pseudo/nb_pbe_v1.uspp.F.UPF
     MD5 check sum: 573aab8a2fa660278ed4a62cd769473f
     Pseudo is Ultrasoft + core correction, Zval = 13.0
     Generated by new atomic code, or converted to UPF format
     Using radial grid of  887 points,  6 beta functions with: 
                l(1) =   0
                l(2) =   0
                l(3) =   1
                l(4) =   1
                l(5) =   2
                l(6) =   2
     Q(r) pseudized with  6 coefficients,  rinner =    1.000   1.000   1.000
                                                       1.000   1.000

     PseudoPot. # 3 for Ta read from file:
     q-e/pseudo/ta_pbe_v1.uspp.F.UPF
     MD5 check sum: f8bbe9446314a3b8ea5d9f3e3836c939
     Pseudo is Ultrasoft + core correction, Zval = 13.0
     Generated by new atomic code, or converted to UPF format
     Using radial grid of  921 points,  7 beta functions with: 
                l(1) =   0
                l(2) =   0
                l(3) =   1
                l(4) =   1
                l(5) =   2
                l(6) =   2
                l(7) =   3
     Q(r) pseudized with  6 coefficients,  rinner =    1.300   1.300   1.300
                                                       1.300   1.300   1.300
                                                       1.300

     PseudoPot. # 4 for Zr read from file:
     q-e/pseudo/zr_pbe_v1.uspp.F.UPF
     MD5 check sum: 5db81b1e868ab7776c4564c113de050b
     Pseudo is Ultrasoft + core correction, Zval = 12.0
     Generated by new atomic code, or converted to UPF format
     Using radial grid of  887 points,  6 beta functions with: 
                l(1) =   0
                l(2) =   0
                l(3) =   1
                l(4) =   1
                l(5) =   2
                l(6) =   2
     Q(r) pseudized with  6 coefficients,  rinner =    1.200   1.200   1.200
                                                       1.200   1.200

     PseudoPot. # 5 for H  read from file:
     q-e/pseudo/h_pbe_v1.4.uspp.F.UPF
     MD5 check sum: 761ae9a214b05c3daf00ab9f6b793d6f
     Pseudo is Ultrasoft, Zval =  1.0
     Generated by new atomic code, or converted to UPF format
     Using radial grid of  615 points,  2 beta functions with: 
                l(1) =   0
                l(2) =   0
     Q(r) pseudized with  8 coefficients,  rinner =    0.700

     atomic species   valence    mass     pseudopotential
        Hf            12.00   178.49000     Hf( 1.00)
        Nb            13.00    92.90637     Nb( 1.00)
        Ta            13.00   180.94788     Ta( 1.00)
        Zr            12.00    91.22400     Zr( 1.00)
        H              1.00     2.01400     H ( 1.00)

     Starting magnetic structure 
     atomic species   magnetization
        Hf           0.000
        Nb           0.000
        Ta           0.000
        Zr           0.000
        H            0.000

     No symmetry found



   Cartesian axes

     site n.     atom                  positions (alat units)
         1           Hf  tau(   1) = (   0.2858672   0.3026898   0.7070626  )
         2           Hf  tau(   2) = (   0.1341532   0.1377178   0.5415917  )
         3           Hf  tau(   3) = (   0.1344204   0.7911996   0.5447610  )
         4           Hf  tau(   4) = (   0.4375813   0.1377178   0.5415917  )
         5           Hf  tau(   5) = (   0.4373140   0.7911996   0.5447610  )
         6           Nb  tau(   6) = (   0.2858672   0.2994572   0.3764008  )
         7           Nb  tau(   7) = (   0.2858672   0.6291626   0.7103852  )
         8           Ta  tau(   8) = (   0.1294832   0.4647675   0.5429471  )
         9           Ta  tau(   9) = (   0.4422513   0.4647675   0.5429471  )
        10           Ta  tau(  10) = (   0.1399628   0.1406984   0.2204260  )
        11           Ta  tau(  11) = (   0.1394848   0.1400847   0.8666573  )
        12           Ta  tau(  12) = (   0.1396156   0.7897030   0.2190832  )
        13           Ta  tau(  13) = (   0.1400119   0.7885528   0.8657390  )
        14           Ta  tau(  14) = (   0.4317717   0.1406984   0.2204260  )
        15           Ta  tau(  15) = (   0.4322496   0.1400847   0.8666573  )
        16           Ta  tau(  16) = (   0.4321189   0.7897030   0.2190832  )
        17           Ta  tau(  17) = (   0.4317226   0.7885528   0.8657390  )
        18           Zr  tau(  18) = (   0.2858672   0.6280820   0.3776642  )
        19           Zr  tau(  19) = (   0.1331729   0.4627493   0.2141328  )
        20           Zr  tau(  20) = (   0.1328036   0.4661802   0.8725649  )
        21           Zr  tau(  21) = (   0.4385616   0.4627493   0.2141328  )
        22           Zr  tau(  22) = (   0.4389309   0.4661802   0.8725649  )
        23           H   tau(  23) = (   0.6563841   0.4646681   0.5430600  )

     number of k points=     1  Gaussian smearing, width (Ry)=  0.0220
                       cart. coord. in units 2pi/alat
        k(    1) = (   0.0000000   0.0000000   0.0000000), wk =   1.0000000

     Dense  grid:   493003 G-vectors     FFT dimensions: ( 125, 120, 135)

     Estimated max dynamical RAM per process >     133.03 MB

     Estimated total dynamical RAM >       5.46 GB

     Check: negative core charge=   -0.000002
     Generating pointlists ...
     new r_m :   0.1117 (alat units)  1.9717 (a.u.) for type    1
     new r_m :   0.1098 (alat units)  1.9374 (a.u.) for type    2
     new r_m :   0.0883 (alat units)  1.5590 (a.u.) for type    3
     new r_m :   0.1112 (alat units)  1.9625 (a.u.) for type    4
     new r_m :   0.0883 (alat units)  1.5590 (a.u.) for type    5

     Initial potential from superposition of free atoms

     starting charge     266.9726, renormalised to     277.0000

     negative rho (up, down):  9.217E-01 9.217E-01
     Starting wfcs are  287 randomized atomic wfcs

     total cpu time spent up to now is       12.2 secs

     Self-consistent Calculation

     iteration #  1     ecut=   120.00 Ry     beta= 0.70
     Davidson diagonalization with overlap
     ethr =  1.00E-02,  avg # of iterations =  2.0

     negative rho (up, down):  9.979E-01 9.976E-01

     total cpu time spent up to now is       29.6 secs

     total energy              =   -2930.51843033 Ry
     estimated scf accuracy    <     277.34127673 Ry

     total magnetization       =    -0.00 Bohr mag/cell
     absolute magnetization    =     0.09 Bohr mag/cell

     iteration #  2     ecut=   120.00 Ry     beta= 0.70
     Davidson diagonalization with overlap
     ethr =  1.00E-02,  avg # of iterations =  5.0

     negative rho (up, down):  9.713E-01 9.712E-01

     total cpu time spent up to now is       48.5 secs

     total energy              =   -2942.25293483 Ry
     estimated scf accuracy    <      29.79698887 Ry

     total magnetization       =    -0.08 Bohr mag/cell
     absolute magnetization    =     0.28 Bohr mag/cell

     iteration #  3     ecut=   120.00 Ry     beta= 0.70
     Davidson diagonalization with overlap
     ethr =  1.00E-02,  avg # of iterations =  2.0

     negative rho (up, down):  1.010E+00 1.012E+00

     total cpu time spent up to now is       64.7 secs

     total energy              =   -2942.64834416 Ry
     estimated scf accuracy    <      12.87250729 Ry

     total magnetization       =    -0.08 Bohr mag/cell
     absolute magnetization    =     0.38 Bohr mag/cell

     iteration #  4     ecut=   120.00 Ry     beta= 0.70
     Davidson diagonalization with overlap
     ethr =  4.65E-03,  avg # of iterations =  4.0

     negative rho (up, down):  1.019E+00 1.021E+00

     total cpu time spent up to now is       82.9 secs

     total energy              =   -2942.92400623 Ry
     estimated scf accuracy    <       3.24333853 Ry

     total magnetization       =    -0.05 Bohr mag/cell
     absolute magnetization    =     0.46 Bohr mag/cell

     iteration #  5     ecut=   120.00 Ry     beta= 0.70
     Davidson diagonalization with overlap
     ethr =  1.17E-03,  avg # of iterations =  7.0

     negative rho (up, down):  9.939E-01 9.954E-01

     total cpu time spent up to now is      127.8 secs

     total energy              =   -2943.04639671 Ry
     estimated scf accuracy    <       1.64784406 Ry

     total magnetization       =    -0.02 Bohr mag/cell
     absolute magnetization    =     0.23 Bohr mag/cell

     iteration #  6     ecut=   120.00 Ry     beta= 0.70
     Davidson diagonalization with overlap
     ethr =  5.95E-04,  avg # of iterations =  3.0

     negative rho (up, down):  9.807E-01 9.816E-01

     total cpu time spent up to now is      161.1 secs

     total energy              =   -2943.09386285 Ry
     estimated scf accuracy    <       1.12935762 Ry

     total magnetization       =    -0.05 Bohr mag/cell
     absolute magnetization    =     0.19 Bohr mag/cell

     iteration #  7     ecut=   120.00 Ry     beta= 0.70
     Davidson diagonalization with overlap
     ethr =  4.08E-04,  avg # of iterations =  2.0

     negative rho (up, down):  9.532E-01 9.536E-01

     total cpu time spent up to now is      176.5 secs

     total energy              =   -2943.03995459 Ry
     estimated scf accuracy    <       0.43796747 Ry

     total magnetization       =    -0.04 Bohr mag/cell
     absolute magnetization    =     0.17 Bohr mag/cell

     iteration #  8     ecut=   120.00 Ry     beta= 0.70
     Davidson diagonalization with overlap
     ethr =  1.58E-04,  avg # of iterations =  6.0

     negative rho (up, down):  9.241E-01 9.240E-01

     total cpu time spent up to now is      193.2 secs

     total energy              =   -2943.04227200 Ry
     estimated scf accuracy    <       0.21081394 Ry

     total magnetization       =    -0.02 Bohr mag/cell
     absolute magnetization    =     0.15 Bohr mag/cell

     iteration #  9     ecut=   120.00 Ry     beta= 0.70
     Davidson diagonalization with overlap
     ethr =  7.61E-05,  avg # of iterations = 10.0

     negative rho (up, down):  9.087E-01 9.087E-01

     total cpu time spent up to now is      209.3 secs

     total energy              =   -2943.03530351 Ry
     estimated scf accuracy    <       0.06215372 Ry

     total magnetization       =    -0.02 Bohr mag/cell
     absolute magnetization    =     0.12 Bohr mag/cell

     iteration # 10     ecut=   120.00 Ry     beta= 0.70
     Davidson diagonalization with overlap
     ethr =  2.24E-05,  avg # of iterations = 16.5

     negative rho (up, down):  9.085E-01 9.086E-01

     total cpu time spent up to now is      229.9 secs

     total energy              =   -2943.04188682 Ry
     estimated scf accuracy    <       0.02740012 Ry

     total magnetization       =    -0.01 Bohr mag/cell
     absolute magnetization    =     0.10 Bohr mag/cell

     iteration # 11     ecut=   120.00 Ry     beta= 0.70
     Davidson diagonalization with overlap
     ethr =  9.89E-06,  avg # of iterations =  3.0

     negative rho (up, down):  9.092E-01 9.093E-01

     total cpu time spent up to now is      252.0 secs

     total energy              =   -2943.04491851 Ry
     estimated scf accuracy    <       0.00937553 Ry

     total magnetization       =    -0.01 Bohr mag/cell
     absolute magnetization    =     0.08 Bohr mag/cell

     iteration # 12     ecut=   120.00 Ry     beta= 0.70
     Davidson diagonalization with overlap
     ethr =  3.38E-06,  avg # of iterations =  6.5

     negative rho (up, down):  9.093E-01 9.094E-01

     total cpu time spent up to now is      291.5 secs

     total energy              =   -2943.04764680 Ry
     estimated scf accuracy    <       0.00178563 Ry

     total magnetization       =    -0.00 Bohr mag/cell
     absolute magnetization    =     0.06 Bohr mag/cell

     iteration # 13     ecut=   120.00 Ry     beta= 0.70
     Davidson diagonalization with overlap
     ethr =  6.45E-07,  avg # of iterations =  5.0

     negative rho (up, down):  9.090E-01 9.090E-01

     Magnetic moment per site  (integrated on atomic sphere of radius R)
     atom   1 (R=0.112)  charge=  9.4616  magn=  0.0001
     atom   2 (R=0.112)  charge=  9.0591  magn=  0.0002
     atom   3 (R=0.112)  charge=  9.0583  magn= -0.0001
     atom   4 (R=0.112)  charge=  9.0550  magn= -0.0001
     atom   5 (R=0.112)  charge=  9.0545  magn= -0.0003
     atom   6 (R=0.110)  charge= 10.3472  magn= -0.0006
     atom   7 (R=0.110)  charge= 10.3481  magn=  0.0001
     atom   8 (R=0.088)  charge=  8.1256  magn= -0.0002
     atom   9 (R=0.088)  charge=  8.1090  magn= -0.0006
     atom  10 (R=0.088)  charge=  8.1059  magn=  0.0001
     atom  11 (R=0.088)  charge=  8.1031  magn= -0.0001
     atom  12 (R=0.088)  charge=  8.1072  magn=  0.0006
     atom  13 (R=0.088)  charge=  8.1053  magn= -0.0006
     atom  14 (R=0.088)  charge=  8.1065  magn=  0.0000
     atom  15 (R=0.088)  charge=  8.1035  magn= -0.0004
     atom  16 (R=0.088)  charge=  8.1084  magn=  0.0004
     atom  17 (R=0.088)  charge=  8.1061  magn= -0.0013
     atom  18 (R=0.111)  charge=  9.4528  magn= -0.0002
     atom  19 (R=0.111)  charge=  9.0050  magn=  0.0036
     atom  20 (R=0.111)  charge=  8.9983  magn= -0.0010
     atom  21 (R=0.111)  charge=  9.0030  magn=  0.0043
     atom  22 (R=0.111)  charge=  8.9956  magn= -0.0013
     atom  23 (R=0.088)  charge=  0.9675  magn=  0.0000

     total cpu time spent up to now is      326.2 secs

     End of self-consistent calculation

 ------ SPIN UP ------------


          k = 0.0000 0.0000 0.0000 ( 61588 PWs)   bands (ev):

   -60.8075 -60.8018 -60.7626 -60.7567 -60.7307 -60.7190 -60.6868 -60.6752
   -60.5273 -60.3901 -54.4370 -54.3763 -54.3131 -54.2527 -52.7150 -46.2842
   -46.2765 -41.6929 -41.6641 -41.5843 -41.5713 -39.8135 -27.8096 -27.8015
   -27.7261 -27.7132 -27.6192 -27.6145 -27.4935 -27.4855 -27.3778 -27.3589
   -27.3062 -27.2939 -27.2852 -27.2611 -27.2496 -27.1967 -27.1864 -27.1561
   -27.1094 -27.0839 -27.0107 -26.9864 -26.9787 -26.9722 -26.9629 -26.9116
   -26.9095 -26.8867 -26.8784 -26.8598 -24.2160 -24.0044 -23.6973 -23.6153
   -23.3570 -23.2195 -23.1931 -23.0942 -22.9731 -22.8997 -22.8869 -22.6675
   -22.5227 -22.4749 -22.4255 -22.3761 -22.3158 -22.2614 -21.7822 -21.7160
   -21.6440 -20.2521 -19.9695 -19.9010 -19.8718 -19.6621 -19.6386 -19.6260
   -19.6107 -19.6031 -19.5609 -19.4324 -19.4005 -18.1601 -17.9598 -17.8394
     1.4718   2.9022   3.0980   3.1459   3.2754   3.4487   3.5151   3.6441
     3.7204   3.8864   3.8907   4.0964   4.2820   4.4838   4.6426   4.6766
     4.7503   4.9808   4.9991   5.0255   5.1028   5.2335   5.2798   5.2873
     5.4142   5.5337   5.5483   5.6930   5.7033   5.7308   5.7414   5.7633
     5.9028   6.0943   6.1778   6.2036   6.2392   6.3071   6.3364   6.3610
     6.5346   6.5823   6.6391   6.6622   6.7566   6.9071   6.9765   7.0087
     7.0722   7.1223   7.2434   7.2615   7.2959   7.3962   7.5312   7.5925
     7.6007   7.6461   7.8813   7.8856   8.0553   8.0822   8.0884   8.1891
     8.2600   8.3252   8.3375   8.3587   8.3803   8.5050   8.5985   8.6324
     8.7597   8.8775   8.8843   9.0369   9.0953   9.2111   9.2567

 ------ SPIN DOWN ----------


          k = 0.0000 0.0000 0.0000 ( 61588 PWs)   bands (ev):

   -60.8072 -60.8027 -60.7623 -60.7576 -60.7302 -60.7195 -60.6863 -60.6757
   -60.5278 -60.3910 -54.4372 -54.3763 -54.3132 -54.2527 -52.7150 -46.2849
   -46.2765 -41.6887 -41.6652 -41.5807 -41.5722 -39.8137 -27.8094 -27.8024
   -27.7258 -27.7142 -27.6194 -27.6154 -27.4936 -27.4856 -27.3780 -27.3591
   -27.3068 -27.2933 -27.2863 -27.2607 -27.2495 -27.1960 -27.1867 -27.1567
   -27.1103 -27.0851 -27.0119 -26.9862 -26.9797 -26.9727 -26.9630 -26.9116
   -26.9101 -26.8862 -26.8792 -26.8606 -24.2161 -24.0045 -23.6976 -23.6154
   -23.3571 -23.2197 -23.1935 -23.0943 -22.9734 -22.8999 -22.8870 -22.6675
   -22.5232 -22.4753 -22.4257 -22.3764 -22.3160 -22.2616 -21.7823 -21.7162
   -21.6440 -20.2475 -19.9715 -19.8958 -19.8683 -19.6582 -19.6389 -19.6239
   -19.6105 -19.6036 -19.5617 -19.4266 -19.4021 -18.1603 -17.9598 -17.8391
     1.4714   2.9019   3.0975   3.1454   3.2747   3.4481   3.5149   3.6439
     3.7199   3.8864   3.8904   4.0965   4.2816   4.4835   4.6428   4.6763
     4.7501   4.9804   4.9989   5.0254   5.1035   5.2339   5.2794   5.2870
     5.4139   5.5336   5.5483   5.6929   5.7041   5.7308   5.7407   5.7640
     5.9027   6.0938   6.1777   6.2036   6.2393   6.3066   6.3366   6.3615
     6.5346   6.5819   6.6394   6.6622   6.7568   6.9072   6.9772   7.0092
     7.0715   7.1222   7.2429   7.2632   7.2958   7.3955   7.5338   7.5927
     7.6007   7.6459   7.8810   7.8847   8.0556   8.0818   8.0884   8.1888
     8.2600   8.3249   8.3372   8.3594   8.3800   8.5048   8.5992   8.6331
     8.7595   8.8775   8.8839   9.0364   9.0962   9.2105   9.2475

     the Fermi energy is     7.2087 ev

!    total energy              =   -2943.04875002 Ry
     estimated scf accuracy    <       0.00064210 Ry
     smearing contrib. (-TS)   =      -0.09722108 Ry
     internal energy E=F+TS    =   -2942.95152895 Ry

     total magnetization       =     0.00 Bohr mag/cell
     absolute magnetization    =     0.05 Bohr mag/cell

     convergence has been achieved in  13 iterations

     negative rho (up, down):  9.090E-01 9.090E-01

     Forces acting on atoms (cartesian axes, Ry/au):

     atom    1 type  1   force =    -0.00816626   -0.02672990    0.01216509
     atom    2 type  1   force =    -0.11503319   -0.01788441   -0.00351499
     atom    3 type  1   force =    -0.11427876    0.01532233    0.00183130
     atom    4 type  1   force =     0.11661295   -0.01713421   -0.00479657
     atom    5 type  1   force =     0.11675186    0.01463619    0.00292145
     atom    6 type  2   force =    -0.00836016   -0.01479013    0.00941993
     atom    7 type  2   force =    -0.00848601    0.01349164   -0.00800288
     atom    8 type  3   force =    -0.12678638    0.00377623   -0.00445429
     atom    9 type  3   force =     0.18183487    0.00366134   -0.00505071
     atom   10 type  3   force =    -0.02322093   -0.03123728   -0.06023364
     atom   11 type  3   force =    -0.02080619   -0.03713743    0.05754461
     atom   12 type  3   force =    -0.01813108    0.03659638   -0.05487720
     atom   13 type  3   force =    -0.01927322    0.03066944    0.06180908
     atom   14 type  3   force =     0.02357421   -0.03152421   -0.05861227
     atom   15 type  3   force =     0.02051272   -0.03575611    0.05540581
     atom   16 type  3   force =     0.01805237    0.03580652   -0.05242601
     atom   17 type  3   force =     0.01917400    0.03057887    0.05992433
     atom   18 type  4   force =    -0.00919886    0.02457372   -0.01635777
     atom   19 type  4   force =    -0.12894691   -0.00461794   -0.11457711
     atom   20 type  4   force =    -0.13440566    0.00616084    0.11812284
     atom   21 type  4   force =     0.13152878   -0.00551572   -0.11644614
     atom   22 type  4   force =     0.13665868    0.00708325    0.11917022
     atom   23 type  5   force =    -0.02960684   -0.00002941    0.00103495
     The non-local contrib.  to forces
     atom    1 type  1   force =    -0.00848068   -0.02063968    0.03561545
     atom    2 type  1   force =    -0.24592764   -0.16467575    0.01715964
     atom    3 type  1   force =    -0.23894848    0.15966723   -0.02697415
     atom    4 type  1   force =     0.26106097   -0.15864172    0.01579953
     atom    5 type  1   force =     0.25522236    0.15367473   -0.02635735
     atom    6 type  2   force =    -0.00991407   -0.04778056   -0.06798560
     atom    7 type  2   force =    -0.01105153    0.05873091    0.06029450
     atom    8 type  3   force =    -0.28254931    0.00087731   -0.00576632
     atom    9 type  3   force =     0.02039849    0.00182050   -0.00716644
     atom   10 type  3   force =    -0.21252372    0.00513772   -0.20901291
     atom   11 type  3   force =    -0.21844414    0.00628588    0.19606741
     atom   12 type  3   force =    -0.20022223   -0.01844802   -0.18121327
     atom   13 type  3   force =    -0.20896935   -0.00458595    0.20880722
     atom   14 type  3   force =     0.21305773    0.00364314   -0.21031675
     atom   15 type  3   force =     0.21960854    0.00766012    0.19772353
     atom   16 type  3   force =     0.20080423   -0.01862725   -0.18319634
     atom   17 type  3   force =     0.20828000   -0.00370374    0.21056966
     atom   18 type  4   force =    -0.01051599    0.05038234   -0.06634594
     atom   19 type  4   force =     0.06411039    0.00979143    0.06727051
     atom   20 type  4   force =     0.05783926   -0.01272995   -0.06183775
     atom   21 type  4   force =    -0.06055474    0.00922249    0.07845547
     atom   22 type  4   force =    -0.05504594   -0.01206704   -0.07304284
     atom   23 type  5   force =    -0.04360959    0.00002327    0.00006279
     The ionic contribution  to forces
     atom    1 type  1   force =    -0.20723043   -4.68228043   14.09728394
     atom    2 type  1   force =   -39.63187116   -6.19103168    0.77963869
     atom    3 type  1   force =   -39.60453236    6.17774612   -0.71356529
     atom    4 type  1   force =    39.41483368   -6.37739708    0.77858452
     atom    5 type  1   force =    39.38669159    6.36441168   -0.71234216
     atom    6 type  2   force =    -0.22010595   -3.64776250  -14.00124731
     atom    7 type  2   force =    -0.22011622    3.68355651   14.03418086
     atom    8 type  3   force =   -51.99616743    0.07189689   -0.06498632
     atom    9 type  3   force =    50.33805845    0.07261935   -0.06581169
     atom   10 type  3   force =   -36.02815752   -2.12600092  -23.10769883
     atom   11 type  3   force =   -35.10231898   -0.87880982   22.11189968
     atom   12 type  3   force =   -35.21225149    0.82818804  -22.16102098
     atom   13 type  3   force =   -36.00226088    2.21254090   23.09053469
     atom   14 type  3   force =    35.92770831   -2.17963506  -23.17829580
     atom   15 type  3   force =    35.00276781   -0.93204678   22.18219868
     atom   16 type  3   force =    35.11292036    0.88109495  -22.23099710
     atom   17 type  3   force =    35.90177180    2.26617159   23.16112887
     atom   18 type  4   force =    -0.20527246    4.44960551  -13.95530340
     atom   19 type  4   force =   -35.85450335    0.95648655  -25.59506919
     atom   20 type  4   force =   -35.83739495   -0.95292704   25.57306801
     atom   21 type  4   force =    35.65497880    0.95524068  -25.80381347
     atom   22 type  4   force =    35.63899643   -0.95194789   25.78152383
     atom   23 type  5   force =     3.74345595    0.00028042    0.00010976
     The local contribution  to forces
     atom    1 type  1   force =     0.20791111    4.67610157  -14.12140886
     atom    2 type  1   force =    39.78483810    6.33442975   -0.80690527
     atom    3 type  1   force =    39.75100892   -6.31953117    0.73921247
     atom    4 type  1   force =   -39.58093144    6.51651623   -0.80734473
     atom    5 type  1   force =   -39.54557206   -6.50288612    0.73923088
     atom    6 type  2   force =     0.22520113    3.68724653   14.05468622
     atom    7 type  2   force =     0.22682848   -3.72568446  -14.10012788
     atom    8 type  3   force =    52.18726568   -0.06922188    0.05474667
     atom    9 type  3   force =   -50.18369493   -0.07000743    0.05569075
     atom   10 type  3   force =    36.24245756    2.08527150   23.26760150
     atom   11 type  3   force =    35.32678724    0.82642633  -22.26264346
     atom   12 type  3   force =    35.42109283   -0.76808871   22.29721193
     atom   13 type  3   force =    36.21745887   -2.17046899  -23.24982574
     atom   14 type  3   force =   -36.14013686    2.13861451   23.33844709
     atom   15 type  3   force =   -35.22780010    0.87590160  -22.33248970
     atom   16 type  3   force =   -35.31966292   -0.81886119   22.36799880
     atom   17 type  3   force =   -36.11395325   -2.22478091  -23.32167809
     atom   18 type  4   force =     0.20950807   -4.48102442   13.98139625
     atom   19 type  4   force =    35.67950607   -0.97182285   25.41759792
     atom   20 type  4   force =    35.65426936    0.97236284  -25.39437758
     atom   21 type  4   force =   -35.47711025   -0.97115742   25.61520227
     atom   22 type  4   force =   -35.45387019    0.97330011  -25.59256095
     atom   23 type  5   force =    -3.72983502   -0.00008845   -0.00063209
     The core correction contribution to forces
     atom    1 type  1   force =     0.00118995    0.00105784   -0.00054531
     atom    2 type  1   force =    -0.01255107   -0.00204955    0.00066626
     atom    3 type  1   force =    -0.01266755    0.00286447   -0.00133706
     atom    4 type  1   force =     0.01298099   -0.00289338    0.00079754
     atom    5 type  1   force =     0.01305856    0.00372751   -0.00157568
     atom    6 type  2   force =     0.00026680    0.00208330    0.00262234
     atom    7 type  2   force =     0.00031049   -0.00265582   -0.00214468
     atom    8 type  3   force =    -0.03361930    0.00035972   -0.00049989
     atom    9 type  3   force =     0.00745950    0.00022981   -0.00047568
     atom   10 type  3   force =    -0.02225621    0.00942044   -0.01650081
     atom   11 type  3   force =    -0.02390689    0.00958435    0.01708780
     atom   12 type  3   force =    -0.02226567   -0.00949327   -0.01605486
     atom   13 type  3   force =    -0.02219510   -0.00910714    0.01713476
     atom   14 type  3   force =     0.02298943    0.01063152   -0.01481440
     atom   15 type  3   force =     0.02423853    0.01149316    0.01523946
     atom   16 type  3   force =     0.02256203   -0.01130660   -0.01410756
     atom   17 type  3   force =     0.02263548   -0.01038475    0.01545282
     atom   18 type  4   force =     0.00043557   -0.00266273    0.00295990
     atom   19 type  4   force =    -0.00997276   -0.00000600   -0.00924650
     atom   20 type  4   force =    -0.00982656    0.00031231    0.00906768
     atom   21 type  4   force =     0.01011071    0.00003542   -0.00977691
     atom   22 type  4   force =     0.00997247    0.00027604    0.00958122
     atom   23 type  5   force =     0.00000000    0.00000000    0.00000000
     The Hubbard contrib.    to forces
     atom    1 type  1   force =     0.00000000    0.00000000    0.00000000
     atom    2 type  1   force =     0.00000000    0.00000000    0.00000000
     atom    3 type  1   force =     0.00000000    0.00000000    0.00000000
     atom    4 type  1   force =     0.00000000    0.00000000    0.00000000
     atom    5 type  1   force =     0.00000000    0.00000000    0.00000000
     atom    6 type  2   force =     0.00000000    0.00000000    0.00000000
     atom    7 type  2   force =     0.00000000    0.00000000    0.00000000
     atom    8 type  3   force =     0.00000000    0.00000000    0.00000000
     atom    9 type  3   force =     0.00000000    0.00000000    0.00000000
     atom   10 type  3   force =     0.00000000    0.00000000    0.00000000
     atom   11 type  3   force =     0.00000000    0.00000000    0.00000000
     atom   12 type  3   force =     0.00000000    0.00000000    0.00000000
     atom   13 type  3   force =     0.00000000    0.00000000    0.00000000
     atom   14 type  3   force =     0.00000000    0.00000000    0.00000000
     atom   15 type  3   force =     0.00000000    0.00000000    0.00000000
     atom   16 type  3   force =     0.00000000    0.00000000    0.00000000
     atom   17 type  3   force =     0.00000000    0.00000000    0.00000000
     atom   18 type  4   force =     0.00000000    0.00000000    0.00000000
     atom   19 type  4   force =     0.00000000    0.00000000    0.00000000
     atom   20 type  4   force =     0.00000000    0.00000000    0.00000000
     atom   21 type  4   force =     0.00000000    0.00000000    0.00000000
     atom   22 type  4   force =     0.00000000    0.00000000    0.00000000
     atom   23 type  5   force =     0.00000000    0.00000000    0.00000000
     The SCF correction term to forces
     atom    1 type  1   force =    -0.00130209   -0.00102252    0.00054712
     atom    2 type  1   force =    -0.00926730    0.00538949    0.00525294
     atom    3 type  1   force =    -0.00888516   -0.00547764    0.00382257
     atom    4 type  1   force =     0.00892288    0.00522841    0.00669381
     atom    5 type  1   force =     0.00760553   -0.00434493    0.00329301
     atom    6 type  2   force =    -0.00355394   -0.00863022    0.02067153
     atom    7 type  2   force =    -0.00420309   -0.00050882   -0.00087843
     atom    8 type  3   force =    -0.00146189   -0.00018913    0.01137881
     atom    9 type  3   force =    -0.00013251   -0.00105420    0.01203959
     atom   10 type  3   force =    -0.00248691   -0.00511933    0.00470466
     atom   11 type  3   force =    -0.00266930   -0.00067750   -0.00553958
     atom   12 type  3   force =    -0.00423041    0.00438501    0.00552722
     atom   13 type  3   force =    -0.00305264    0.00223730   -0.00551461
     atom   14 type  3   force =     0.00020973   -0.00483164    0.00569482
     atom   15 type  3   force =     0.00195207    0.00118247   -0.00793892
     atom   16 type  3   force =     0.00168279    0.00345329    0.00720343
     atom   17 type  3   force =     0.00069409    0.00322336   -0.00622169
     atom   18 type  4   force =    -0.00309992    0.00821970    0.02026266
     atom   19 type  4   force =    -0.00783313    0.00087962    0.00419739
     atom   20 type  4   force =     0.00096134   -0.00091065   -0.00847027
     atom   21 type  4   force =     0.00435839    0.00108979    0.00281374
     atom   22 type  4   force =    -0.00313996   -0.00253129   -0.00700380
     atom   23 type  5   force =     0.00063595   -0.00029797    0.00082173

     Total force =     0.521569     Total SCF correction =     0.050004


     Computing stress (Cartesian axis) and pressure


     negative rho (up, down):  9.090E-01 9.090E-01
          total   stress  (Ry/bohr**3)                   (kbar)     P=       84.87
   0.00069110  -0.00000018   0.00000026          101.66       -0.03        0.04
  -0.00000018   0.00065564  -0.00001375           -0.03       96.45       -2.02
   0.00000026  -0.00001375   0.00038415            0.04       -2.02       56.51


     Molecular Dynamics Calculation

     Starting temperature  =   300.00 K

     temperature is set once at start

     mass Hf               =   178.49
     mass Nb               =    92.91
     mass Ta               =   180.95
     mass Zr               =    91.22
     mass H                =     2.01
     Time step             =     4.20 a.u.,  0.2032 femto-seconds

     Entering Dynamics:    iteration =     1
                           time      =   0.0002 pico-seconds


ATOMIC_POSITIONS (angstrom)
Hf            2.6701254250        2.8271222623        6.6039645676
Hf            1.2531130822        1.2862836683        5.0584661253
Hf            1.2556093222        7.3898047344        5.0880678199
Hf            4.0871382817        1.2862836898        5.0584660885
Hf            4.0846420672        7.3898047147        5.0880678512
Nb            2.6701251985        2.7969297903        3.5155837359
Nb            2.6701251915        5.8763794199        6.6349975021
Ta            1.2094951702        4.3409279585        5.0711257062
Ta            4.1307577062        4.3409279552        5.0711256894
Ta            1.3073777292        1.3141217054        2.0587774055
Ta            1.3029134277        1.3083900850        8.0945808309
Ta            1.3041348113        7.3758271598        2.0462356268
Ta            1.3078359552        7.3650838163        8.0860039700
Ta            4.0328735993        1.3141216973        2.0587774514
Ta            4.0373378826        1.3083901241        8.0945807704
Ta            4.0361165051        7.3758271374        2.0462356961
Ta            4.0324153605        7.3650838138        8.0860039167
Zr            2.6701251429        5.8662872228        3.5273830122
Zr            1.2439530829        4.3220777053        1.9999935683
Zr            1.2405035702        4.3541236303        8.1497621801
Zr            4.0962983806        4.3220776549        1.9999934633
Zr            4.0997478748        4.3541236821        8.1497622389
H             5.9218470205        4.3399998754        5.0721824263


     kinetic energy (Ekin) =           8.09811793 Ry
     temperature           =       38745.20289774 K 
     Ekin + Etot (const)   =       -2934.95063209 Ry
     Ions kinetic stress =          143.02 (kbar)
                                    429.06           0.00           0.00
                                      0.00           0.00           0.00
                                      0.00           0.00           0.00



     Linear momentum :    0.0000000000    0.0000000000    0.0000000000

     File outdir/pwscf.msd.dat deleted, as requested

     Writing config-only to output data dir outdir/pwscf.save/
     NEW-OLD atomic charge density approx. for the potential

     Check: negative core charge=   -0.000002

     negative rho (up, down):  9.089E-01 9.090E-01
     Generating pointlists ...
     new r_m :   0.0791 (alat units)  1.3962 (a.u.) for type    3
     new r_m :   0.0791 (alat units)  1.3962 (a.u.) for type    5

     total cpu time spent up to now is      350.5 secs

     Self-consistent Calculation

     iteration #  1     ecut=   120.00 Ry     beta= 0.70
     Davidson diagonalization with overlap
     c_bands:  1 eigenvalues not converged
     ethr =  1.00E-06,  avg # of iterations = 13.5

     negative rho (up, down):  9.090E-01 9.091E-01

     total cpu time spent up to now is      382.0 secs

     total energy              =   -2943.04332777 Ry
     estimated scf accuracy    <       0.06963603 Ry

     total magnetization       =     0.00 Bohr mag/cell
     absolute magnetization    =     0.04 Bohr mag/cell

     iteration #  2     ecut=   120.00 Ry     beta= 0.70
     Davidson diagonalization with overlap
     ethr =  2.51E-05,  avg # of iterations =  2.0

     negative rho (up, down):  9.090E-01 9.090E-01

     total cpu time spent up to now is      398.7 secs

     total energy              =   -2943.04848290 Ry
     estimated scf accuracy    <       0.02689121 Ry

     total magnetization       =     0.00 Bohr mag/cell
     absolute magnetization    =     0.03 Bohr mag/cell

     iteration #  3     ecut=   120.00 Ry     beta= 0.70
     Davidson diagonalization with overlap
     ethr =  9.71E-06,  avg # of iterations =  1.0

     negative rho (up, down):  9.090E-01 9.090E-01

     total cpu time spent up to now is      428.7 secs

     total energy              =   -2943.04997824 Ry
     estimated scf accuracy    <       0.00226705 Ry

     total magnetization       =     0.00 Bohr mag/cell
     absolute magnetization    =     0.03 Bohr mag/cell

     iteration #  4     ecut=   120.00 Ry     beta= 0.70
     Davidson diagonalization with overlap
     ethr =  8.18E-07,  avg # of iterations =  8.0

     negative rho (up, down):  9.090E-01 9.090E-01

     Magnetic moment per site  (integrated on atomic sphere of radius R)
     atom   1 (R=0.112)  charge=  9.4640  magn=  0.0001
     atom   2 (R=0.112)  charge=  9.0582  magn=  0.0001
     atom   3 (R=0.112)  charge=  9.0585  magn=  0.0000
     atom   4 (R=0.112)  charge=  9.0545  magn= -0.0000
     atom   5 (R=0.112)  charge=  9.0546  magn= -0.0001
     atom   6 (R=0.110)  charge= 10.3492  magn= -0.0001
     atom   7 (R=0.110)  charge= 10.3491  magn=  0.0001
     atom   8 (R=0.079)  charge=  7.1163  magn= -0.0001
     atom   9 (R=0.079)  charge=  7.1151  magn= -0.0000
     atom  10 (R=0.079)  charge=  7.0983  magn=  0.0001
     atom  11 (R=0.079)  charge=  7.0972  magn= -0.0000
     atom  12 (R=0.079)  charge=  7.0982  magn=  0.0002
     atom  13 (R=0.079)  charge=  7.0981  magn= -0.0003
     atom  14 (R=0.079)  charge=  7.0982  magn=  0.0001
     atom  15 (R=0.079)  charge=  7.0977  magn= -0.0001
     atom  16 (R=0.079)  charge=  7.0993  magn=  0.0001
     atom  17 (R=0.079)  charge=  7.0979  magn= -0.0006
     atom  18 (R=0.111)  charge=  9.4553  magn= -0.0001
     atom  19 (R=0.111)  charge=  8.9958  magn=  0.0024
     atom  20 (R=0.111)  charge=  8.9990  magn= -0.0009
     atom  21 (R=0.111)  charge=  8.9930  magn=  0.0022
     atom  22 (R=0.111)  charge=  8.9960  magn= -0.0010
     atom  23 (R=0.079)  charge=  0.9320  magn= -0.0000

     total cpu time spent up to now is      464.7 secs

     End of self-consistent calculation

 ------ SPIN UP ------------


          k = 0.0000 0.0000 0.0000 ( 61588 PWs)   bands (ev):

   -60.7871 -60.7813 -60.7422 -60.7361 -60.7084 -60.7015 -60.6646 -60.6578
   -60.5028 -60.2539 -54.4117 -54.3524 -54.2876 -54.2286 -52.6990 -46.2704
   -46.2516 -41.6560 -41.6443 -41.5525 -41.5477 -39.8098 -27.7890 -27.7825
   -27.7053 -27.6945 -27.5985 -27.5944 -27.4742 -27.4653 -27.3529 -27.3393
   -27.2747 -27.2721 -27.2649 -27.2398 -27.2307 -27.1749 -27.1682 -27.1308
   -27.0881 -26.9919 -26.9669 -26.9622 -26.9525 -26.9368 -26.9014 -26.8914
   -26.8865 -26.8648 -26.8603 -26.7718 -24.1929 -23.9803 -23.6766 -23.5929
   -23.3346 -23.1967 -23.1713 -23.0716 -22.9507 -22.8778 -22.8635 -22.6446
   -22.5048 -22.4551 -22.4047 -22.3550 -22.2953 -22.2399 -21.7648 -21.6979
   -21.6294 -20.2173 -19.9502 -19.8647 -19.8383 -19.6293 -19.6165 -19.5989
   -19.5856 -19.5838 -19.5422 -19.3924 -19.3808 -18.1560 -17.9513 -17.8299
     1.4708   2.9199   3.0075   3.1379   3.2813   3.4662   3.5288   3.6509
     3.7342   3.9089   3.9103   4.1112   4.2974   4.5042   4.6478   4.6925
     4.7721   4.8961   4.9993   5.0426   5.1143   5.2521   5.2968   5.3013
     5.4161   5.5521   5.5694   5.7165   5.7227   5.7505   5.7672   5.7787
     5.9203   6.1140   6.1935   6.2230   6.2574   6.3378   6.3564   6.3800
     6.5579   6.6017   6.6562   6.6781   6.7724   6.9250   6.9964   7.0245
     7.0849   7.1392   7.2610   7.2702   7.3135   7.4118   7.5529   7.6054
     7.6141   7.6646   7.8974   7.9025   8.0775   8.0895   8.1069   8.2094
     8.2787   8.3438   8.3567   8.3792   8.4014   8.5191   8.6228   8.6533
     8.7763   8.8894   8.9112   9.0522   9.1072   9.2390   9.2761

 ------ SPIN DOWN ----------


          k = 0.0000 0.0000 0.0000 ( 61588 PWs)   bands (ev):

   -60.7870 -60.7818 -60.7420 -60.7366 -60.7082 -60.7018 -60.6643 -60.6581
   -60.5030 -60.2541 -54.4117 -54.3523 -54.2876 -54.2286 -52.6990 -46.2706
   -46.2515 -41.6538 -41.6452 -41.5533 -41.5454 -39.8099 -27.7889 -27.7829
   -27.7051 -27.6950 -27.5986 -27.5948 -27.4745 -27.4652 -27.3529 -27.3395
   -27.2746 -27.2723 -27.2654 -27.2398 -27.2306 -27.1747 -27.1683 -27.1310
   -27.0884 -26.9922 -26.9666 -26.9628 -26.9527 -26.9369 -26.9016 -26.8917
   -26.8865 -26.8646 -26.8608 -26.7720 -24.1928 -23.9802 -23.6766 -23.5928
   -23.3346 -23.1967 -23.1714 -23.0716 -22.9507 -22.8779 -22.8635 -22.6446
   -22.5048 -22.4551 -22.4047 -22.3550 -22.2953 -22.2399 -21.7648 -21.6978
   -21.6293 -20.2147 -19.9519 -19.8619 -19.8359 -19.6281 -19.6165 -19.5989
   -19.5846 -19.5842 -19.5429 -19.3890 -19.3821 -18.1561 -17.9513 -17.8297
     1.4707   2.9198   3.0074   3.1378   3.2812   3.4659   3.5288   3.6509
     3.7341   3.9090   3.9101   4.1114   4.2973   4.5041   4.6479   4.6924
     4.7721   4.8961   4.9992   5.0427   5.1147   5.2524   5.2967   5.3011
     5.4160   5.5522   5.5695   5.7165   5.7230   5.7507   5.7673   5.7790
     5.9203   6.1138   6.1935   6.2230   6.2575   6.3377   6.3565   6.3804
     6.5579   6.6016   6.6562   6.6781   6.7725   6.9252   6.9969   7.0247
     7.0845   7.1392   7.2609   7.2710   7.3135   7.4115   7.5546   7.6057
     7.6141   7.6645   7.8974   7.9022   8.0776   8.0894   8.1070   8.2093
     8.2787   8.3437   8.3567   8.3795   8.4013   8.5191   8.6231   8.6537
     8.7764   8.8892   8.9114   9.0521   9.1079   9.2389   9.2675

     the Fermi energy is     7.2243 ev

!    total energy              =   -2943.04989011 Ry
     estimated scf accuracy    <       0.00042313 Ry
     smearing contrib. (-TS)   =      -0.09733743 Ry
     internal energy E=F+TS    =   -2942.95255268 Ry

     total magnetization       =     0.00 Bohr mag/cell
     absolute magnetization    =     0.03 Bohr mag/cell

     convergence has been achieved in   4 iterations

     negative rho (up, down):  9.090E-01 9.090E-01

     Forces acting on atoms (cartesian axes, Ry/au):

     atom    1 type  1   force =    -0.00963834   -0.02859289    0.01402665
     atom    2 type  1   force =    -0.12049653   -0.01624332    0.00149629
     atom    3 type  1   force =    -0.11979366    0.01403041    0.00584587
     atom    4 type  1   force =     0.12160092   -0.01597963    0.00078030
     atom    5 type  1   force =     0.12098961    0.01434963    0.00675531
     atom    6 type  2   force =    -0.00866039   -0.01661554    0.00720070
     atom    7 type  2   force =    -0.00891423    0.01420901   -0.00833910
     atom    8 type  3   force =    -0.13089288    0.00340206   -0.00142520
     atom    9 type  3   force =     0.12995977    0.00311352   -0.00233770
     atom   10 type  3   force =    -0.02409501   -0.03246813   -0.06036953
     atom   11 type  3   force =    -0.02164814   -0.03693952    0.05370240
     atom   12 type  3   force =    -0.01974309    0.03772413   -0.05475065
     atom   13 type  3   force =    -0.02068936    0.03105689    0.05772043
     atom   14 type  3   force =     0.02460830   -0.03288976   -0.05868835
     atom   15 type  3   force =     0.02179310   -0.03519162    0.05076345
     atom   16 type  3   force =     0.01989402    0.03680655   -0.05205062
     atom   17 type  3   force =     0.02090316    0.03169636    0.05617714
     atom   18 type  4   force =    -0.01030542    0.02799874   -0.01372212
     atom   19 type  4   force =    -0.13146656   -0.00460708   -0.11339144
     atom   20 type  4   force =    -0.13424484    0.00534327    0.11227640
     atom   21 type  4   force =     0.13266333   -0.00567463   -0.11606088
     atom   22 type  4   force =     0.13519470    0.00575575    0.11460177
     atom   23 type  5   force =     0.03298153   -0.00028420   -0.00021113
     The non-local contrib.  to forces
     atom    1 type  1   force =    -0.00884970   -0.02175456    0.03594272
     atom    2 type  1   force =    -0.24776045   -0.16276555    0.02023949
     atom    3 type  1   force =    -0.24128693    0.15814820   -0.02444933
     atom    4 type  1   force =     0.26233465   -0.15705495    0.01925095
     atom    5 type  1   force =     0.25632360    0.15282019   -0.02396030
     atom    6 type  2   force =    -0.01054279   -0.04773288   -0.06791443
     atom    7 type  2   force =    -0.01184118    0.05853853    0.06132758
     atom    8 type  3   force =    -0.27360225    0.00062264   -0.00221295
     atom    9 type  3   force =    -0.03403510    0.00151709   -0.00377015
     atom   10 type  3   force =    -0.21095218    0.00407394   -0.20776659
     atom   11 type  3   force =    -0.21655164    0.00579261    0.19371520
     atom   12 type  3   force =    -0.19973410   -0.01793635   -0.18027559
     atom   13 type  3   force =    -0.20699716   -0.00396472    0.20660339
     atom   14 type  3   force =     0.21072954    0.00258542   -0.20885463
     atom   15 type  3   force =     0.21694007    0.00744443    0.19453356
     atom   16 type  3   force =     0.19961845   -0.01831268   -0.18179907
     atom   17 type  3   force =     0.20567894   -0.00270545    0.20828933
     atom   18 type  4   force =    -0.01195179    0.05217200   -0.06264106
     atom   19 type  4   force =     0.06291848    0.00963164    0.07060524
     atom   20 type  4   force =     0.05789988   -0.01323254   -0.06588094
     atom   21 type  4   force =    -0.06058588    0.00908271    0.07996797
     atom   22 type  4   force =    -0.05602335   -0.01295877   -0.07493847
     atom   23 type  5   force =    -0.06215168   -0.00001824    0.00005395
     The ionic contribution  to forces
     atom    1 type  1   force =    -0.24509996   -4.69908424   14.11506734
     atom    2 type  1   force =   -39.65611805   -6.18997575    0.77964825
     atom    3 type  1   force =   -39.62881787    6.17671446   -0.71356753
     atom    4 type  1   force =    39.41253461   -6.41096551    0.77840724
     atom    5 type  1   force =    39.38428922    6.39809885   -0.71213071
     atom    6 type  2   force =    -0.26006467   -3.66576773  -14.02024973
     atom    7 type  2   force =    -0.26008048    3.70148630   14.05326228
     atom    8 type  3   force =   -52.06046430    0.07189317   -0.06498207
     atom    9 type  3   force =    49.87778223    0.07295009   -0.06619050
     atom   10 type  3   force =   -36.04167369   -2.12575984  -23.10735894
     atom   11 type  3   force =   -35.11577531   -0.87855572   22.11153824
     atom   12 type  3   force =   -35.22568460    0.82794805  -22.16067534
     atom   13 type  3   force =   -36.01577696    2.21230468   23.09019552
     atom   14 type  3   force =    35.92920843   -2.18753893  -23.18830236
     atom   15 type  3   force =    35.00432985   -0.93986645   22.19212633
     atom   16 type  3   force =    35.11448191    0.88887198  -22.24088525
     atom   17 type  3   force =    35.90326524    2.27408074   23.17113711
     atom   18 type  4   force =    -0.24266727    4.46629658  -13.97297058
     atom   19 type  4   force =   -35.87643555    0.95648478  -25.59357074
     atom   20 type  4   force =   -35.85926328   -0.95293025   25.57152735
     atom   21 type  4   force =    35.65260403    0.95501778  -25.83966402
     atom   22 type  4   force =    35.63675110   -0.95177503   25.81721982
     atom   23 type  5   force =     4.57267536    0.00007199    0.00041828
     The local contribution  to forces
     atom    1 type  1   force =     0.23965401    4.68989609  -14.12836465
     atom    2 type  1   force =    39.78529530    6.33875159   -0.78725045
     atom    3 type  1   force =    39.75256658   -6.32266591    0.75632640
     atom    4 type  1   force =   -39.56034400    6.55444843   -0.78487012
     atom    5 type  1   force =   -39.52773839   -6.53785635    0.75493860
     atom    6 type  2   force =     0.25652054    3.68693004   14.10845904
     atom    7 type  2   force =     0.25646329   -3.74528794  -14.11441513
     atom    8 type  3   force =    52.22886623   -0.07058967    0.08534688
     atom    9 type  3   force =   -49.69812990   -0.07344480    0.08695942
     atom   10 type  3   force =    36.24105629    2.07337802   23.27383361
     atom   11 type  3   force =    35.32511971    0.82585004  -22.27670548
     atom   12 type  3   force =    35.41746512   -0.75433254   22.30561828
     atom   13 type  3   force =    36.21229546   -2.16432536  -23.26451563
     atom   14 type  3   force =   -36.13359355    2.13501953   23.35575531
     atom   15 type  3   force =   -35.21779060    0.88594312  -22.35985091
     atom   16 type  3   force =   -35.31134233   -0.81400810   22.38845732
     atom   17 type  3   force =   -36.10453551   -2.22332702  -23.34654472
     atom   18 type  4   force =     0.23920292   -4.48204437   14.03407971
     atom   19 type  4   force =    35.68121409   -0.97210970   25.42408949
     atom   20 type  4   force =    35.66992712    0.96890985  -25.41471343
     atom   21 type  4   force =   -35.46414037   -0.97121751   25.65730186
     atom   22 type  4   force =   -35.45386487    0.96599654  -25.64785688
     atom   23 type  5   force =    -4.48101793   -0.00047543    0.00146693
     The core correction contribution to forces
     atom    1 type  1   force =     0.00130561    0.00096683   -0.00087189
     atom    2 type  1   force =    -0.01243380   -0.00202082    0.00069949
     atom    3 type  1   force =    -0.01264043    0.00289716   -0.00134819
     atom    4 type  1   force =     0.01306430   -0.00270891    0.00083029
     atom    5 type  1   force =     0.01316482    0.00360164   -0.00159253
     atom    6 type  2   force =     0.00029972    0.00204871    0.00263142
     atom    7 type  2   force =     0.00035397   -0.00262609   -0.00219223
     atom    8 type  3   force =    -0.03279720    0.00037709   -0.00055245
     atom    9 type  3   force =     0.00314770    0.00021429   -0.00054320
     atom   10 type  3   force =    -0.02202865    0.00950323   -0.01647055
     atom   11 type  3   force =    -0.02366316    0.00958376    0.01701757
     atom   12 type  3   force =    -0.02211830   -0.00960834   -0.01604860
     atom   13 type  3   force =    -0.02189959   -0.00914918    0.01708985
     atom   14 type  3   force =     0.02282588    0.01064737   -0.01484264
     atom   15 type  3   force =     0.02394229    0.01147958    0.01516577
     atom   16 type  3   force =     0.02242534   -0.01141472   -0.01412456
     atom   17 type  3   force =     0.02242492   -0.01042445    0.01543832
     atom   18 type  4   force =     0.00047275   -0.00265497    0.00300408
     atom   19 type  4   force =    -0.00995832    0.00001498   -0.00935325
     atom   20 type  4   force =    -0.00982936    0.00031962    0.00914445
     atom   21 type  4   force =     0.01008987    0.00005070   -0.00980655
     atom   22 type  4   force =     0.00997780    0.00028663    0.00957027
     atom   23 type  5   force =     0.00000000    0.00000000    0.00000000
     The Hubbard contrib.    to forces
     atom    1 type  1   force =     0.00000000    0.00000000    0.00000000
     atom    2 type  1   force =     0.00000000    0.00000000    0.00000000
     atom    3 type  1   force =     0.00000000    0.00000000    0.00000000
     atom    4 type  1   force =     0.00000000    0.00000000    0.00000000
     atom    5 type  1   force =     0.00000000    0.00000000    0.00000000
     atom    6 type  2   force =     0.00000000    0.00000000    0.00000000
     atom    7 type  2   force =     0.00000000    0.00000000    0.00000000
     atom    8 type  3   force =     0.00000000    0.00000000    0.00000000
     atom    9 type  3   force =     0.00000000    0.00000000    0.00000000
     atom   10 type  3   force =     0.00000000    0.00000000    0.00000000
     atom   11 type  3   force =     0.00000000    0.00000000    0.00000000
     atom   12 type  3   force =     0.00000000    0.00000000    0.00000000
     atom   13 type  3   force =     0.00000000    0.00000000    0.00000000
     atom   14 type  3   force =     0.00000000    0.00000000    0.00000000
     atom   15 type  3   force =     0.00000000    0.00000000    0.00000000
     atom   16 type  3   force =     0.00000000    0.00000000    0.00000000
     atom   17 type  3   force =     0.00000000    0.00000000    0.00000000
     atom   18 type  4   force =     0.00000000    0.00000000    0.00000000
     atom   19 type  4   force =     0.00000000    0.00000000    0.00000000
     atom   20 type  4   force =     0.00000000    0.00000000    0.00000000
     atom   21 type  4   force =     0.00000000    0.00000000    0.00000000
     atom   22 type  4   force =     0.00000000    0.00000000    0.00000000
     atom   23 type  5   force =     0.00000000    0.00000000    0.00000000
     The SCF correction term to forces
     atom    1 type  1   force =     0.00306728    0.00143038   -0.00700497
     atom    2 type  1   force =     0.01023605   -0.00018539   -0.01109860
     atom    3 type  1   force =     0.01010057   -0.00101609   -0.01037359
     atom    4 type  1   force =    -0.00627306    0.00034871   -0.01209617
     atom    5 type  1   force =    -0.00533405   -0.00226731   -0.00975787
     atom    6 type  2   force =     0.00484239    0.00795372   -0.01498371
     atom    7 type  2   force =     0.00590576    0.00214562   -0.00557972
     atom    8 type  3   force =     0.00682022    0.00114623   -0.01828271
     atom    9 type  3   force =    -0.01908958    0.00192426   -0.01805138
     atom   10 type  3   force =     0.00921881    0.00638392   -0.00186516
     atom   11 type  3   force =     0.00893785    0.00043719    0.00887876
     atom   12 type  3   force =     0.01004438   -0.00829930   -0.00262751
     atom   13 type  3   force =     0.01140447   -0.00376114    0.00908919
     atom   14 type  3   force =    -0.00484641    0.00644424   -0.00170215
     atom   15 type  3   force =    -0.00591293   -0.00014491    0.00953059
     atom   16 type  3   force =    -0.00557377   -0.00828253   -0.00295716
     atom   17 type  3   force =    -0.00621486   -0.00588005    0.00859899
     atom   18 type  4   force =     0.00435356   -0.00572310   -0.01445238
     atom   19 type  4   force =     0.01051031    0.00141862   -0.00442029
     atom   20 type  4   force =     0.00673638    0.00232398    0.01294087
     atom   21 type  4   force =    -0.00558873    0.00143908   -0.00311824
     atom   22 type  4   force =    -0.00193040    0.00425377    0.01134894
     atom   23 type  5   force =     0.00319136    0.00018488   -0.00140839

     Total force =     0.508678     Total SCF correction =     0.065033
     SCF correction compared to forces is large: reduce conv_thr to get better values


     Computing stress (Cartesian axis) and pressure


     negative rho (up, down):  9.090E-01 9.090E-01
          total   stress  (Ry/bohr**3)                   (kbar)     P=       85.35
   0.00071087   0.00000019  -0.00000029          104.57        0.03       -0.04
   0.00000019   0.00065263  -0.00001330            0.03       96.01       -1.96
  -0.00000029  -0.00001330   0.00037702           -0.04       -1.96       55.46


     Entering Dynamics:    iteration =     2
                           time      =   0.0004 pico-seconds


ATOMIC_POSITIONS (angstrom)
Hf            2.6702503399        2.8271198548        6.6039657215
Hf            1.2532285702        1.2862822232        5.0584661103
Hf            1.2557248722        7.3898059790        5.0880682079
Hf            4.0872743069        1.2862822813        5.0584659956
Hf            4.0847780614        7.3898059580        5.0880683226
Nb            2.6702494853        2.7969271435        3.5155850489
Nb            2.6702494434        5.8763817299        6.6349961417
Ta            1.2096098759        4.3409282579        5.0711254995
Ta            4.1308959101        4.3409282351        5.0711254141
Ta            1.3075014106        1.3141189837        2.0587722840
Ta            1.3030373158        1.3083869432        8.0945854990
Ta            1.3042588830        7.3758303306        2.0462309749
Ta            1.3079599411        7.3650864421        8.0860089862
Ta            4.0330013616        1.3141189436        2.0587724709
Ta            4.0374653988        1.3083871204        8.0945852116
Ta            4.0362438442        7.3758302340        2.0462312664
Ta            4.0325427885        7.3650864732        8.0860087921
Zr            2.6702491718        5.8662917457        3.5273805534
Zr            1.2440567871        4.3220769288        1.9999744062
Zr            1.2406066561        4.3541245761        8.1497814160
Zr            4.0964463602        4.3220767082        1.9999738966
Zr            4.0998964266        4.3541247259        8.1497817947
H             5.7132349014        4.3399983554        5.0721839841


     kinetic energy (Ekin) =           8.09747285 Ry
     temperature           =       38742.11649906 K 
     Ekin + Etot (const)   =       -2934.95241726 Ry
     Ions kinetic stress =          143.01 (kbar)
                                    429.03           0.00          -0.00
                                      0.00           0.00           0.00
                                     -0.00           0.00           0.00



     Linear momentum :    0.0000000000   -0.0000000000    0.0000000000

     Writing config-only to output data dir outdir/pwscf.save/
     NEW-OLD atomic charge density approx. for the potential

     Check: negative core charge=   -0.000002

     negative rho (up, down):  9.089E-01 9.089E-01
     Generating pointlists ...
     new r_m :   0.0699 (alat units)  1.2335 (a.u.) for type    3
     new r_m :   0.0699 (alat units)  1.2335 (a.u.) for type    5

     total cpu time spent up to now is      500.3 secs

     Self-consistent Calculation

     iteration #  1     ecut=   120.00 Ry     beta= 0.70
     Davidson diagonalization with overlap
     c_bands:  1 eigenvalues not converged
     ethr =  1.00E-06,  avg # of iterations = 17.0

     negative rho (up, down):  9.090E-01 9.090E-01

     total cpu time spent up to now is      531.8 secs

     total energy              =   -2943.00441034 Ry
     estimated scf accuracy    <       0.08467555 Ry

     total magnetization       =     0.00 Bohr mag/cell
     absolute magnetization    =     0.03 Bohr mag/cell

     iteration #  2     ecut=   120.00 Ry     beta= 0.70
     Davidson diagonalization with overlap
     ethr =  3.06E-05,  avg # of iterations =  2.0

     negative rho (up, down):  9.090E-01 9.090E-01

     total cpu time spent up to now is      547.5 secs

     total energy              =   -2943.01073588 Ry
     estimated scf accuracy    <       0.03317063 Ry

     total magnetization       =     0.00 Bohr mag/cell
     absolute magnetization    =     0.02 Bohr mag/cell

     iteration #  3     ecut=   120.00 Ry     beta= 0.70
     Davidson diagonalization with overlap
     ethr =  1.20E-05,  avg # of iterations =  1.5

     negative rho (up, down):  9.089E-01 9.089E-01

     total cpu time spent up to now is      562.1 secs

     total energy              =   -2943.01259141 Ry
     estimated scf accuracy    <       0.00274907 Ry

     total magnetization       =     0.00 Bohr mag/cell
     absolute magnetization    =     0.02 Bohr mag/cell

     iteration #  4     ecut=   120.00 Ry     beta= 0.70
     Davidson diagonalization with overlap
     ethr =  9.92E-07,  avg # of iterations =  8.0

     negative rho (up, down):  9.088E-01 9.089E-01

     Magnetic moment per site  (integrated on atomic sphere of radius R)
     atom   1 (R=0.112)  charge=  9.4639  magn=  0.0001
     atom   2 (R=0.112)  charge=  9.0593  magn=  0.0000
     atom   3 (R=0.112)  charge=  9.0593  magn=  0.0000
     atom   4 (R=0.112)  charge=  9.0559  magn= -0.0000
     atom   5 (R=0.112)  charge=  9.0559  magn= -0.0000
     atom   6 (R=0.110)  charge= 10.3493  magn= -0.0001
     atom   7 (R=0.110)  charge= 10.3497  magn=  0.0001
     atom   8 (R=0.070)  charge=  5.8253  magn= -0.0000
     atom   9 (R=0.070)  charge=  5.8434  magn=  0.0000
     atom  10 (R=0.070)  charge=  5.8110  magn=  0.0001
     atom  11 (R=0.070)  charge=  5.8096  magn= -0.0001
     atom  12 (R=0.070)  charge=  5.8095  magn=  0.0001
     atom  13 (R=0.070)  charge=  5.8118  magn= -0.0001
     atom  14 (R=0.070)  charge=  5.8086  magn=  0.0001
     atom  15 (R=0.070)  charge=  5.8073  magn= -0.0001
     atom  16 (R=0.070)  charge=  5.8079  magn=  0.0001
     atom  17 (R=0.070)  charge=  5.8085  magn= -0.0002
     atom  18 (R=0.111)  charge=  9.4562  magn= -0.0002
     atom  19 (R=0.111)  charge=  9.0035  magn=  0.0018
     atom  20 (R=0.111)  charge=  8.9972  magn= -0.0007
     atom  21 (R=0.111)  charge=  9.0015  magn=  0.0015
     atom  22 (R=0.111)  charge=  8.9945  magn= -0.0008
     atom  23 (R=0.070)  charge=  0.8960  magn= -0.0000

     total cpu time spent up to now is      596.8 secs

     End of self-consistent calculation

 ------ SPIN UP ------------


          k = 0.0000 0.0000 0.0000 ( 61588 PWs)   bands (ev):

   -60.7917 -60.7898 -60.7466 -60.7446 -60.7129 -60.7075 -60.6691 -60.6639
   -60.4851 -60.1235 -54.4235 -54.3693 -54.2995 -54.2456 -52.7168 -46.2633
   -46.2591 -41.6690 -41.6415 -41.5627 -41.5509 -39.8095 -27.7948 -27.7896
   -27.7109 -27.7018 -27.6045 -27.6010 -27.4794 -27.4707 -27.3547 -27.3452
   -27.2790 -27.2740 -27.2572 -27.2422 -27.2350 -27.1782 -27.1727 -27.1199
   -27.0747 -26.9718 -26.9696 -26.9644 -26.9563 -26.9036 -26.8969 -26.8787
   -26.8700 -26.8532 -26.7963 -26.7482 -24.2039 -23.9928 -23.6860 -23.6051
   -23.3469 -23.2072 -23.1826 -23.0831 -22.9615 -22.8904 -22.8747 -22.6578
   -22.5053 -22.4572 -22.4111 -22.3598 -22.3010 -22.2449 -21.7789 -21.7119
   -21.6449 -20.2301 -19.9473 -19.8772 -19.8535 -19.6392 -19.6167 -19.6084
   -19.5916 -19.5844 -19.5438 -19.4068 -19.3772 -18.1574 -17.9531 -17.8330
     1.4339   2.7752   2.9161   3.1294   3.2719   3.4613   3.5171   3.6315
     3.7227   3.9038   3.9073   4.1092   4.2918   4.4955   4.6123   4.6853
     4.7618   4.8176   4.9944   5.0351   5.1056   5.2440   5.2904   5.2930
     5.4046   5.5466   5.5644   5.7145   5.7157   5.7443   5.7624   5.7790
     5.9110   6.1106   6.1901   6.2192   6.2509   6.3409   6.3496   6.3814
     6.5720   6.6014   6.6535   6.6723   6.7682   6.9194   6.9885   7.0146
     7.0817   7.1347   7.2502   7.2560   7.3112   7.4044   7.5453   7.5951
     7.6084   7.6579   7.8918   7.8976   8.0681   8.0877   8.1002   8.2047
     8.2716   8.3380   8.3496   8.3715   8.3999   8.5136   8.6223   8.6490
     8.7687   8.8859   8.9117   9.0448   9.0868   9.2473   9.2616

 ------ SPIN DOWN ----------


          k = 0.0000 0.0000 0.0000 ( 61588 PWs)   bands (ev):

   -60.7915 -60.7901 -60.7465 -60.7449 -60.7127 -60.7077 -60.6690 -60.6641
   -60.4852 -60.1235 -54.4235 -54.3693 -54.2995 -54.2456 -52.7167 -46.2634
   -46.2590 -41.6675 -41.6422 -41.5611 -41.5516 -39.8096 -27.7947 -27.7899
   -27.7108 -27.7021 -27.6047 -27.6010 -27.4797 -27.4706 -27.3547 -27.3453
   -27.2789 -27.2743 -27.2573 -27.2422 -27.2350 -27.1780 -27.1729 -27.1201
   -27.0747 -26.9716 -26.9700 -26.9647 -26.9562 -26.9038 -26.8968 -26.8788
   -26.8700 -26.8532 -26.7963 -26.7482 -24.2039 -23.9928 -23.6860 -23.6051
   -23.3469 -23.2072 -23.1826 -23.0831 -22.9615 -22.8905 -22.8747 -22.6578
   -22.5052 -22.4572 -22.4111 -22.3597 -22.3010 -22.2449 -21.7789 -21.7118
   -21.6449 -20.2284 -19.9485 -19.8753 -19.8518 -19.6381 -19.6171 -19.6074
   -19.5918 -19.5849 -19.5444 -19.4044 -19.3782 -18.1574 -17.9530 -17.8329
     1.4339   2.7752   2.9161   3.1294   3.2719   3.4612   3.5170   3.6315
     3.7227   3.9037   3.9074   4.1093   4.2918   4.4955   4.6123   4.6853
     4.7618   4.8177   4.9944   5.0352   5.1058   5.2442   5.2903   5.2929
     5.4046   5.5467   5.5645   5.7146   5.7159   5.7444   5.7627   5.7790
     5.9110   6.1105   6.1901   6.2192   6.2509   6.3409   6.3497   6.3817
     6.5720   6.6014   6.6535   6.6723   6.7682   6.9195   6.9889   7.0148
     7.0815   7.1349   7.2509   7.2559   7.3113   7.4044   7.5465   7.5952
     7.6084   7.6579   7.8918   7.8974   8.0682   8.0876   8.1003   8.2047
     8.2717   8.3380   8.3497   8.3717   8.3998   8.5136   8.6225   8.6492
     8.7687   8.8857   8.9119   9.0450   9.0879   9.2471   9.2621

     the Fermi energy is     7.2170 ev

!    total energy              =   -2943.01233501 Ry
     estimated scf accuracy    <       0.00062702 Ry
     smearing contrib. (-TS)   =      -0.09761388 Ry
     internal energy E=F+TS    =   -2942.91472113 Ry

     total magnetization       =     0.00 Bohr mag/cell
     absolute magnetization    =     0.02 Bohr mag/cell

     convergence has been achieved in   4 iterations

     negative rho (up, down):  9.088E-01 9.089E-01

     Forces acting on atoms (cartesian axes, Ry/au):

     atom    1 type  1   force =    -0.00769450   -0.02914919    0.01289144
     atom    2 type  1   force =    -0.11393026   -0.01655715   -0.00614279
     atom    3 type  1   force =    -0.11329140    0.01395316   -0.00166932
     atom    4 type  1   force =     0.11493709   -0.01598955   -0.00726309
     atom    5 type  1   force =     0.11470979    0.01369865   -0.00063272
     atom    6 type  2   force =    -0.00888389   -0.01699039    0.00773648
     atom    7 type  2   force =    -0.00915519    0.01571478   -0.00560065
     atom    8 type  3   force =    -0.13516735    0.00377760   -0.00596380
     atom    9 type  3   force =    -0.00638322    0.00384700   -0.00715463
     atom   10 type  3   force =    -0.02170960   -0.02956530   -0.05892260
     atom   11 type  3   force =    -0.01852306   -0.03584290    0.05887267
     atom   12 type  3   force =    -0.01689161    0.03449421   -0.05375865
     atom   13 type  3   force =    -0.01689865    0.02906432    0.06308399
     atom   14 type  3   force =     0.02250954   -0.03062936   -0.05761414
     atom   15 type  3   force =     0.01867957   -0.03451500    0.05661036
     atom   16 type  3   force =     0.01736152    0.03388441   -0.05131621
     atom   17 type  3   force =     0.01744231    0.02956394    0.06185718
     atom   18 type  4   force =    -0.00949109    0.02700589   -0.01713169
     atom   19 type  4   force =    -0.12775596   -0.00391031   -0.11376509
     atom   20 type  4   force =    -0.13204415    0.00611242    0.11936035
     atom   21 type  4   force =     0.12744971   -0.00478708   -0.11652149
     atom   22 type  4   force =     0.13197151    0.00715812    0.12143884
     atom   23 type  5   force =     0.17275891   -0.00033827    0.00160557
     The non-local contrib.  to forces
     atom    1 type  1   force =    -0.00640172   -0.02063003    0.03298135
     atom    2 type  1   force =    -0.24278733   -0.16339034    0.01508240
     atom    3 type  1   force =    -0.23658077    0.15857484   -0.02969387
     atom    4 type  1   force =     0.25758278   -0.15788738    0.01403958
     atom    5 type  1   force =     0.25205706    0.15326924   -0.02889902
     atom    6 type  2   force =    -0.01117688   -0.04672132   -0.06986670
     atom    7 type  2   force =    -0.01209192    0.05818302    0.06145009
     atom    8 type  3   force =    -0.26011711    0.00073620   -0.00768887
     atom    9 type  3   force =    -0.06713912    0.00197128   -0.00939634
     atom   10 type  3   force =    -0.20801081    0.00517190   -0.20887490
     atom   11 type  3   force =    -0.21500582    0.00674698    0.19796127
     atom   12 type  3   force =    -0.19664427   -0.01958463   -0.18154697
     atom   13 type  3   force =    -0.20461315   -0.00532087    0.21127967
     atom   14 type  3   force =     0.20879489    0.00295942   -0.21004055
     atom   15 type  3   force =     0.21635077    0.00782917    0.19885078
     atom   16 type  3   force =     0.19756201   -0.01926542   -0.18315511
     atom   17 type  3   force =     0.20421243   -0.00398757    0.21264935
     atom   18 type  4   force =    -0.01114293    0.05010099   -0.06880745
     atom   19 type  4   force =     0.06654821    0.01008297    0.06863700
     atom   20 type  4   force =     0.06109788   -0.01286679   -0.06234247
     atom   21 type  4   force =    -0.06238865    0.00963840    0.07574283
     atom   22 type  4   force =    -0.05826889   -0.01195980   -0.06948324
     atom   23 type  5   force =    -0.08827899   -0.00001666    0.00009644
     The ionic contribution  to forces
     atom    1 type  1   force =    -0.28359083   -4.71958697   14.13691505
     atom    2 type  1   force =   -39.68018506   -6.19077325    0.77964364
     atom    3 type  1   force =   -39.65292679    6.17755156   -0.71355218
     atom    4 type  1   force =    39.41555879   -6.44630434    0.77821562
     atom    5 type  1   force =    39.38721973    6.43358425   -0.71190744
     atom    6 type  2   force =    -0.30054532   -3.68769703  -14.04355085
     atom    7 type  2   force =    -0.30056723    3.72332402   14.07666362
     atom    8 type  3   force =   -52.12409280    0.07188699   -0.06498951
     atom    9 type  3   force =    49.22887783    0.07348293   -0.06680925
     atom   10 type  3   force =   -36.05496669   -2.12612525  -23.10783241
     atom   11 type  3   force =   -35.12902557   -0.87890762   22.11199139
     atom   12 type  3   force =   -35.23892244    0.82832156  -22.16115039
     atom   13 type  3   force =   -36.02906954    2.21268225   23.09067637
     atom   14 type  3   force =    35.93287392   -2.19534222  -23.19807274
     atom   15 type  3   force =    35.00805804   -0.94759100   22.20182334
     atom   16 type  3   force =    35.11821316    0.89655701  -22.25054539
     atom   17 type  3   force =    35.90692411    2.28189545   23.18091596
     atom   18 type  4   force =    -0.28061889    4.48661427  -13.99464381
     atom   19 type  4   force =   -35.89801774    0.95645297  -25.59391505
     atom   20 type  4   force =   -35.88078789   -0.95291375   25.57182416
     atom   21 type  4   force =    35.65500664    0.95477101  -25.87672701
     atom   22 type  4   force =    35.63927953   -0.95158033   25.85409920
     atom   23 type  5   force =     5.56130504   -0.00030252    0.00092768
     The local contribution  to forces
     atom    1 type  1   force =     0.28416526    4.70811378  -14.16044618
     atom    2 type  1   force =    39.83435537    6.33728435   -0.81714146
     atom    3 type  1   force =    39.80089036   -6.32328402    0.72667635
     atom    4 type  1   force =   -39.58211582    6.58968374   -0.81615132
     atom    5 type  1   force =   -39.54739136   -6.57630746    0.72564765
     atom    6 type  2   force =     0.30674414    3.72214500   14.09541461
     atom    7 type  2   force =     0.30780846   -3.75989865  -14.14423568
     atom    8 type  3   force =    52.28795978   -0.06895656    0.04310599
     atom    9 type  3   force =   -49.16414147   -0.07133720    0.04534371
     atom   10 type  3   force =    36.27394498    2.09198088   23.27252969
     atom   11 type  3   force =    35.36398032    0.83057282  -22.25829563
     atom   12 type  3   force =    35.45311204   -0.77722978   22.30283241
     atom   13 type  3   force =    36.25401263   -2.17566898  -23.24393587
     atom   14 type  3   force =   -36.14601208    2.15869520   23.36152705
     atom   15 type  3   force =   -35.23850755    0.89571770  -22.34746577
     atom   16 type  3   force =   -35.32564773   -0.84307334   22.39197309
     atom   17 type  3   force =   -36.12439505   -2.24382828  -23.33327637
     atom   18 type  4   force =     0.28624626   -4.51164036   14.01971843
     atom   19 type  4   force =    35.72804713   -0.96846027   25.41280116
     atom   20 type  4   force =    35.71065395    0.97318499  -25.38156858
     atom   21 type  4   force =   -35.48567480   -0.96655761   25.68622809
     atom   22 type  4   force =   -35.46861498    0.97301369  -25.65504156
     atom   23 type  5   force =    -5.30425335    0.00004009   -0.00230010
     The core correction contribution to forces
     atom    1 type  1   force =     0.00143228    0.00107514   -0.00109853
     atom    2 type  1   force =    -0.01216870   -0.00206205    0.00061812
     atom    3 type  1   force =    -0.01242251    0.00293361   -0.00141119
     atom    4 type  1   force =     0.01296628   -0.00258880    0.00077452
     atom    5 type  1   force =     0.01309272    0.00347325   -0.00164723
     atom    6 type  2   force =     0.00036710    0.00203630    0.00272981
     atom    7 type  2   force =     0.00040432   -0.00261650   -0.00221932
     atom    8 type  3   force =    -0.03183401    0.00040159   -0.00056521
     atom    9 type  3   force =     0.00024628    0.00023239   -0.00051239
     atom   10 type  3   force =    -0.02189319    0.00950948   -0.01649019
     atom   11 type  3   force =    -0.02363670    0.00970797    0.01714751
     atom   12 type  3   force =    -0.02196514   -0.00962530   -0.01607705
     atom   13 type  3   force =    -0.02187479   -0.00923021    0.01721020
     atom   14 type  3   force =     0.02269030    0.01052886   -0.01489740
     atom   15 type  3   force =     0.02394867    0.01147835    0.01534718
     atom   16 type  3   force =     0.02223814   -0.01131348   -0.01415682
     atom   17 type  3   force =     0.02241741   -0.01032523    0.01562024
     atom   18 type  4   force =     0.00051142   -0.00265494    0.00314592
     atom   19 type  4   force =    -0.01000321    0.00001372   -0.00933412
     atom   20 type  4   force =    -0.00986915    0.00032018    0.00917188
     atom   21 type  4   force =     0.01005303    0.00004725   -0.00966452
     atom   22 type  4   force =     0.00998131    0.00027255    0.00949202
     atom   23 type  5   force =     0.00000000    0.00000000    0.00000000
     The Hubbard contrib.    to forces
     atom    1 type  1   force =     0.00000000    0.00000000    0.00000000
     atom    2 type  1   force =     0.00000000    0.00000000    0.00000000
     atom    3 type  1   force =     0.00000000    0.00000000    0.00000000
     atom    4 type  1   force =     0.00000000    0.00000000    0.00000000
     atom    5 type  1   force =     0.00000000    0.00000000    0.00000000
     atom    6 type  2   force =     0.00000000    0.00000000    0.00000000
     atom    7 type  2   force =     0.00000000    0.00000000    0.00000000
     atom    8 type  3   force =     0.00000000    0.00000000    0.00000000
     atom    9 type  3   force =     0.00000000    0.00000000    0.00000000
     atom   10 type  3   force =     0.00000000    0.00000000    0.00000000
     atom   11 type  3   force =     0.00000000    0.00000000    0.00000000
     atom   12 type  3   force =     0.00000000    0.00000000    0.00000000
     atom   13 type  3   force =     0.00000000    0.00000000    0.00000000
     atom   14 type  3   force =     0.00000000    0.00000000    0.00000000
     atom   15 type  3   force =     0.00000000    0.00000000    0.00000000
     atom   16 type  3   force =     0.00000000    0.00000000    0.00000000
     atom   17 type  3   force =     0.00000000    0.00000000    0.00000000
     atom   18 type  4   force =     0.00000000    0.00000000    0.00000000
     atom   19 type  4   force =     0.00000000    0.00000000    0.00000000
     atom   20 type  4   force =     0.00000000    0.00000000    0.00000000
     atom   21 type  4   force =     0.00000000    0.00000000    0.00000000
     atom   22 type  4   force =     0.00000000    0.00000000    0.00000000
     atom   23 type  5   force =     0.00000000    0.00000000    0.00000000
     The SCF correction term to forces
     atom    1 type  1   force =    -0.00294039    0.00181223    0.00360839
     atom    2 type  1   force =    -0.01278544    0.00231747    0.01472315
     atom    3 type  1   force =    -0.01189258   -0.00188949    0.01538022
     atom    4 type  1   force =     0.01130415    0.00104058    0.01492715
     atom    5 type  1   force =     0.01009073   -0.00038729    0.01524197
     atom    6 type  2   force =    -0.00391382   -0.00682001    0.02207824
     atom    7 type  2   force =    -0.00434972   -0.00334377    0.00180927
     atom    8 type  3   force =    -0.00672411   -0.00035728    0.02324244
     atom    9 type  3   force =    -0.00386765   -0.00056907    0.02328827
     atom   10 type  3   force =    -0.01042479   -0.01016897    0.00081385
     atom   11 type  3   force =    -0.01447621   -0.00402972   -0.01086324
     atom   12 type  3   force =    -0.01211270    0.01254570    0.00125199
     atom   13 type  3   force =    -0.01499470    0.00653547   -0.01307773
     atom   14 type  3   force =     0.00452161   -0.00753728    0.00293814
     atom   15 type  3   force =     0.00918872   -0.00201589   -0.01287652
     atom   16 type  3   force =     0.00535503    0.01091299    0.00363666
     atom   17 type  3   force =     0.00864250    0.00574290   -0.01498337
     atom   18 type  4   force =    -0.00412785    0.00451927    0.02252386
     atom   19 type  4   force =    -0.01397125   -0.00206636    0.00711456
     atom   20 type  4   force =    -0.01277984   -0.00167887   -0.01865600
     atom   21 type  4   force =     0.01081259   -0.00275280    0.00696777
     atom   22 type  4   force =     0.00995363   -0.00265466   -0.01855894
     atom   23 type  5   force =     0.00434531   -0.00012586    0.00195020

     Total force =     0.515251     Total SCF correction =     0.085402
     SCF correction compared to forces is large: reduce conv_thr to get better values


     Computing stress (Cartesian axis) and pressure


     negative rho (up, down):  9.088E-01 9.089E-01
          total   stress  (Ry/bohr**3)                   (kbar)     P=       90.49
   0.00081330  -0.00000015   0.00000037          119.64       -0.02        0.05
[...]
     4.7479   4.9895   5.0228   5.0819   5.2088   5.2410   5.2902   5.3164
     5.5255   5.5354   5.5728   5.6876   5.7026   5.7110   5.7409   5.7875
     5.9010   6.1018   6.1658   6.2106   6.2489   6.2912   6.3435   6.3667
     6.5507   6.5756   6.6484   6.6648   6.7560   6.9086   6.9821   7.0207
     7.0688   7.1183   7.2455   7.2809   7.2893   7.4014   7.5293   7.6014
     7.6348   7.6560   7.8982   7.9032   8.0673   8.0790   8.0845   8.1941
     8.2678   8.3208   8.3390   8.3475   8.3615   8.5204   8.5732   8.6330
     8.7633   8.8453   8.8840   9.0415   9.1168   9.2056   9.2494

     the Fermi energy is     7.2126 ev

!    total energy              =   -2942.99520834 Ry
     estimated scf accuracy    <       0.00080477 Ry
     smearing contrib. (-TS)   =      -0.09641843 Ry
     internal energy E=F+TS    =   -2942.89878991 Ry

     total magnetization       =     0.00 Bohr mag/cell
     absolute magnetization    =     0.00 Bohr mag/cell

     convergence has been achieved in   4 iterations

     negative rho (up, down):  9.089E-01 9.089E-01

     Forces acting on atoms (cartesian axes, Ry/au):

     atom    1 type  1   force =    -0.01245192   -0.02879366    0.01392265
     atom    2 type  1   force =    -0.11707731   -0.01610565   -0.00924023
     atom    3 type  1   force =    -0.11595619    0.01322793   -0.00444078
     atom    4 type  1   force =     0.11957721   -0.01639512   -0.01010531
     atom    5 type  1   force =     0.11877721    0.01389844   -0.00339513
     atom    6 type  2   force =    -0.01183137   -0.01786576    0.00620513
     atom    7 type  2   force =    -0.01196843    0.01551303   -0.00273855
     atom    8 type  3   force =    -0.12898395    0.00345929   -0.00476290
     atom    9 type  3   force =     0.20915920    0.00365458   -0.00481964
     atom   10 type  3   force =    -0.02116544   -0.03201723   -0.05745559
     atom   11 type  3   force =    -0.02024339   -0.03482576    0.05929428
     atom   12 type  3   force =    -0.01723585    0.03711579   -0.05215638
     atom   13 type  3   force =    -0.01861844    0.02820769    0.06313837
     atom   14 type  3   force =     0.02323679   -0.03375948   -0.05651569
     atom   15 type  3   force =     0.02094566   -0.03465171    0.05786841
     atom   16 type  3   force =     0.01792780    0.03757212   -0.05043724
     atom   17 type  3   force =     0.02047596    0.02945028    0.06213459
     atom   18 type  4   force =    -0.01239865    0.02948085   -0.01993290
     atom   19 type  4   force =    -0.12800180   -0.00412216   -0.11211185
     atom   20 type  4   force =    -0.13183568    0.00563040    0.11820136
     atom   21 type  4   force =     0.13272380   -0.00535737   -0.11455524
     atom   22 type  4   force =     0.13692993    0.00675037    0.11976066
     atom   23 type  5   force =    -0.05198515   -0.00006687    0.00214200
     The non-local contrib.  to forces
     atom    1 type  1   force =    -0.00527351   -0.01795986    0.02736453
     atom    2 type  1   force =    -0.24972090   -0.16270829    0.01343261
     atom    3 type  1   force =    -0.24284949    0.15802866   -0.03048706
     atom    4 type  1   force =     0.26513234   -0.15802505    0.01301042
     atom    5 type  1   force =     0.25855115    0.15349906   -0.02987174
     atom    6 type  2   force =    -0.00583686   -0.04976552   -0.06329887
     atom    7 type  2   force =    -0.00636224    0.05994173    0.05558676
     atom    8 type  3   force =    -0.30462351    0.00055406   -0.00648939
     atom    9 type  3   force =     0.14659979    0.00123875   -0.00721120
     atom   10 type  3   force =    -0.20893380    0.00286890   -0.20651397
     atom   11 type  3   force =    -0.21803626    0.00631918    0.19568473
     atom   12 type  3   force =    -0.19733175   -0.01636556   -0.17987260
     atom   13 type  3   force =    -0.20805366   -0.00539665    0.20835841
     atom   14 type  3   force =     0.20883215    0.00166212   -0.20785473
     atom   15 type  3   force =     0.21802361    0.00822605    0.19627155
     atom   16 type  3   force =     0.19592896   -0.01747451   -0.18105984
     atom   17 type  3   force =     0.20761780   -0.00452467    0.20964008
     atom   18 type  4   force =    -0.00790645    0.05397902   -0.06389535
     atom   19 type  4   force =     0.06043516    0.01045836    0.06509458
     atom   20 type  4   force =     0.05575798   -0.01301804   -0.05888360
     atom   21 type  4   force =    -0.06100459    0.00972160    0.08022272
     atom   22 type  4   force =    -0.05673246   -0.01228595   -0.07442756
     atom   23 type  5   force =    -0.01802302    0.00004674   -0.00005095
     The ionic contribution  to forces
     atom    1 type  1   force =    -0.13147225   -4.83895478   14.30233467
     atom    2 type  1   force =   -39.60582250   -6.23881689    0.77893664
     atom    3 type  1   force =   -39.58019394    6.22651595   -0.71257812
     atom    4 type  1   force =    39.55017914   -6.29352400    0.77812551
     atom    5 type  1   force =    39.52631914    6.28012304   -0.71282793
     atom    6 type  2   force =    -0.13530282   -3.80942350  -14.21247753
     atom    7 type  2   force =    -0.13531003    3.84333265   14.24655267
     atom    8 type  3   force =   -52.21986187    0.07202222   -0.06678722
     atom    9 type  3   force =    50.89454610    0.07968547   -0.07574888
     atom   10 type  3   force =   -35.99015663   -2.12409707  -23.10016404
     atom   11 type  3   force =   -35.06533629   -0.87754030   22.10495934
     atom   12 type  3   force =   -35.17867883    0.82837772  -22.15559646
     atom   13 type  3   force =   -35.96385075    2.21175342   23.08350624
     atom   14 type  3   force =    35.95734865   -2.14167841  -23.12289911
     atom   15 type  3   force =    35.03234547   -0.89551529   22.12797821
     atom   16 type  3   force =    35.14684506    0.84498155  -22.17742668
     atom   17 type  3   force =    35.93078375    2.22942677   23.10623954
     atom   18 type  4   force =    -0.12910101    4.59889160  -14.15443565
     atom   19 type  4   force =   -35.79912164    0.95347533  -25.58631642
     atom   20 type  4   force =   -35.78040528   -0.95084143   25.56366161
     atom   21 type  4   force =    35.75057770    0.95381143  -25.64647422
     atom   22 type  4   force =    35.72959988   -0.95024242   25.62483249
     atom   23 type  5   force =     2.19606894   -0.00176306    0.00660534
     The local contribution  to forces
     atom    1 type  1   force =     0.11819141    4.82716095  -14.33001281
     atom    2 type  1   force =    39.74671622    6.38752271   -0.82920364
     atom    3 type  1   force =    39.71610547   -6.37485179    0.71414366
     atom    4 type  1   force =   -39.70761182    6.43401282   -0.82868590
     atom    5 type  1   force =   -39.67861270   -6.42002766    0.71509239
     atom    6 type  2   force =     0.12179118    3.83135086   14.24554773
     atom    7 type  2   force =     0.12350009   -3.88471315  -14.32154087
     atom    8 type  3   force =    52.41735476   -0.06869307    0.04198806
     atom    9 type  3   force =   -50.86224838   -0.07664940    0.05322487
     atom   10 type  3   force =    36.19960870    2.07284423   23.26575830
     atom   11 type  3   force =    35.28137577    0.83302380  -22.25120364
     atom   12 type  3   force =    35.38047769   -0.75854039   22.29928451
     atom   13 type  3   force =    36.17069447   -2.17653703  -23.23973951
     atom   14 type  3   force =   -36.16869035    2.08612303   23.28826998
     atom   15 type  3   force =   -35.25100482    0.84702278  -22.27385974
     atom   16 type  3   force =   -35.34995407   -0.76975671   22.32120015
     atom   17 type  3   force =   -36.13906896   -2.19181079  -23.26241047
     atom   18 type  4   force =     0.11765971   -4.61341719   14.16483539
     atom   19 type  4   force =    35.61756310   -0.96814339   25.41769738
     atom   20 type  4   force =    35.59811328    0.97003510  -25.38941106
     atom   21 type  4   force =   -35.56932261   -0.96872271   25.45630478
     atom   22 type  4   force =   -35.54553847    0.96974296  -25.43043759
     atom   23 type  5   force =    -2.22675283    0.00166834   -0.00850511
     The core correction contribution to forces
     atom    1 type  1   force =     0.00132733    0.00145974   -0.00080793
     atom    2 type  1   force =    -0.01274092   -0.00189607    0.00071121
     atom    3 type  1   force =    -0.01278834    0.00274086   -0.00140350
     atom    4 type  1   force =     0.01297362   -0.00303324    0.00084272
     atom    5 type  1   force =     0.01300847    0.00385990   -0.00155815
     atom    6 type  2   force =     0.00005524    0.00216138    0.00241125
     atom    7 type  2   force =     0.00006858   -0.00270032   -0.00197286
     atom    8 type  3   force =    -0.03502994    0.00020779   -0.00030936
     atom    9 type  3   force =     0.01693885    0.00018275   -0.00029824
     atom   10 type  3   force =    -0.02231068    0.00923534   -0.01638647
     atom   11 type  3   force =    -0.02413402    0.00934835    0.01697131
     atom   12 type  3   force =    -0.02234899   -0.00919576   -0.01597436
     atom   13 type  3   force =    -0.02240015   -0.00889012    0.01709273
     atom   14 type  3   force =     0.02274244    0.01064809   -0.01472321
     atom   15 type  3   force =     0.02423651    0.01137292    0.01515197
     atom   16 type  3   force =     0.02235008   -0.01119492   -0.01407965
     atom   17 type  3   force =     0.02262119   -0.01037404    0.01539800
     atom   18 type  4   force =     0.00025407   -0.00270735    0.00276640
     atom   19 type  4   force =    -0.00985090   -0.00002979   -0.00906626
     atom   20 type  4   force =    -0.00975210    0.00033530    0.00885606
     atom   21 type  4   force =     0.01018668    0.00002058   -0.00983780
     atom   22 type  4   force =     0.01011659    0.00028401    0.00964031
     atom   23 type  5   force =     0.00000000    0.00000000    0.00000000
     The Hubbard contrib.    to forces
     atom    1 type  1   force =     0.00000000    0.00000000    0.00000000
     atom    2 type  1   force =     0.00000000    0.00000000    0.00000000
     atom    3 type  1   force =     0.00000000    0.00000000    0.00000000
     atom    4 type  1   force =     0.00000000    0.00000000    0.00000000
     atom    5 type  1   force =     0.00000000    0.00000000    0.00000000
     atom    6 type  2   force =     0.00000000    0.00000000    0.00000000
     atom    7 type  2   force =     0.00000000    0.00000000    0.00000000
     atom    8 type  3   force =     0.00000000    0.00000000    0.00000000
     atom    9 type  3   force =     0.00000000    0.00000000    0.00000000
     atom   10 type  3   force =     0.00000000    0.00000000    0.00000000
     atom   11 type  3   force =     0.00000000    0.00000000    0.00000000
     atom   12 type  3   force =     0.00000000    0.00000000    0.00000000
     atom   13 type  3   force =     0.00000000    0.00000000    0.00000000
     atom   14 type  3   force =     0.00000000    0.00000000    0.00000000
     atom   15 type  3   force =     0.00000000    0.00000000    0.00000000
     atom   16 type  3   force =     0.00000000    0.00000000    0.00000000
     atom   17 type  3   force =     0.00000000    0.00000000    0.00000000
     atom   18 type  4   force =     0.00000000    0.00000000    0.00000000
     atom   19 type  4   force =     0.00000000    0.00000000    0.00000000
     atom   20 type  4   force =     0.00000000    0.00000000    0.00000000
     atom   21 type  4   force =     0.00000000    0.00000000    0.00000000
     atom   22 type  4   force =     0.00000000    0.00000000    0.00000000
     atom   23 type  5   force =     0.00000000    0.00000000    0.00000000
     The SCF correction term to forces
     atom    1 type  1   force =     0.00431931   -0.00046381    0.01302160
     atom    2 type  1   force =     0.00403500   -0.00017122    0.02486036
     atom    3 type  1   force =     0.00331431    0.00083015    0.02386165
     atom    4 type  1   force =    -0.00155187    0.00421025    0.02457935
     atom    5 type  1   force =    -0.00094464   -0.00352001    0.02374770
     atom    6 type  2   force =     0.00700609    0.00784690    0.03199996
     atom    7 type  2   force =     0.00567938   -0.00031199    0.01661316
     atom    8 type  3   force =     0.01272081   -0.00059582    0.02481242
     atom    9 type  3   force =     0.01286706   -0.00076709    0.02319122
     atom   10 type  3   force =     0.00017119    0.00716726   -0.00217199
     atom   11 type  3   force =     0.00543163   -0.00594089   -0.00914005
     atom   12 type  3   force =     0.00019023   -0.00712433   -0.00202006
     atom   13 type  3   force =     0.00453586    0.00731396   -0.00810210
     atom   14 type  3   force =     0.00254811    0.00952158   -0.00133121
     atom   15 type  3   force =    -0.00311090   -0.00572226   -0.00969618
     atom   16 type  3   force =     0.00230198   -0.00894739   -0.00109380
     atom   17 type  3   force =    -0.00193361    0.00676890   -0.00875516
     atom   18 type  4   force =     0.00623924   -0.00722933    0.02877371
     atom   19 type  4   force =     0.00251668    0.00015323   -0.00154372
     atom   20 type  4   force =     0.00399465   -0.00084464   -0.00804423
     atom   21 type  4   force =     0.00183082   -0.00015238    0.00320668
     atom   22 type  4   force =    -0.00097141   -0.00071234   -0.01186958
     atom   23 type  5   force =    -0.00373404    0.00001701    0.00207013

     Total force =     0.535076     Total SCF correction =     0.086953
     SCF correction compared to forces is large: reduce conv_thr to get better values


     Computing stress (Cartesian axis) and pressure


     negative rho (up, down):  9.089E-01 9.089E-01
          total   stress  (Ry/bohr**3)                   (kbar)     P=       82.81
   0.00063625   0.00000030  -0.00000056           93.60        0.04       -0.08
   0.00000030   0.00066415  -0.00001494            0.04       97.70       -2.20
  -0.00000056  -0.00001494   0.00038846           -0.08       -2.20       57.14


     Entering Dynamics:    iteration =    20
                           time      =   0.0041 pico-seconds


ATOMIC_POSITIONS (angstrom)
Hf            2.6724999330        2.8268030182        6.6040946618
Hf            1.2541404151        1.2861195606        5.0584509349
Hf            1.2566445541        7.3899419644        5.0881103171
Hf            4.0908974814        1.2861479752        5.0584405512
Hf            4.0883938589        7.3899144606        5.0881204056
Nb            2.6724893361        2.7965419095        3.5157178291
Nb            2.6724856194        5.8767278953        6.6348629721
Ta            1.2105202986        4.3409717882        5.0710892120
Ta            4.0808811291        4.3410927786        5.0709239427
Ta            1.3094969676        1.3137604366        2.0581076287
Ta            1.3050603797        1.3079723908        8.0952095092
Ta            1.3063063900        7.3762441914        2.0456198855
Ta            1.3099996702        7.3654329404        8.0866699470
Ta            4.0355180808        1.3137845622        2.0581245186
Ta            4.0399608087        1.3080118631        8.0951817008
Ta            4.0387168992        7.3762108142        2.0456474088
Ta            4.0350133130        7.3654069075        8.0866518297
Zr            2.6724579746        5.8668909583        3.5270796484
Zr            1.2434022661        4.3219729166        1.9974274950
Zr            1.2398679254        4.3542541462        8.1523617335
Zr            4.1016244082        4.3219546128        1.9974457507
Zr            4.1051583978        4.3542693534        8.1523334572
H             6.7827357803        4.3284367915        5.0869171592


     kinetic energy (Ekin) =           8.05265929 Ry
     temperature           =       38527.70736686 K 
     Ekin + Etot (const)   =       -2934.94254905 Ry
     Ions kinetic stress =          142.22 (kbar)
                                    426.48          -2.17           2.76
                                     -2.17           0.02          -0.01
                                      2.76          -0.01           0.15



     Linear momentum :    0.0000000000   -0.0000000000    0.0000000000

     The maximum number of steps has been reached.

     End of molecular dynamics calculation

     diffusion coefficients :
     atom     1   D =       0.00000003 cm^2/s
     atom     2   D =       0.00000001 cm^2/s
     atom     3   D =       0.00000001 cm^2/s
     atom     4   D =       0.00000006 cm^2/s
     atom     5   D =       0.00000006 cm^2/s
     atom     6   D =       0.00000003 cm^2/s
     atom     7   D =       0.00000003 cm^2/s
     atom     8   D =       0.00000001 cm^2/s
     atom     9   D =       0.00001015 cm^2/s
     atom    10   D =       0.00000002 cm^2/s
     atom    11   D =       0.00000002 cm^2/s
     atom    12   D =       0.00000002 cm^2/s
     atom    13   D =       0.00000002 cm^2/s
     atom    14   D =       0.00000003 cm^2/s
     atom    15   D =       0.00000003 cm^2/s
     atom    16   D =       0.00000003 cm^2/s
     atom    17   D =       0.00000003 cm^2/s
     atom    18   D =       0.00000003 cm^2/s
     atom    19   D =       0.00000003 cm^2/s
     atom    20   D =       0.00000003 cm^2/s
     atom    21   D =       0.00000015 cm^2/s
     atom    22   D =       0.00000015 cm^2/s
     atom    23   D =       0.00174551 cm^2/s

     < D > =       0.00007637 cm^2/s

     Writing all to output data dir outdir/pwscf.save/

     init_run     :      9.61s CPU     11.39s WALL (       1 calls)
     electrons    :   2246.38s CPU   2703.76s WALL (      20 calls)
     update_pot   :     19.08s CPU     20.19s WALL (      19 calls)
     forces       :    261.57s CPU    293.68s WALL (      20 calls)
     stress       :    322.62s CPU    345.07s WALL (      20 calls)

     Called by init_run:
     wfcinit      :      7.09s CPU      8.51s WALL (       1 calls)
     potinit      :      0.46s CPU      0.48s WALL (       1 calls)
     hinit0       :      0.93s CPU      1.06s WALL (       1 calls)

     Called by electrons:
     c_bands      :   1765.31s CPU   2143.76s WALL (      99 calls)
     sum_band     :    315.35s CPU    368.80s WALL (      99 calls)
     v_of_rho     :     10.33s CPU     12.27s WALL (     119 calls)
     newd         :    177.43s CPU    204.61s WALL (     119 calls)
     mix_rho      :      1.00s CPU      1.23s WALL (      99 calls)

     Called by c_bands:
     init_us_2    :      3.83s CPU      3.91s WALL (     478 calls)
     init_us_2:cp :      3.82s CPU      3.90s WALL (     478 calls)
     regterg      :   1751.89s CPU   2126.67s WALL (     198 calls)

     Called by *egterg:
     rdiaghg      :     60.80s CPU     77.40s WALL (    1644 calls)
     h_psi        :    903.44s CPU   1020.74s WALL (    1684 calls)
     s_psi        :    297.34s CPU    297.88s WALL (    1684 calls)
     g_psi        :      0.67s CPU      0.73s WALL (    1484 calls)

     Called by h_psi:
     h_psi:calbec :    433.07s CPU    514.12s WALL (    1684 calls)
     vloc_psi     :     95.89s CPU    131.18s WALL (    1684 calls)
     add_vuspsi   :    373.18s CPU    374.07s WALL (    1684 calls)

     General routines
     calbec       :    802.05s CPU    947.13s WALL (    2082 calls)
     fft          :      9.02s CPU     27.18s WALL (    2484 calls)
     ffts         :      0.20s CPU      0.26s WALL (      99 calls)
     fftw         :    104.13s CPU    142.86s WALL (  104390 calls)

     Parallel routines

     PWSCF        :  48m 2.54s CPU  56m42.45s WALL


   This run was terminated on:   7: 5:11  13Jun2023            

=------------------------------------------------------------------------------=
   JOB DONE.
=------------------------------------------------------------------------------=
