
     Program PWSCF v.7.2 starts on  7Jun2023 at  4:29:26 

     This program is part of the open-source Quantum ESPRESSO suite
     for quantum simulation of materials; please cite
         "P. Giannozzi et al., J. Phys.:Condens. Matter 21 395502 (2009);
         "P. Giannozzi et al., J. Phys.:Condens. Matter 29 465901 (2017);
         "P. Giannozzi et al., J. Chem. Phys. 152 154105 (2020);
          URL http://www.quantum-espresso.org", 
     in publications or presentations arising from this work. More details at
     http://www.quantum-espresso.org/quote

     Parallel version (MPI), running on     2 processors

     MPI processes distributed on     1 nodes
     69521 MiB available memory on the printing compute node when the environment starts

     Reading input from md_Hf5Nb2Ta10Zr5H_1steps_60eV_2.in
Warning: card &CELL ignored
Warning: card / ignored

     Current dimensions of program PWSCF are:
     Max number of different atomic species (ntypx) = 10
     Max number of k-points (npk) =  40000
     Max angular momentum in pseudopotentials (lmaxx) =  4

     gamma-point specific algorithms are used

     R & G space division:  proc/nbgrp/npool/nimage =       2
     Subspace diagonalization in iterative solution of the eigenvalue problem:
     a serial algorithm will be used


     Parallelization info
     --------------------
     sticks:   dense  smooth     PW     G-vecs:    dense   smooth      PW
     Min        4935    4935   1235               440291   440291   55049
     Max        4936    4936   1236               440296   440296   55052
     Sum        9871    9871   2471               880587   880587  110101

     Using Slab Decomposition



     bravais-lattice index     =            0
     lattice parameter (alat)  =      15.7603  a.u.
     unit-cell volume          =    4958.3580 (a.u.)^3
     number of atoms/cell      =           23
     number of atomic types    =            5
     number of electrons       =       277.00
     number of Kohn-Sham states=          167
     kinetic-energy cutoff     =     120.0000  Ry
     charge density cutoff     =     480.0000  Ry
     scf convergence threshold =      1.0E-03
     mixing beta               =       0.7000
     number of iterations used =            8  TF        mixing
     energy convergence thresh.=      0.0E+00
     force convergence thresh. =      0.0E+00
     Exchange-correlation=  SLA  PW   PBX  PBC
                           (   1   4   3   4   0   0   0)
     nstep                     =            1


     celldm(1)=  15.760315  celldm(2)=   0.000000  celldm(3)=   0.000000
     celldm(4)=   0.000000  celldm(5)=   0.000000  celldm(6)=   0.000000

     crystal axes: (cart. coord. in units of alat)
               a(1) = (   1.000000   0.000000   0.000000 )  
               a(2) = (   0.000000   1.040767   0.000000 )  
               a(3) = (   0.000000   0.000000   1.216997 )  

     reciprocal axes: (cart. coord. in units 2 pi/alat)
               b(1) = (  1.000000  0.000000  0.000000 )  
               b(2) = (  0.000000  0.960830  0.000000 )  
               b(3) = (  0.000000  0.000000  0.821695 )  


     PseudoPot. # 1 for Hf read from file:
     q-e/pseudo/hf_pbe_v1.uspp.F.UPF
     MD5 check sum: 8ee9378dfe14276e333edf04c5e4aa26
     Pseudo is Ultrasoft + core correction, Zval = 12.0
     Generated by new atomic code, or converted to UPF format
     Using radial grid of  921 points,  8 beta functions with: 
                l(1) =   0
                l(2) =   0
                l(3) =   0
                l(4) =   1
                l(5) =   1
                l(6) =   2
                l(7) =   2
                l(8) =   3
     Q(r) pseudized with  6 coefficients,  rinner =    1.200   1.200   1.200
                                                       1.200   1.200   1.200
                                                       1.200

     PseudoPot. # 2 for Nb read from file:
     q-e/pseudo/nb_pbe_v1.uspp.F.UPF
     MD5 check sum: 573aab8a2fa660278ed4a62cd769473f
     Pseudo is Ultrasoft + core correction, Zval = 13.0
     Generated by new atomic code, or converted to UPF format
     Using radial grid of  887 points,  6 beta functions with: 
                l(1) =   0
                l(2) =   0
                l(3) =   1
                l(4) =   1
                l(5) =   2
                l(6) =   2
     Q(r) pseudized with  6 coefficients,  rinner =    1.000   1.000   1.000
                                                       1.000   1.000

     PseudoPot. # 3 for Ta read from file:
     q-e/pseudo/ta_pbe_v1.uspp.F.UPF
     MD5 check sum: f8bbe9446314a3b8ea5d9f3e3836c939
     Pseudo is Ultrasoft + core correction, Zval = 13.0
     Generated by new atomic code, or converted to UPF format
     Using radial grid of  921 points,  7 beta functions with: 
                l(1) =   0
                l(2) =   0
                l(3) =   1
                l(4) =   1
                l(5) =   2
                l(6) =   2
                l(7) =   3
     Q(r) pseudized with  6 coefficients,  rinner =    1.300   1.300   1.300
                                                       1.300   1.300   1.300
                                                       1.300

     PseudoPot. # 4 for Zr read from file:
     q-e/pseudo/zr_pbe_v1.uspp.F.UPF
     MD5 check sum: 5db81b1e868ab7776c4564c113de050b
     Pseudo is Ultrasoft + core correction, Zval = 12.0
     Generated by new atomic code, or converted to UPF format
     Using radial grid of  887 points,  6 beta functions with: 
                l(1) =   0
                l(2) =   0
                l(3) =   1
                l(4) =   1
                l(5) =   2
                l(6) =   2
     Q(r) pseudized with  6 coefficients,  rinner =    1.200   1.200   1.200
                                                       1.200   1.200

     PseudoPot. # 5 for H  read from file:
     q-e/pseudo/h_pbe_v1.4.uspp.F.UPF
     MD5 check sum: 761ae9a214b05c3daf00ab9f6b793d6f
     Pseudo is Ultrasoft, Zval =  1.0
     Generated by new atomic code, or converted to UPF format
     Using radial grid of  615 points,  2 beta functions with: 
                l(1) =   0
                l(2) =   0
     Q(r) pseudized with  8 coefficients,  rinner =    0.700

     atomic species   valence    mass     pseudopotential
        Hf            12.00   178.49000     Hf( 1.00)
        Nb            13.00    92.90637     Nb( 1.00)
        Ta            13.00   180.94788     Ta( 1.00)
        Zr            12.00    91.22400     Zr( 1.00)
        H              1.00     2.01400     H ( 1.00)

     Starting magnetic structure 
     atomic species   magnetization
        Hf           0.000
        Nb           0.000
        Ta           0.000
        Zr           0.000
        H            0.000

     No symmetry found



   Cartesian axes

     site n.     atom                  positions (alat units)
         1           Hf  tau(   1) = (   0.3201439   0.3389836   0.7918423  )
         2           Hf  tau(   2) = (   0.1502387   0.1542307   0.6065307  )
         3           Hf  tau(   3) = (   0.1505380   0.8860677   0.6100801  )
         4           Hf  tau(   4) = (   0.4900491   0.1542307   0.6065307  )
         5           Hf  tau(   5) = (   0.4897498   0.8860677   0.6100801  )
         6           Nb  tau(   6) = (   0.3201439   0.3353634   0.4215328  )
         7           Nb  tau(   7) = (   0.3201439   0.7046018   0.7955633  )
         8           Ta  tau(   8) = (   0.1450088   0.5204950   0.6080487  )
         9           Ta  tau(   9) = (   0.4952790   0.5204950   0.6080487  )
        10           Ta  tau(  10) = (   0.1567449   0.1575687   0.2468560  )
        11           Ta  tau(  11) = (   0.1562096   0.1568814   0.9705731  )
        12           Ta  tau(  12) = (   0.1563561   0.8843917   0.2453522  )
        13           Ta  tau(  13) = (   0.1567999   0.8831035   0.9695447  )
        14           Ta  tau(  14) = (   0.4835429   0.1575687   0.2468560  )
        15           Ta  tau(  15) = (   0.4840781   0.1568814   0.9705731  )
        16           Ta  tau(  16) = (   0.4839317   0.8843917   0.2453522  )
        17           Ta  tau(  17) = (   0.4834879   0.8831035   0.9695447  )
        18           Zr  tau(  18) = (   0.3201439   0.7033916   0.4229477  )
        19           Zr  tau(  19) = (   0.1491408   0.5182348   0.2398082  )
        20           Zr  tau(  20) = (   0.1487273   0.5220772   0.9771889  )
        21           Zr  tau(  21) = (   0.4911469   0.5182348   0.2398082  )
        22           Zr  tau(  22) = (   0.4915605   0.5220772   0.9771889  )
        23           H   tau(  23) = (   0.6751351   0.5203837   0.6081751  )

     number of k points=     1  Gaussian smearing, width (Ry)=  0.0220
                       cart. coord. in units 2pi/alat
        k(    1) = (   0.0000000   0.0000000   0.0000000), wk =   1.0000000

     Dense  grid:   440294 G-vectors     FFT dimensions: ( 120, 120, 135)

     Estimated max dynamical RAM per process >       2.05 GB

     Estimated total dynamical RAM >       4.11 GB

     Check: negative core charge=   -0.000002
     Generating pointlists ...
     new r_m :   0.1251 (alat units)  1.9717 (a.u.) for type    1
     new r_m :   0.1229 (alat units)  1.9374 (a.u.) for type    2
     new r_m :   0.0742 (alat units)  1.1693 (a.u.) for type    3
     new r_m :   0.1245 (alat units)  1.9625 (a.u.) for type    4
     new r_m :   0.0742 (alat units)  1.1693 (a.u.) for type    5

     Initial potential from superposition of free atoms

     starting charge     266.9726, renormalised to     277.0000

     negative rho (up, down):  9.206E-01 9.206E-01
