
     Program PWSCF v.7.2 starts on 12Jun2023 at 19:22:30 

     This program is part of the open-source Quantum ESPRESSO suite
     for quantum simulation of materials; please cite
         "P. Giannozzi et al., J. Phys.:Condens. Matter 21 395502 (2009);
         "P. Giannozzi et al., J. Phys.:Condens. Matter 29 465901 (2017);
         "P. Giannozzi et al., J. Chem. Phys. 152 154105 (2020);
          URL http://www.quantum-espresso.org", 
     in publications or presentations arising from this work. More details at
     http://www.quantum-espresso.org/quote

     Parallel version (MPI), running on    42 processors

     MPI processes distributed on     1 nodes
     180047 MiB available memory on the printing compute node when the environment starts

     Reading input from md_data/md_Hf5Nb2Ta10Zr5H_20steps_100eV_incident45_polar0.in
Warning: card &CELL ignored
Warning: card / ignored

     Current dimensions of program PWSCF are:
     Max number of different atomic species (ntypx) = 10
     Max number of k-points (npk) =  40000
     Max angular momentum in pseudopotentials (lmaxx) =  4

     File outdir/pwscf.update deleted, as requested

     File outdir/pwscf.md deleted, as requested

     gamma-point specific algorithms are used

     R & G space division:  proc/nbgrp/npool/nimage =      42
     Subspace diagonalization in iterative solution of the eigenvalue problem:
     one sub-group per band group will be used
     custom distributed-memory algorithm (size of sub-group:  2*  2 procs)


     Parallelization info
     --------------------
     sticks:   dense  smooth     PW     G-vecs:    dense   smooth      PW
     Min         262     262     63                23470    23470    2920
     Max         265     265     66                23484    23484    2942
     Sum       11057   11057   2753               986005   986005  123175

     Using Slab Decomposition



     bravais-lattice index     =            0
     lattice parameter (alat)  =      17.6500  a.u.
     unit-cell volume          =    5552.8853 (a.u.)^3
     number of atoms/cell      =           23
     number of atomic types    =            5
     number of electrons       =       277.00
     number of Kohn-Sham states=          167
     kinetic-energy cutoff     =     120.0000  Ry
     charge density cutoff     =     480.0000  Ry
     scf convergence threshold =      1.0E-03
     mixing beta               =       0.7000
     number of iterations used =            8  TF        mixing
     energy convergence thresh.=      0.0E+00
     force convergence thresh. =      0.0E+00
     Exchange-correlation=  SLA  PW   PBX  PBC
                           (   1   4   3   4   0   0   0)
     nstep                     =           20


     celldm(1)=  17.650041  celldm(2)=   0.000000  celldm(3)=   0.000000
     celldm(4)=   0.000000  celldm(5)=   0.000000  celldm(6)=   0.000000

     crystal axes: (cart. coord. in units of alat)
               a(1) = (   1.000000   0.000000   0.000000 )  
               a(2) = (   0.000000   0.929336   0.000000 )  
               a(3) = (   0.000000   0.000000   1.086698 )  

     reciprocal axes: (cart. coord. in units 2 pi/alat)
               b(1) = (  1.000000  0.000000  0.000000 )  
               b(2) = (  0.000000  1.076037  0.000000 )  
               b(3) = (  0.000000  0.000000  0.920219 )  


     PseudoPot. # 1 for Hf read from file:
     q-e/pseudo/hf_pbe_v1.uspp.F.UPF
     MD5 check sum: 8ee9378dfe14276e333edf04c5e4aa26
     Pseudo is Ultrasoft + core correction, Zval = 12.0
     Generated by new atomic code, or converted to UPF format
     Using radial grid of  921 points,  8 beta functions with: 
                l(1) =   0
                l(2) =   0
                l(3) =   0
                l(4) =   1
                l(5) =   1
                l(6) =   2
                l(7) =   2
                l(8) =   3
     Q(r) pseudized with  6 coefficients,  rinner =    1.200   1.200   1.200
                                                       1.200   1.200   1.200
                                                       1.200

     PseudoPot. # 2 for Nb read from file:
     q-e/pseudo/nb_pbe_v1.uspp.F.UPF
     MD5 check sum: 573aab8a2fa660278ed4a62cd769473f
     Pseudo is Ultrasoft + core correction, Zval = 13.0
     Generated by new atomic code, or converted to UPF format
     Using radial grid of  887 points,  6 beta functions with: 
                l(1) =   0
                l(2) =   0
                l(3) =   1
                l(4) =   1
                l(5) =   2
                l(6) =   2
     Q(r) pseudized with  6 coefficients,  rinner =    1.000   1.000   1.000
                                                       1.000   1.000

     PseudoPot. # 3 for Ta read from file:
     q-e/pseudo/ta_pbe_v1.uspp.F.UPF
     MD5 check sum: f8bbe9446314a3b8ea5d9f3e3836c939
     Pseudo is Ultrasoft + core correction, Zval = 13.0
     Generated by new atomic code, or converted to UPF format
     Using radial grid of  921 points,  7 beta functions with: 
                l(1) =   0
                l(2) =   0
                l(3) =   1
                l(4) =   1
                l(5) =   2
                l(6) =   2
                l(7) =   3
     Q(r) pseudized with  6 coefficients,  rinner =    1.300   1.300   1.300
                                                       1.300   1.300   1.300
                                                       1.300

     PseudoPot. # 4 for Zr read from file:
     q-e/pseudo/zr_pbe_v1.uspp.F.UPF
     MD5 check sum: 5db81b1e868ab7776c4564c113de050b
     Pseudo is Ultrasoft + core correction, Zval = 12.0
     Generated by new atomic code, or converted to UPF format
     Using radial grid of  887 points,  6 beta functions with: 
                l(1) =   0
                l(2) =   0
                l(3) =   1
                l(4) =   1
                l(5) =   2
                l(6) =   2
     Q(r) pseudized with  6 coefficients,  rinner =    1.200   1.200   1.200
                                                       1.200   1.200

     PseudoPot. # 5 for H  read from file:
     q-e/pseudo/h_pbe_v1.4.uspp.F.UPF
     MD5 check sum: 761ae9a214b05c3daf00ab9f6b793d6f
     Pseudo is Ultrasoft, Zval =  1.0
     Generated by new atomic code, or converted to UPF format
     Using radial grid of  615 points,  2 beta functions with: 
                l(1) =   0
                l(2) =   0
     Q(r) pseudized with  8 coefficients,  rinner =    0.700

     atomic species   valence    mass     pseudopotential
        Hf            12.00   178.49000     Hf( 1.00)
        Nb            13.00    92.90637     Nb( 1.00)
        Ta            13.00   180.94788     Ta( 1.00)
        Zr            12.00    91.22400     Zr( 1.00)
        H              1.00     2.01400     H ( 1.00)

     Starting magnetic structure 
     atomic species   magnetization
        Hf           0.000
        Nb           0.000
        Ta           0.000
        Zr           0.000
        H            0.000

     No symmetry found



   Cartesian axes

     site n.     atom                  positions (alat units)
         1           Hf  tau(   1) = (   0.2858672   0.3026898   0.7070626  )
         2           Hf  tau(   2) = (   0.1341532   0.1377178   0.5415917  )
         3           Hf  tau(   3) = (   0.1344204   0.7911996   0.5447610  )
         4           Hf  tau(   4) = (   0.4375813   0.1377178   0.5415917  )
         5           Hf  tau(   5) = (   0.4373140   0.7911996   0.5447610  )
         6           Nb  tau(   6) = (   0.2858672   0.2994572   0.3764008  )
         7           Nb  tau(   7) = (   0.2858672   0.6291626   0.7103852  )
         8           Ta  tau(   8) = (   0.1294832   0.4647675   0.5429471  )
         9           Ta  tau(   9) = (   0.4422513   0.4647675   0.5429471  )
        10           Ta  tau(  10) = (   0.1399628   0.1406984   0.2204260  )
        11           Ta  tau(  11) = (   0.1394848   0.1400847   0.8666573  )
        12           Ta  tau(  12) = (   0.1396156   0.7897030   0.2190832  )
        13           Ta  tau(  13) = (   0.1400119   0.7885528   0.8657390  )
        14           Ta  tau(  14) = (   0.4317717   0.1406984   0.2204260  )
        15           Ta  tau(  15) = (   0.4322496   0.1400847   0.8666573  )
        16           Ta  tau(  16) = (   0.4321189   0.7897030   0.2190832  )
        17           Ta  tau(  17) = (   0.4317226   0.7885528   0.8657390  )
        18           Zr  tau(  18) = (   0.2858672   0.6280820   0.3776642  )
        19           Zr  tau(  19) = (   0.1331729   0.4627493   0.2141328  )
        20           Zr  tau(  20) = (   0.1328036   0.4661802   0.8725649  )
        21           Zr  tau(  21) = (   0.4385616   0.4627493   0.2141328  )
        22           Zr  tau(  22) = (   0.4389309   0.4661802   0.8725649  )
        23           H   tau(  23) = (   0.5936660   0.6160828   0.5430600  )

     number of k points=     1  Gaussian smearing, width (Ry)=  0.0220
                       cart. coord. in units 2pi/alat
        k(    1) = (   0.0000000   0.0000000   0.0000000), wk =   1.0000000

     Dense  grid:   493003 G-vectors     FFT dimensions: ( 125, 120, 135)

     Estimated max dynamical RAM per process >     133.03 MB

     Estimated total dynamical RAM >       5.46 GB

     Check: negative core charge=   -0.000002
     Generating pointlists ...
     new r_m :   0.0968 (alat units)  1.7092 (a.u.) for type    1
     new r_m :   0.1098 (alat units)  1.9374 (a.u.) for type    2
     new r_m :   0.0883 (alat units)  1.5585 (a.u.) for type    3
     new r_m :   0.1112 (alat units)  1.9625 (a.u.) for type    4
     new r_m :   0.0883 (alat units)  1.5585 (a.u.) for type    5

     Initial potential from superposition of free atoms

     starting charge     266.9726, renormalised to     277.0000

     negative rho (up, down):  9.216E-01 9.216E-01
     Starting wfcs are  287 randomized atomic wfcs

     total cpu time spent up to now is       12.6 secs

     Self-consistent Calculation

     iteration #  1     ecut=   120.00 Ry     beta= 0.70
     Davidson diagonalization with overlap
     ethr =  1.00E-02,  avg # of iterations =  2.0

     negative rho (up, down):  9.938E-01 9.935E-01

     total cpu time spent up to now is       33.3 secs

     total energy              =   -2930.56111347 Ry
     estimated scf accuracy    <     277.02592252 Ry

     total magnetization       =    -0.00 Bohr mag/cell
     absolute magnetization    =     0.09 Bohr mag/cell

     iteration #  2     ecut=   120.00 Ry     beta= 0.70
     Davidson diagonalization with overlap
     ethr =  1.00E-02,  avg # of iterations =  5.0

     negative rho (up, down):  9.682E-01 9.687E-01

     total cpu time spent up to now is       55.1 secs

     total energy              =   -2942.33072069 Ry
     estimated scf accuracy    <      29.60319328 Ry

     total magnetization       =    -0.02 Bohr mag/cell
     absolute magnetization    =     0.16 Bohr mag/cell

     iteration #  3     ecut=   120.00 Ry     beta= 0.70
     Davidson diagonalization with overlap
     ethr =  1.00E-02,  avg # of iterations =  2.0

     negative rho (up, down):  1.004E+00 1.007E+00

     total cpu time spent up to now is       73.6 secs

     total energy              =   -2942.67303909 Ry
     estimated scf accuracy    <      13.17507130 Ry

     total magnetization       =    -0.05 Bohr mag/cell
     absolute magnetization    =     0.19 Bohr mag/cell

     iteration #  4     ecut=   120.00 Ry     beta= 0.70
     Davidson diagonalization with overlap
     ethr =  4.76E-03,  avg # of iterations =  3.0

     negative rho (up, down):  1.011E+00 1.014E+00

     total cpu time spent up to now is      110.2 secs

     total energy              =   -2942.93942832 Ry
     estimated scf accuracy    <       3.18723028 Ry

     total magnetization       =    -0.03 Bohr mag/cell
     absolute magnetization    =     0.21 Bohr mag/cell

     iteration #  5     ecut=   120.00 Ry     beta= 0.70
     Davidson diagonalization with overlap
     ethr =  1.15E-03,  avg # of iterations =  7.5

     negative rho (up, down):  9.839E-01 9.861E-01

     total cpu time spent up to now is      156.4 secs

     total energy              =   -2943.08058259 Ry
     estimated scf accuracy    <       1.58875459 Ry

     total magnetization       =     0.03 Bohr mag/cell
     absolute magnetization    =     0.17 Bohr mag/cell

     iteration #  6     ecut=   120.00 Ry     beta= 0.70
     Davidson diagonalization with overlap
     ethr =  5.74E-04,  avg # of iterations =  2.0

     negative rho (up, down):  9.721E-01 9.734E-01

     total cpu time spent up to now is      174.0 secs

     total energy              =   -2943.13543470 Ry
     estimated scf accuracy    <       1.24051617 Ry

     total magnetization       =     0.02 Bohr mag/cell
     absolute magnetization    =     0.12 Bohr mag/cell

     iteration #  7     ecut=   120.00 Ry     beta= 0.70
     Davidson diagonalization with overlap
     ethr =  4.48E-04,  avg # of iterations =  1.0

     negative rho (up, down):  9.483E-01 9.488E-01

     total cpu time spent up to now is      189.9 secs

     total energy              =   -2943.07759140 Ry
     estimated scf accuracy    <       0.47131810 Ry

     total magnetization       =     0.05 Bohr mag/cell
     absolute magnetization    =     0.12 Bohr mag/cell

     iteration #  8     ecut=   120.00 Ry     beta= 0.70
     Davidson diagonalization with overlap
     ethr =  1.70E-04,  avg # of iterations =  4.5

     negative rho (up, down):  9.205E-01 9.205E-01

     total cpu time spent up to now is      207.9 secs

     total energy              =   -2943.08313054 Ry
     estimated scf accuracy    <       0.20969307 Ry

     total magnetization       =     0.06 Bohr mag/cell
     absolute magnetization    =     0.10 Bohr mag/cell

     iteration #  9     ecut=   120.00 Ry     beta= 0.70
     Davidson diagonalization with overlap
     ethr =  7.57E-05,  avg # of iterations = 15.5

     negative rho (up, down):  9.080E-01 9.078E-01

     total cpu time spent up to now is      227.3 secs

     total energy              =   -2943.07832960 Ry
     estimated scf accuracy    <       0.06148577 Ry

     total magnetization       =     0.07 Bohr mag/cell
     absolute magnetization    =     0.09 Bohr mag/cell

     iteration # 10     ecut=   120.00 Ry     beta= 0.70
     Davidson diagonalization with overlap
     ethr =  2.22E-05,  avg # of iterations =  9.5

     negative rho (up, down):  9.083E-01 9.083E-01

     total cpu time spent up to now is      261.0 secs

     total energy              =   -2943.08343884 Ry
     estimated scf accuracy    <       0.03074837 Ry

     total magnetization       =     0.07 Bohr mag/cell
     absolute magnetization    =     0.10 Bohr mag/cell

     iteration # 11     ecut=   120.00 Ry     beta= 0.70
     Davidson diagonalization with overlap
     ethr =  1.11E-05,  avg # of iterations =  3.5

     negative rho (up, down):  9.091E-01 9.091E-01

     total cpu time spent up to now is      298.0 secs

     total energy              =   -2943.08676667 Ry
     estimated scf accuracy    <       0.01022773 Ry

     total magnetization       =     0.08 Bohr mag/cell
     absolute magnetization    =     0.09 Bohr mag/cell

     iteration # 12     ecut=   120.00 Ry     beta= 0.70
     Davidson diagonalization with overlap
     c_bands:  1 eigenvalues not converged
     ethr =  3.69E-06,  avg # of iterations = 15.5

     negative rho (up, down):  9.093E-01 9.093E-01

     total cpu time spent up to now is      328.6 secs

     total energy              =   -2943.08961330 Ry
     estimated scf accuracy    <       0.00159224 Ry

     total magnetization       =     0.07 Bohr mag/cell
     absolute magnetization    =     0.09 Bohr mag/cell

     iteration # 13     ecut=   120.00 Ry     beta= 0.70
     Davidson diagonalization with overlap
     ethr =  5.75E-07,  avg # of iterations =  6.5

     negative rho (up, down):  9.090E-01 9.090E-01

     Magnetic moment per site  (integrated on atomic sphere of radius R)
     atom   1 (R=0.097)  charge=  8.3327  magn= -0.0001
     atom   2 (R=0.097)  charge=  8.1125  magn= -0.0001
     atom   3 (R=0.097)  charge=  8.1123  magn= -0.0001
     atom   4 (R=0.097)  charge=  8.1124  magn= -0.0002
     atom   5 (R=0.097)  charge=  8.1074  magn=  0.0001
     atom   6 (R=0.110)  charge= 10.3474  magn= -0.0004
     atom   7 (R=0.110)  charge= 10.3482  magn=  0.0002
     atom   8 (R=0.088)  charge=  8.1231  magn=  0.0000
     atom   9 (R=0.088)  charge=  8.1179  magn= -0.0002
     atom  10 (R=0.088)  charge=  8.1039  magn=  0.0010
     atom  11 (R=0.088)  charge=  8.1000  magn=  0.0008
     atom  12 (R=0.088)  charge=  8.1032  magn=  0.0028
     atom  13 (R=0.088)  charge=  8.1021  magn=  0.0007
     atom  14 (R=0.088)  charge=  8.1029  magn=  0.0012
     atom  15 (R=0.088)  charge=  8.0982  magn=  0.0010
     atom  16 (R=0.088)  charge=  8.1045  magn=  0.0031
     atom  17 (R=0.088)  charge=  8.1049  magn=  0.0009
     atom  18 (R=0.111)  charge=  9.4538  magn= -0.0001
     atom  19 (R=0.111)  charge=  9.0030  magn=  0.0023
     atom  20 (R=0.111)  charge=  8.9951  magn=  0.0010
     atom  21 (R=0.111)  charge=  9.0078  magn=  0.0026
     atom  22 (R=0.111)  charge=  8.9962  magn=  0.0011
     atom  23 (R=0.088)  charge=  1.0488  magn=  0.0002

     total cpu time spent up to now is      349.7 secs

     End of self-consistent calculation

 ------ SPIN UP ------------


          k = 0.0000 0.0000 0.0000 ( 61588 PWs)   bands (ev):

   -60.7887 -60.7833 -60.7437 -60.7368 -60.7122 -60.6991 -60.6685 -60.6553
   -60.5545 -60.4369 -54.3651 -54.2936 -54.2368 -54.1587 -52.7120 -46.2771
   -46.2627 -41.6668 -41.6374 -41.5659 -41.5533 -39.8147 -27.7914 -27.7809
   -27.7075 -27.6921 -27.6057 -27.5983 -27.4764 -27.4682 -27.4076 -27.3396
   -27.3183 -27.2755 -27.2657 -27.2467 -27.2299 -27.1868 -27.1715 -27.1580
   -27.1208 -27.0807 -27.0366 -26.9756 -26.9644 -26.9631 -26.9523 -26.9404
   -26.8956 -26.8907 -26.8662 -26.8577 -24.1518 -23.9275 -23.6468 -23.5338
   -23.3006 -23.1681 -23.1277 -23.0380 -22.9160 -22.8220 -22.7993 -22.5675
   -22.5161 -22.4591 -22.3945 -22.3474 -22.2740 -22.2260 -21.7633 -21.7020
   -21.6406 -20.2257 -19.9441 -19.8780 -19.8626 -19.6314 -19.6144 -19.6107
   -19.5973 -19.5830 -19.5455 -19.4055 -19.3737 -18.1598 -17.9671 -17.8287
     1.3934   2.7079   2.9231   3.1336   3.3243   3.4508   3.5303   3.6602
     3.6892   3.8697   3.9057   4.0652   4.1641   4.4949   4.5744   4.6946
     4.7591   4.8333   5.0222   5.0954   5.1671   5.2558   5.2769   5.3588
     5.4047   5.5463   5.6061   5.7209   5.7259   5.7419   5.7544   5.8314
     5.9551   6.0781   6.1837   6.1972   6.2366   6.2787   6.3563   6.4039
     6.4472   6.5898   6.6479   6.7154   6.8020   6.9688   6.9983   7.0623
     7.0937   7.1514   7.2356   7.2630   7.3145   7.4293   7.5472   7.5551
     7.6102   7.7615   7.8884   7.8954   8.0764   8.0948   8.1047   8.2015
     8.2405   8.2536   8.3473   8.3723   8.4292   8.5488   8.6498   8.6621
     8.8507   8.8923   8.9899   9.0721   9.1332   9.2193   9.2687

 ------ SPIN DOWN ----------


          k = 0.0000 0.0000 0.0000 ( 61588 PWs)   bands (ev):

   -60.7868 -60.7825 -60.7418 -60.7360 -60.7096 -60.6983 -60.6659 -60.6544
   -60.5545 -60.4372 -54.3652 -54.2938 -54.2370 -54.1588 -52.7122 -46.2770
   -46.2636 -41.6645 -41.6365 -41.5636 -41.5523 -39.8150 -27.7884 -27.7795
   -27.7042 -27.6909 -27.6040 -27.5962 -27.4738 -27.4657 -27.4075 -27.3380
   -27.3173 -27.2733 -27.2648 -27.2450 -27.2281 -27.1857 -27.1690 -27.1571
   -27.1206 -27.0807 -27.0367 -26.9750 -26.9621 -26.9618 -26.9502 -26.9385
   -26.8924 -26.8892 -26.8628 -26.8566 -24.1522 -23.9280 -23.6468 -23.5339
   -23.3009 -23.1683 -23.1278 -23.0381 -22.9163 -22.8223 -22.7995 -22.5677
   -22.5164 -22.4597 -22.3945 -22.3475 -22.2743 -22.2264 -21.7633 -21.7021
   -21.6408 -20.2236 -19.9431 -19.8757 -19.8606 -19.6285 -19.6124 -19.6097
   -19.5960 -19.5816 -19.5443 -19.4025 -19.3725 -18.1601 -17.9673 -17.8286
     1.3943   2.7084   2.9258   3.1341   3.3252   3.4535   3.5309   3.6607
     3.6896   3.8702   3.9087   4.0660   4.1656   4.4954   4.5756   4.6967
     4.7604   4.8345   5.0239   5.0972   5.1683   5.2576   5.2783   5.3614
     5.4067   5.5473   5.6069   5.7230   5.7271   5.7425   5.7556   5.8327
     5.9560   6.0806   6.1854   6.1990   6.2380   6.2798   6.3575   6.4060
     6.4493   6.5912   6.6496   6.7173   6.8038   6.9707   7.0031   7.0659
     7.1015   7.1543   7.2439   7.2678   7.3166   7.4356   7.5500   7.5591
     7.6134   7.7647   7.8902   7.8971   8.0803   8.0977   8.1072   8.2065
     8.2435   8.2553   8.3518   8.3747   8.4312   8.5517   8.6516   8.6642
     8.8522   8.8980   8.9927   9.0741   9.1348   9.2198   9.2751

     the Fermi energy is     7.2316 ev

!    total energy              =   -2943.09064948 Ry
     estimated scf accuracy    <       0.00063901 Ry
     smearing contrib. (-TS)   =      -0.10119360 Ry
     internal energy E=F+TS    =   -2942.98945588 Ry

     total magnetization       =     0.07 Bohr mag/cell
     absolute magnetization    =     0.08 Bohr mag/cell

     convergence has been achieved in  13 iterations

     negative rho (up, down):  9.090E-01 9.090E-01

     Forces acting on atoms (cartesian axes, Ry/au):

     atom    1 type  1   force =    -0.00731462   -0.02477862    0.00900753
     atom    2 type  1   force =    -0.11803188   -0.01812975   -0.00536317
     atom    3 type  1   force =    -0.11912702    0.01422626    0.00208946
     atom    4 type  1   force =     0.12029991   -0.00448796   -0.00467567
     atom    5 type  1   force =     0.13805363   -0.02175663    0.00572793
     atom    6 type  2   force =    -0.00573434   -0.01452411    0.01018394
     atom    7 type  2   force =    -0.01234096    0.00930175   -0.01179795
     atom    8 type  3   force =    -0.10931281    0.00412326   -0.00561238
     atom    9 type  3   force =     0.14916861    0.03544203   -0.00523843
     atom   10 type  3   force =    -0.02184395   -0.02812376   -0.05930831
     atom   11 type  3   force =    -0.02040403   -0.03365938    0.05695947
     atom   12 type  3   force =    -0.01464599    0.03577817   -0.05606974
     atom   13 type  3   force =    -0.01647771    0.02977014    0.06311910
     atom   14 type  3   force =     0.01977063   -0.03174454   -0.06312082
     atom   15 type  3   force =     0.01950037   -0.03830779    0.06128637
     atom   16 type  3   force =     0.01605754    0.04334854   -0.05698493
     atom   17 type  3   force =     0.01630825    0.03681722    0.06287150
     atom   18 type  4   force =    -0.01134130    0.01596516   -0.00787136
     atom   19 type  4   force =    -0.12641465   -0.00635478   -0.11666879
     atom   20 type  4   force =    -0.13254107    0.00496709    0.11945619
     atom   21 type  4   force =     0.12126333   -0.01065546   -0.11853206
     atom   22 type  4   force =     0.12938819    0.00201570    0.12060463
     atom   23 type  5   force =    -0.01428012    0.00076744   -0.00006251
     The non-local contrib.  to forces
     atom    1 type  1   force =    -0.00114573   -0.00811112    0.02566232
     atom    2 type  1   force =    -0.25127762   -0.15876262    0.01503258
     atom    3 type  1   force =    -0.23842726    0.15354502   -0.02735539
     atom    4 type  1   force =     0.24686616   -0.16825675    0.01597053
     atom    5 type  1   force =     0.19141266    0.17984867   -0.02584052
     atom    6 type  2   force =     0.00686395   -0.05024765   -0.07213927
     atom    7 type  2   force =    -0.01533901    0.06709007    0.06134825
     atom    8 type  3   force =    -0.25609260    0.00496418   -0.00582148
     atom    9 type  3   force =     0.16215169   -0.05666268   -0.01320527
     atom   10 type  3   force =    -0.21165891    0.00485041   -0.20896585
     atom   11 type  3   force =    -0.21748568    0.00443274    0.19956156
     atom   12 type  3   force =    -0.20604877   -0.02119171   -0.17743585
     atom   13 type  3   force =    -0.21407962   -0.00496321    0.20856127
     atom   14 type  3   force =     0.20552418    0.00157132   -0.21754545
     atom   15 type  3   force =     0.21525059    0.00439802    0.20434096
     atom   16 type  3   force =     0.22182834   -0.02753908   -0.17223976
     atom   17 type  3   force =     0.22668406   -0.01265826    0.20214847
     atom   18 type  4   force =    -0.01605804    0.05708611   -0.06550133
     atom   19 type  4   force =     0.06359413    0.00633701    0.07019193
     atom   20 type  4   force =     0.05810257   -0.01617458   -0.06650593
     atom   21 type  4   force =    -0.06379999    0.00732659    0.06761037
     atom   22 type  4   force =    -0.05780245   -0.01506421   -0.05893985
     atom   23 type  5   force =    -0.04014066   -0.00961666   -0.00014720
     The ionic contribution  to forces
     atom    1 type  1   force =    -0.16178871   -4.69643324   14.07011968
     atom    2 type  1   force =   -39.68882424   -6.10399168    0.77974368
     atom    3 type  1   force =   -39.70779304    6.20258383   -0.71315904
     atom    4 type  1   force =    39.51983818   -6.07984449    0.77898964
     atom    5 type  1   force =    38.74239248    7.06798957   -0.70461503
     atom    6 type  2   force =    -0.17160145   -3.65949816  -13.97156808
     atom    7 type  2   force =    -0.47198994    3.57823273   14.17875905
     atom    8 type  3   force =   -52.15499667   -0.03156359   -0.06497207
     atom    9 type  3   force =    50.83449909   -1.14717852   -0.06581307
     atom   10 type  3   force =   -36.06105034   -2.07573419  -23.09842174
     atom   11 type  3   force =   -35.13516352   -0.82859220   22.10269885
     atom   12 type  3   force =   -35.26300098    0.83881144  -22.19111917
     atom   13 type  3   force =   -36.05352563    2.22284118   23.12090745
     atom   14 type  3   force =    35.96225716   -2.06989794  -23.15965208
     atom   15 type  3   force =    35.03701111   -0.82244395   22.16390756
     atom   16 type  3   force =    35.04710887    0.95408897  -22.40816719
     atom   17 type  3   force =    35.83458498    2.33905973   23.34036686
     atom   18 type  4   force =    -0.43990509    4.35047234  -14.08846989
     atom   19 type  4   force =   -35.91045495    0.90966618  -25.58339251
     atom   20 type  4   force =   -35.89348593   -1.00030003   25.56187226
     atom   21 type  4   force =    35.71263543    0.80662709  -25.80391037
     atom   22 type  4   force =    35.69485177   -1.10228505   25.78518089
     atom   23 type  5   force =     4.72840141    0.34738998   -0.02928570
     The local contribution  to forces
     atom    1 type  1   force =     0.15668159    4.67888436  -14.08916958
     atom    2 type  1   force =    39.83948452    6.24210507   -0.80915319
     atom    3 type  1   force =    39.84501479   -6.33948361    0.73910899
     atom    4 type  1   force =   -39.66302453    6.24442479   -0.80891410
     atom    5 type  1   force =   -38.80236819   -7.27892713    0.73578702
     atom    6 type  2   force =     0.16299499    3.70265796   14.02546874
     atom    7 type  2   force =     0.47981147   -3.63196420  -14.25091127
     atom    8 type  3   force =    52.32964719    0.02878481    0.05220858
     atom    9 type  3   force =   -50.85919106    1.24829625    0.05940402
     atom   10 type  3   force =    36.27345249    2.04285416   23.26076275
     atom   11 type  3   force =    35.35797588    0.78275393  -22.25837901
     atom   12 type  3   force =    35.47543422   -0.77325676   22.32088834
     atom   13 type  3   force =    36.27782223   -2.18069903  -23.27737735
     atom   14 type  3   force =   -36.16947753    2.03838519   23.32696793
     atom   15 type  3   force =   -35.25729334    0.76582944  -22.31915878
     atom   16 type  3   force =   -35.27508625   -0.87555825   22.53028015
     atom   17 type  3   force =   -36.06704162   -2.28385658  -23.49042768
     atom   18 type  4   force =     0.44708285   -4.40259405   14.12506331
     atom   19 type  4   force =    35.73633054   -0.92766508   25.40185520
     atom   20 type  4   force =    35.70840026    1.02123175  -25.37911020
     atom   21 type  4   force =   -35.54093076   -0.83033666   25.62550422
     atom   22 type  4   force =   -35.51127824    1.12331709  -25.60927618
     atom   23 type  5   force =    -4.70272617   -0.33807073    0.02795273
     The core correction contribution to forces
     atom    1 type  1   force =    -0.00024597    0.00210814   -0.00190525
     atom    2 type  1   force =    -0.01134461   -0.00102408    0.00083384
     atom    3 type  1   force =    -0.01144342    0.00268175   -0.00143162
     atom    4 type  1   force =     0.01144490   -0.00265180    0.00084479
     atom    5 type  1   force =     0.00154693    0.01154769   -0.00157313
     atom    6 type  2   force =    -0.00034708    0.00247204    0.00300716
     atom    7 type  2   force =     0.00058010   -0.00335956   -0.00241166
     atom    8 type  3   force =    -0.03071749    0.00052914   -0.00059758
     atom    9 type  3   force =     0.01705216   -0.01059790   -0.00142107
     atom   10 type  3   force =    -0.02241249    0.00896867   -0.01727995
     atom   11 type  3   force =    -0.02445345    0.00897273    0.01794513
     atom   12 type  3   force =    -0.02255702   -0.01023168   -0.01515287
     atom   13 type  3   force =    -0.02290454   -0.00936114    0.01653129
     atom   14 type  3   force =     0.02174145    0.00952517   -0.01674968
     atom   15 type  3   force =     0.02314783    0.01019732    0.01715599
     atom   16 type  3   force =     0.02426383   -0.01122849   -0.01373075
     atom   17 type  3   force =     0.02359267   -0.00995578    0.01514270
     atom   18 type  4   force =     0.00084981   -0.00327440    0.00308155
     atom   19 type  4   force =    -0.00988907    0.00015584   -0.00946178
     atom   20 type  4   force =    -0.00977363    0.00050439    0.00938167
     atom   21 type  4   force =     0.01006388    0.00028355   -0.00912385
     atom   22 type  4   force =     0.00986534    0.00057032    0.00876038
     atom   23 type  5   force =     0.00000000    0.00000000    0.00000000
     The Hubbard contrib.    to forces
     atom    1 type  1   force =     0.00000000    0.00000000    0.00000000
     atom    2 type  1   force =     0.00000000    0.00000000    0.00000000
     atom    3 type  1   force =     0.00000000    0.00000000    0.00000000
     atom    4 type  1   force =     0.00000000    0.00000000    0.00000000
     atom    5 type  1   force =     0.00000000    0.00000000    0.00000000
     atom    6 type  2   force =     0.00000000    0.00000000    0.00000000
     atom    7 type  2   force =     0.00000000    0.00000000    0.00000000
     atom    8 type  3   force =     0.00000000    0.00000000    0.00000000
     atom    9 type  3   force =     0.00000000    0.00000000    0.00000000
     atom   10 type  3   force =     0.00000000    0.00000000    0.00000000
     atom   11 type  3   force =     0.00000000    0.00000000    0.00000000
     atom   12 type  3   force =     0.00000000    0.00000000    0.00000000
     atom   13 type  3   force =     0.00000000    0.00000000    0.00000000
     atom   14 type  3   force =     0.00000000    0.00000000    0.00000000
     atom   15 type  3   force =     0.00000000    0.00000000    0.00000000
     atom   16 type  3   force =     0.00000000    0.00000000    0.00000000
     atom   17 type  3   force =     0.00000000    0.00000000    0.00000000
     atom   18 type  4   force =     0.00000000    0.00000000    0.00000000
     atom   19 type  4   force =     0.00000000    0.00000000    0.00000000
     atom   20 type  4   force =     0.00000000    0.00000000    0.00000000
     atom   21 type  4   force =     0.00000000    0.00000000    0.00000000
     atom   22 type  4   force =     0.00000000    0.00000000    0.00000000
     atom   23 type  5   force =     0.00000000    0.00000000    0.00000000
     The SCF correction term to forces
     atom    1 type  1   force =    -0.00061799   -0.00128293    0.00357459
     atom    2 type  1   force =    -0.00587212    0.00348740    0.00745416
     atom    3 type  1   force =    -0.00628028   -0.00515689    0.00420075
     atom    4 type  1   force =     0.00537300    0.00178412    0.00770769
     atom    5 type  1   force =     0.00526756   -0.00227160    0.00124383
     atom    6 type  2   force =    -0.00344694   -0.00996447    0.02468961
     atom    7 type  2   force =    -0.00520577   -0.00075345    0.00069192
     atom    8 type  3   force =     0.00304457    0.00135254    0.01284442
     atom    9 type  3   force =    -0.00514547    0.00152872    0.01507121
     atom   10 type  3   force =     0.00002310   -0.00911897    0.00387071
     atom   11 type  3   force =    -0.00107944   -0.00128275   -0.00559283
     atom   12 type  3   force =     0.00172436    0.00159071    0.00602405
     atom   13 type  3   force =    -0.00359234    0.00189616   -0.00622933
     atom   14 type  3   force =    -0.00007682   -0.01138445    0.00313269
     atom   15 type  3   force =     0.00158200    0.00365522   -0.00568512
     atom   16 type  3   force =    -0.00185945    0.00352921    0.00614685
     atom   17 type  3   force =    -0.00131404    0.00417194   -0.00508462
     atom   18 type  4   force =    -0.00311303    0.01421899    0.01722924
     atom   19 type  4   force =    -0.00579749    0.00509511    0.00341261
     atom   20 type  4   force =     0.00441346   -0.00035062   -0.00690739
     atom   21 type  4   force =     0.00349258    0.00538780    0.00066180
     atom   22 type  4   force =    -0.00605043   -0.00457863   -0.00584638
     atom   23 type  5   force =     0.00038310    0.00100868    0.00069189

     Total force =     0.513206     Total SCF correction =     0.052967
     SCF correction compared to forces is large: reduce conv_thr to get better values


     Computing stress (Cartesian axis) and pressure


     negative rho (up, down):  9.090E-01 9.090E-01
          total   stress  (Ry/bohr**3)                   (kbar)     P=       84.17
   0.00066478   0.00000473   0.00000048           97.79        0.70        0.07
   0.00000473   0.00064669  -0.00001312            0.70       95.13       -1.93
   0.00000048  -0.00001312   0.00040512            0.07       -1.93       59.60


     Molecular Dynamics Calculation

     Starting temperature  =   300.00 K

     temperature is set once at start

     mass Hf               =   178.49
     mass Nb               =    92.91
     mass Ta               =   180.95
     mass Zr               =    91.22
     mass H                =     2.01
     Time step             =     4.20 a.u.,  0.2032 femto-seconds

     Entering Dynamics:    iteration =     1
                           time      =   0.0002 pico-seconds


ATOMIC_POSITIONS (angstrom)
Hf            2.6700886324        2.8272112036        6.6039644770
Hf            1.2530761792        1.2863725465        5.0584660722
Hf            1.2555723661        7.3898935882        5.0880678273
Hf            4.0871015704        1.2863729379        5.0584660920
Hf            4.0846058614        7.3898925559        5.0880679317
Nb            2.6700885262        2.7970186902        3.5155837780
Nb            2.6700881620        5.8764680743        6.6349972929
Ta            1.2094588477        4.3410168535        5.0711256735
Ta            4.1307199647        4.3410177399        5.0711256841
Ta            1.3073409512        1.3142106788        2.0587774317
Ta            1.3028766220        1.3084790687        8.0945808144
Ta            1.3040980929        7.3759160219        2.0462355930
Ta            1.3077992173        7.3651726762        8.0860040071
Ta            4.0328366747        1.3142105763        2.0587773238
Ta            4.0373010369        1.3084789371        8.0945809368
Ta            4.0360796316        7.3759162361        2.0462355671
Ta            4.0323784624        7.3651728756        8.0860040001
Zr            2.6700882056        5.8663756249        3.5273834885
Zr            1.2439164080        4.3221664930        1.9999934508
Zr            1.2404668578        4.3542124486        8.1497622549
Zr            4.0962609873        4.3221662516        1.9999933463
Zr            4.0997106497        4.3542122829        8.1497623194
H             5.3972271545        5.6066385067        5.0721796359


     kinetic energy (Ekin) =           8.09817811 Ry
     temperature           =       38745.49079383 K 
     Ekin + Etot (const)   =       -2934.99247137 Ry
     Ions kinetic stress =          143.02 (kbar)
                                    214.53         214.53           0.00
                                    214.53         214.53           0.00
                                      0.00           0.00           0.00



     Linear momentum :   -0.0000000000   -0.0000000000    0.0000000000

     File outdir/pwscf.msd.dat deleted, as requested

     Writing config-only to output data dir outdir/pwscf.save/
     NEW-OLD atomic charge density approx. for the potential

     Check: negative core charge=   -0.000002

     negative rho (up, down):  9.089E-01 9.089E-01
     Generating pointlists ...
     new r_m :   0.0791 (alat units)  1.3957 (a.u.) for type    3
     new r_m :   0.0791 (alat units)  1.3957 (a.u.) for type    5

     total cpu time spent up to now is      375.2 secs

     Self-consistent Calculation

     iteration #  1     ecut=   120.00 Ry     beta= 0.70
     Davidson diagonalization with overlap
     ethr =  1.00E-06,  avg # of iterations = 10.0

     negative rho (up, down):  9.091E-01 9.091E-01

     total cpu time spent up to now is      423.7 secs

     total energy              =   -2943.07729006 Ry
     estimated scf accuracy    <       0.07740073 Ry

     total magnetization       =     0.07 Bohr mag/cell
     absolute magnetization    =     0.08 Bohr mag/cell

     iteration #  2     ecut=   120.00 Ry     beta= 0.70
     Davidson diagonalization with overlap
     ethr =  2.79E-05,  avg # of iterations =  2.0

     negative rho (up, down):  9.090E-01 9.090E-01

     total cpu time spent up to now is      461.0 secs

     total energy              =   -2943.08288058 Ry
     estimated scf accuracy    <       0.03421914 Ry

     total magnetization       =     0.07 Bohr mag/cell
     absolute magnetization    =     0.07 Bohr mag/cell

     iteration #  3     ecut=   120.00 Ry     beta= 0.70
     Davidson diagonalization with overlap
     ethr =  1.24E-05,  avg # of iterations =  1.0

     negative rho (up, down):  9.090E-01 9.090E-01

     total cpu time spent up to now is      486.2 secs

     total energy              =   -2943.08474755 Ry
     estimated scf accuracy    <       0.00242093 Ry

     total magnetization       =     0.07 Bohr mag/cell
     absolute magnetization    =     0.07 Bohr mag/cell

     iteration #  4     ecut=   120.00 Ry     beta= 0.70
     Davidson diagonalization with overlap
     ethr =  8.74E-07,  avg # of iterations =  2.0

     negative rho (up, down):  9.090E-01 9.090E-01

     Magnetic moment per site  (integrated on atomic sphere of radius R)
     atom   1 (R=0.097)  charge=  8.3338  magn= -0.0000
     atom   2 (R=0.097)  charge=  8.1120  magn= -0.0000
     atom   3 (R=0.097)  charge=  8.1124  magn=  0.0001
     atom   4 (R=0.097)  charge=  8.1131  magn= -0.0000
     atom   5 (R=0.097)  charge=  8.1069  magn=  0.0002
     atom   6 (R=0.110)  charge= 10.3510  magn=  0.0000
     atom   7 (R=0.110)  charge= 10.3483  magn=  0.0002
     atom   8 (R=0.079)  charge=  7.1117  magn= -0.0000
     atom   9 (R=0.079)  charge=  7.1169  magn=  0.0001
     atom  10 (R=0.079)  charge=  7.0944  magn=  0.0006
     atom  11 (R=0.079)  charge=  7.0940  magn=  0.0006
     atom  12 (R=0.079)  charge=  7.0957  magn=  0.0015
     atom  13 (R=0.079)  charge=  7.0952  magn=  0.0005
     atom  14 (R=0.079)  charge=  7.0943  magn=  0.0006
     atom  15 (R=0.079)  charge=  7.0939  magn=  0.0006
     atom  16 (R=0.079)  charge=  7.0983  magn=  0.0018
     atom  17 (R=0.079)  charge=  7.0944  magn=  0.0008
     atom  18 (R=0.111)  charge=  9.4560  magn= -0.0001
     atom  19 (R=0.111)  charge=  8.9916  magn=  0.0020
     atom  20 (R=0.111)  charge=  8.9965  magn=  0.0008
     atom  21 (R=0.111)  charge=  8.9944  magn=  0.0024
     atom  22 (R=0.111)  charge=  8.9987  magn=  0.0011
     atom  23 (R=0.079)  charge=  0.9789  magn=  0.0001

     total cpu time spent up to now is      503.8 secs

     End of self-consistent calculation

 ------ SPIN UP ------------


          k = 0.0000 0.0000 0.0000 ( 61588 PWs)   bands (ev):

   -60.7692 -60.7628 -60.7243 -60.7181 -60.6945 -60.6845 -60.6507 -60.6407
   -60.5362 -60.3057 -54.3482 -54.2830 -54.2238 -54.1586 -52.7019 -46.2620
   -46.2597 -41.6293 -41.6275 -41.5435 -41.5287 -39.8183 -27.7740 -27.7646
   -27.6902 -27.6763 -27.5847 -27.5777 -27.4607 -27.4524 -27.3726 -27.3204
   -27.2954 -27.2563 -27.2474 -27.2288 -27.2144 -27.1700 -27.1547 -27.1404
   -27.1012 -26.9908 -26.9536 -26.9480 -26.9372 -26.9356 -26.9269 -26.8856
   -26.8768 -26.8701 -26.8483 -26.8420 -24.1389 -23.9154 -23.6368 -23.5271
   -23.2854 -23.1515 -23.1236 -23.0274 -22.9028 -22.8130 -22.7980 -22.5670
   -22.5058 -22.4517 -22.3836 -22.3382 -22.2624 -22.2147 -21.7525 -21.6889
   -21.6318 -20.1937 -19.9348 -19.8382 -19.8321 -19.6025 -19.5950 -19.5939
   -19.5790 -19.5687 -19.5343 -19.3665 -19.3637 -18.1622 -17.9648 -17.8259
     1.3359   2.5104   2.9378   3.1487   3.3310   3.4687   3.5427   3.6750
     3.7098   3.8764   3.9207   4.0816   4.1827   4.5126   4.5715   4.7071
     4.7753   4.8376   5.0350   5.1064   5.1756   5.2698   5.2916   5.3667
     5.4080   5.5587   5.6286   5.7371   5.7455   5.7595   5.7690   5.8508
     5.9773   6.0947   6.1988   6.2229   6.2544   6.2995   6.3701   6.4170
     6.4440   6.6042   6.6602   6.7303   6.8165   6.9854   7.0101   7.0785
     7.1017   7.1650   7.2371   7.2756   7.3278   7.4437   7.5592   7.5644
     7.6271   7.7837   7.9041   7.9080   8.0926   8.0944   8.1198   8.2160
     8.2557   8.2703   8.3618   8.3896   8.4623   8.5630   8.6645   8.6692
     8.8648   8.9016   9.0075   9.0834   9.1429   9.2401   9.2857

 ------ SPIN DOWN ----------


          k = 0.0000 0.0000 0.0000 ( 61588 PWs)   bands (ev):

   -60.7678 -60.7619 -60.7229 -60.7173 -60.6928 -60.6836 -60.6489 -60.6398
   -60.5362 -60.3056 -54.3482 -54.2830 -54.2238 -54.1586 -52.7020 -46.2620
   -46.2595 -41.6276 -41.6265 -41.5426 -41.5267 -39.8184 -27.7719 -27.7633
   -27.6879 -27.6750 -27.5832 -27.5760 -27.4590 -27.4502 -27.3723 -27.3191
   -27.2946 -27.2547 -27.2463 -27.2275 -27.2130 -27.1692 -27.1529 -27.1396
   -27.1011 -26.9904 -26.9527 -26.9461 -26.9357 -26.9345 -26.9256 -26.8846
   -26.8750 -26.8687 -26.8461 -26.8408 -24.1388 -23.9155 -23.6366 -23.5271
   -23.2854 -23.1514 -23.1235 -23.0272 -22.9028 -22.8129 -22.7980 -22.5670
   -22.5058 -22.4517 -22.3834 -22.3380 -22.2622 -22.2147 -21.7524 -21.6889
   -21.6318 -20.1918 -19.9338 -19.8362 -19.8304 -19.6014 -19.5930 -19.5928
   -19.5776 -19.5668 -19.5333 -19.3642 -19.3623 -18.1622 -17.9647 -17.8257
     1.3368   2.5112   2.9401   3.1494   3.3320   3.4713   3.5434   3.6756
     3.7103   3.8771   3.9234   4.0825   4.1843   4.5134   4.5725   4.7091
     4.7766   4.8388   5.0368   5.1079   5.1769   5.2713   5.2931   5.3690
     5.4101   5.5598   5.6296   5.7388   5.7467   5.7604   5.7701   5.8519
     5.9782   6.0968   6.2000   6.2245   6.2558   6.3007   6.3713   6.4187
     6.4462   6.6054   6.6617   6.7319   6.8181   6.9873   7.0144   7.0821
     7.1088   7.1676   7.2443   7.2799   7.3297   7.4495   7.5621   7.5679
     7.6300   7.7864   7.9058   7.9097   8.0951   8.0981   8.1219   8.2204
     8.2585   8.2720   8.3658   8.3918   8.4640   8.5655   8.6662   8.6713
     8.8661   8.9063   9.0102   9.0849   9.1443   9.2409   9.2907

     the Fermi energy is     7.2431 ev

!    total energy              =   -2943.08460184 Ry
     estimated scf accuracy    <       0.00052335 Ry
     smearing contrib. (-TS)   =      -0.10126494 Ry
     internal energy E=F+TS    =   -2942.98333691 Ry

     total magnetization       =     0.06 Bohr mag/cell
     absolute magnetization    =     0.07 Bohr mag/cell

     convergence has been achieved in   4 iterations

     negative rho (up, down):  9.090E-01 9.090E-01

     Forces acting on atoms (cartesian axes, Ry/au):

     atom    1 type  1   force =    -0.00842457   -0.02785674    0.01353495
     atom    2 type  1   force =    -0.12005583   -0.01862128    0.00077552
     atom    3 type  1   force =    -0.12091047    0.01395470    0.00570288
     atom    4 type  1   force =     0.12593686   -0.00749024    0.00110593
     atom    5 type  1   force =     0.13133349   -0.02215917    0.00694528
     atom    6 type  2   force =    -0.00612814   -0.01759290    0.00847096
     atom    7 type  2   force =    -0.01209653    0.00950938   -0.01325218
     atom    8 type  3   force =    -0.11018559    0.00479728   -0.00230000
     atom    9 type  3   force =     0.11387224    0.00223998    0.00021234
     atom   10 type  3   force =    -0.02175372   -0.03082932   -0.06023795
     atom   11 type  3   force =    -0.02046287   -0.03387629    0.05305472
     atom   12 type  3   force =    -0.01297108    0.03650636   -0.05710063
     atom   13 type  3   force =    -0.01776442    0.03003436    0.05964058
     atom   14 type  3   force =     0.01963881   -0.03602071   -0.06472559
     atom   15 type  3   force =     0.01933896   -0.03698894    0.05745898
     atom   16 type  3   force =     0.01511548    0.04433419   -0.05736050
     atom   17 type  3   force =     0.01706389    0.03803081    0.06055819
     atom   18 type  4   force =    -0.01109738    0.02264160   -0.00578624
     atom   19 type  4   force =    -0.12890039   -0.00471377   -0.11621368
     atom   20 type  4   force =    -0.13129391    0.00435719    0.11446275
     atom   21 type  4   force =     0.12329285   -0.00896826   -0.11874320
     atom   22 type  4   force =     0.12734086    0.00021151    0.11574982
     atom   23 type  5   force =     0.02911143    0.03850027   -0.00195295
     The non-local contrib.  to forces
     atom    1 type  1   force =    -0.00027764   -0.00733171    0.02506501
     atom    2 type  1   force =    -0.25069311   -0.15884552    0.01879462
     atom    3 type  1   force =    -0.24033405    0.15250089   -0.02477335
     atom    4 type  1   force =     0.24847765   -0.17040702    0.01946617
     atom    5 type  1   force =     0.20634469    0.16644475   -0.02465563
     atom    6 type  2   force =     0.00725449   -0.05033539   -0.07216932
     atom    7 type  2   force =    -0.01325631    0.06742816    0.06250739
     atom    8 type  3   force =    -0.25347071    0.00377854   -0.00165348
     atom    9 type  3   force =     0.12363692   -0.08472178   -0.00699689
     atom   10 type  3   force =    -0.21136152    0.00257083   -0.20936096
     atom   11 type  3   force =    -0.21695295    0.00356196    0.19813147
     atom   12 type  3   force =    -0.20212222   -0.02126117   -0.17686348
     atom   13 type  3   force =    -0.21139726   -0.00434981    0.20629364
     atom   14 type  3   force =     0.20291910   -0.00129807   -0.21790324
     atom   15 type  3   force =     0.21233729    0.00438026    0.20224631
     atom   16 type  3   force =     0.21640663   -0.02602964   -0.17222909
     atom   17 type  3   force =     0.22212159   -0.01015295    0.20156443
     atom   18 type  4   force =    -0.01457867    0.06093244   -0.06125328
     atom   19 type  4   force =     0.06280385    0.00819003    0.07253296
     atom   20 type  4   force =     0.05917812   -0.01616522   -0.06953418
     atom   21 type  4   force =    -0.06298257    0.01028445    0.06868875
     atom   22 type  4   force =    -0.05805145   -0.01514174   -0.06005483
     atom   23 type  5   force =    -0.04899867   -0.02306619   -0.00034762
     The ionic contribution  to forces
     atom    1 type  1   force =    -0.18383424   -4.71996867   14.08516748
     atom    2 type  1   force =   -39.70111841   -6.11425317    0.77973696
     atom    3 type  1   force =   -39.73312797    6.21031354   -0.71315186
     atom    4 type  1   force =    39.52858522   -6.11822085    0.77895044
     atom    5 type  1   force =    38.85396734    7.11951238   -0.70489738
     atom    6 type  2   force =    -0.19468311   -3.68462863  -13.98757207
     atom    7 type  2   force =    -0.51766740    3.61067200   14.21468177
     atom    8 type  3   force =   -52.19709538   -0.02978637   -0.06497663
     atom    9 type  3   force =    50.51163628   -1.47168753   -0.06618784
     atom   10 type  3   force =   -36.06849071   -2.08182713  -23.09946387
     atom   11 type  3   force =   -35.14258776   -0.83465599   22.10371363
     atom   12 type  3   force =   -35.27469052    0.84238532  -22.19099809
     atom   13 type  3   force =   -36.06528820    2.22649497   23.12082096
     atom   14 type  3   force =    35.96685226   -2.08473709  -23.16319159
     atom   15 type  3   force =    35.04164444   -0.83720574   22.16738135
     atom   16 type  3   force =    35.06410481    0.96574954  -22.40553615
     atom   17 type  3   force =    35.85169807    2.35101462   23.33784785
     atom   18 type  4   force =    -0.48299049    4.38053352  -14.12187760
     atom   19 type  4   force =   -35.92480791    0.91151551  -25.58851799
     atom   20 type  4   force =   -35.90786473   -0.99829358   25.56694609
     atom   21 type  4   force =    35.71256828    0.80573517  -25.83979346
     atom   22 type  4   force =    35.69497031   -1.10256440   25.82110649
     atom   23 type  5   force =     5.16821983    0.65390257   -0.03018847
     The local contribution  to forces
     atom    1 type  1   force =     0.17417825    4.69359892  -14.08148415
     atom    2 type  1   force =    39.83674096    6.25350408   -0.78500508
     atom    3 type  1   force =    39.86077059   -6.34814150    0.75518394
     atom    4 type  1   force =   -39.66014800    6.27993348   -0.78485743
     atom    5 type  1   force =   -38.94734836   -7.30867230    0.74357715
     atom    6 type  2   force =     0.17820996    3.70153989   14.08311690
     atom    7 type  2   force =     0.51271733   -3.66541816  -14.27959619
     atom    8 type  3   force =    52.36796636    0.02994191    0.08572086
     atom    9 type  3   force =   -50.52354085    1.58459844    0.09618016
     atom   10 type  3   force =    36.27749109    2.02418494   23.26753843
     atom   11 type  3   force =    35.35891039    0.78515625  -22.27429159
     atom   12 type  3   force =    35.48567964   -0.76636393   22.32584112
     atom   13 type  3   force =    36.27115349   -2.17840899  -23.28898361
     atom   14 type  3   force =   -36.16901503    2.02160602   23.33305207
     atom   15 type  3   force =   -35.25439065    0.78848317  -22.33543642
     atom   16 type  3   force =   -35.28989709   -0.87290322   22.53504167
     atom   17 type  3   force =   -36.07934432   -2.28520478  -23.49664664
     atom   18 type  4   force =     0.48436648   -4.39807946   14.18578178
     atom   19 type  4   force =    35.73439657   -0.91948033   25.41131500
     atom   20 type  4   force =    35.72456255    1.01786875  -25.40133964
     atom   21 type  4   force =   -35.53110839   -0.82023551   25.66232207
     atom   22 type  4   force =   -35.52048261    1.11098249  -25.66230008
     atom   23 type  5   force =    -5.09284760   -0.59520675    0.03055999
     The core correction contribution to forces
     atom    1 type  1   force =    -0.00014073    0.00211937   -0.00246911
     atom    2 type  1   force =    -0.01110974   -0.00104333    0.00084641
     atom    3 type  1   force =    -0.01166684    0.00297423   -0.00139689
     atom    4 type  1   force =     0.01161951   -0.00300236    0.00087890
     atom    5 type  1   force =     0.00284355    0.01008943   -0.00164114
     atom    6 type  2   force =    -0.00033502    0.00248041    0.00309523
     atom    7 type  2   force =     0.00051891   -0.00333978   -0.00247948
     atom    8 type  3   force =    -0.03034343    0.00057918   -0.00060981
     atom    9 type  3   force =     0.01304549   -0.01309036   -0.00115819
     atom   10 type  3   force =    -0.02244057    0.00911248   -0.01731053
     atom   11 type  3   force =    -0.02435473    0.00905747    0.01779636
     atom   12 type  3   force =    -0.02233361   -0.01028231   -0.01515890
     atom   13 type  3   force =    -0.02263129   -0.00939663    0.01647311
     atom   14 type  3   force =     0.02168727    0.00956870   -0.01706542
     atom   15 type  3   force =     0.02296667    0.00999706    0.01724187
     atom   16 type  3   force =     0.02373812   -0.01111897   -0.01385778
     atom   17 type  3   force =     0.02327830   -0.00980558    0.01525544
     atom   18 type  4   force =     0.00075600   -0.00322574    0.00304133
     atom   19 type  4   force =    -0.00988377    0.00013792   -0.00952863
     atom   20 type  4   force =    -0.00980327    0.00050473    0.00944125
     atom   21 type  4   force =     0.01001022    0.00017230   -0.00914658
     atom   22 type  4   force =     0.00980018    0.00050341    0.00872210
     atom   23 type  5   force =     0.00000000    0.00000000    0.00000000
     The Hubbard contrib.    to forces
     atom    1 type  1   force =     0.00000000    0.00000000    0.00000000
     atom    2 type  1   force =     0.00000000    0.00000000    0.00000000
     atom    3 type  1   force =     0.00000000    0.00000000    0.00000000
     atom    4 type  1   force =     0.00000000    0.00000000    0.00000000
     atom    5 type  1   force =     0.00000000    0.00000000    0.00000000
     atom    6 type  2   force =     0.00000000    0.00000000    0.00000000
     atom    7 type  2   force =     0.00000000    0.00000000    0.00000000
     atom    8 type  3   force =     0.00000000    0.00000000    0.00000000
     atom    9 type  3   force =     0.00000000    0.00000000    0.00000000
     atom   10 type  3   force =     0.00000000    0.00000000    0.00000000
     atom   11 type  3   force =     0.00000000    0.00000000    0.00000000
     atom   12 type  3   force =     0.00000000    0.00000000    0.00000000
     atom   13 type  3   force =     0.00000000    0.00000000    0.00000000
     atom   14 type  3   force =     0.00000000    0.00000000    0.00000000
     atom   15 type  3   force =     0.00000000    0.00000000    0.00000000
     atom   16 type  3   force =     0.00000000    0.00000000    0.00000000
     atom   17 type  3   force =     0.00000000    0.00000000    0.00000000
     atom   18 type  4   force =     0.00000000    0.00000000    0.00000000
     atom   19 type  4   force =     0.00000000    0.00000000    0.00000000
     atom   20 type  4   force =     0.00000000    0.00000000    0.00000000
     atom   21 type  4   force =     0.00000000    0.00000000    0.00000000
     atom   22 type  4   force =     0.00000000    0.00000000    0.00000000
     atom   23 type  5   force =     0.00000000    0.00000000    0.00000000
     The SCF correction term to forces
     atom    1 type  1   force =     0.00137950    0.00388220   -0.01196385
     atom    2 type  1   force =     0.00585419    0.00217351   -0.01281694
     atom    3 type  1   force =     0.00317752   -0.00353563   -0.00937852
     atom    4 type  1   force =    -0.00286780    0.00436335   -0.01255171
     atom    5 type  1   force =     0.01525597   -0.00937659   -0.00465728
     atom    6 type  2   force =     0.00315524    0.01350766   -0.01721934
     atom    7 type  2   force =     0.00532066    0.00032401   -0.00758522
     atom    8 type  3   force =     0.00248727    0.00044086   -0.02000051
     atom    9 type  3   force =    -0.01117588   -0.01270194   -0.02084446
     atom   10 type  3   force =     0.00277771    0.01528641   -0.00086059
     atom   11 type  3   force =     0.00425190    0.00316088    0.00848528
     atom   12 type  3   force =     0.00022535   -0.00781471    0.00085916
     atom   13 type  3   force =     0.01012857   -0.00414834    0.00581692
     atom   14 type  3   force =    -0.00307507    0.01899658    0.00116303
     atom   15 type  3   force =    -0.00348907   -0.00248685    0.00680630
     atom   16 type  3   force =     0.00049272   -0.01120667    0.00000128
     atom   17 type  3   force =    -0.00096003   -0.00766365    0.00331754
     atom   18 type  4   force =     0.00107902   -0.01736231   -0.01069803
     atom   19 type  4   force =     0.00832058   -0.00492005   -0.00123458
     atom   20 type  4   force =     0.00236313    0.00059935    0.00972967
     atom   21 type  4   force =    -0.00546497   -0.00476783   -0.00003353
     atom   22 type  4   force =     0.00083414    0.00658861    0.00905658
     atom   23 type  5   force =     0.00246759    0.00302748   -0.00119640

     Total force =     0.503577     Total SCF correction =     0.068569
     SCF correction compared to forces is large: reduce conv_thr to get better values


     Computing stress (Cartesian axis) and pressure


     negative rho (up, down):  9.090E-01 9.090E-01
          total   stress  (Ry/bohr**3)                   (kbar)     P=       84.10
   0.00066750   0.00001940   0.00000098           98.19        2.85        0.14
   0.00001940   0.00065431  -0.00001140            2.85       96.25       -1.68
   0.00000098  -0.00001140   0.00039320            0.14       -1.68       57.84


     Entering Dynamics:    iteration =     2
                           time      =   0.0004 pico-seconds


ATOMIC_POSITIONS (angstrom)
Hf            2.6701768244        2.8272977795        6.6039655121
Hf            1.2531547894        1.2864598432        5.0584659629
Hf            1.2556508959        7.3899836823        5.0880682145
Hf            4.0872011332        1.2864612646        5.0584660213
Hf            4.0847062432        7.3899795455        5.0880684946
Nb            2.6701764198        2.7971048356        3.5155852731
Nb            2.6701750336        5.8765585205        6.6349951818
Ta            1.2095384029        4.3411061270        5.0711253845
Ta            4.1308195166        4.3411077549        5.0711255478
Ta            1.3074279870        1.3142970232        2.0587723438
Ta            1.3029637716        1.3085650840        8.0945854292
Ta            1.3041858295        7.3760079859        2.0462307744
Ta            1.3078866308        7.3652641038        8.0860091690
Ta            4.0329272310        1.3142965244        2.0587718740
Ta            4.0373915686        1.3085646447        8.0945859234
Ta            4.0361698268        7.3760088575        2.0462307079
Ta            4.0324687750        7.3652649553        8.0860092069
Zr            2.6701752083        5.8664679483        3.5273823971
Zr            1.2439837255        4.3222544924        1.9999738545
Zr            1.2405335627        4.3543021018        8.1497818112
Zr            4.0963705216        4.3222535319        1.9999733613
Zr            4.0998210946        4.3543013051        8.1497820846
H             5.2497619268        5.4592592834        5.0721695458


     kinetic energy (Ekin) =           8.09065229 Ry
     temperature           =       38709.48375275 K 
     Ekin + Etot (const)   =       -2934.99394955 Ry
     Ions kinetic stress =          142.89 (kbar)
                                    214.43         214.33           0.01
                                    214.33         214.24           0.01
                                      0.01           0.01           0.00



     Linear momentum :   -0.0000000000   -0.0000000000   -0.0000000000

     Writing config-only to output data dir outdir/pwscf.save/
     NEW-OLD atomic charge density approx. for the potential

     Check: negative core charge=   -0.000002

     negative rho (up, down):  9.089E-01 9.089E-01
     Generating pointlists ...
     new r_m :   0.0699 (alat units)  1.2331 (a.u.) for type    3
     new r_m :   0.0699 (alat units)  1.2331 (a.u.) for type    5

     total cpu time spent up to now is      529.7 secs

     Self-consistent Calculation

     iteration #  1     ecut=   120.00 Ry     beta= 0.70
     Davidson diagonalization with overlap
     c_bands:  1 eigenvalues not converged
     c_bands:  1 eigenvalues not converged
     ethr =  1.00E-06,  avg # of iterations = 20.0

     negative rho (up, down):  9.089E-01 9.089E-01

     total cpu time spent up to now is      575.9 secs

     total energy              =   -2943.03203188 Ry
     estimated scf accuracy    <       0.10599678 Ry

     total magnetization       =     0.06 Bohr mag/cell
     absolute magnetization    =     0.07 Bohr mag/cell

     iteration #  2     ecut=   120.00 Ry     beta= 0.70
     Davidson diagonalization with overlap
     ethr =  3.83E-05,  avg # of iterations =  2.0

     negative rho (up, down):  9.090E-01 9.090E-01

     total cpu time spent up to now is      613.0 secs

     total energy              =   -2943.04038508 Ry
     estimated scf accuracy    <       0.04014953 Ry

     total magnetization       =     0.06 Bohr mag/cell
     absolute magnetization    =     0.07 Bohr mag/cell

     iteration #  3     ecut=   120.00 Ry     beta= 0.70
     Davidson diagonalization with overlap
     ethr =  1.45E-05,  avg # of iterations =  1.0

     negative rho (up, down):  9.089E-01 9.089E-01

     total cpu time spent up to now is      643.2 secs

     total energy              =   -2943.04276569 Ry
     estimated scf accuracy    <       0.00301413 Ry

     total magnetization       =     0.06 Bohr mag/cell
     absolute magnetization    =     0.06 Bohr mag/cell

     iteration #  4     ecut=   120.00 Ry     beta= 0.70
     Davidson diagonalization with overlap
     ethr =  1.09E-06,  avg # of iterations = 11.5

     negative rho (up, down):  9.088E-01 9.088E-01

     Magnetic moment per site  (integrated on atomic sphere of radius R)
     atom   1 (R=0.097)  charge=  8.3334  magn= -0.0000
     atom   2 (R=0.097)  charge=  8.1128  magn=  0.0000
     atom   3 (R=0.097)  charge=  8.1131  magn=  0.0001
     atom   4 (R=0.097)  charge=  8.1149  magn= -0.0000
     atom   5 (R=0.097)  charge=  8.1072  magn=  0.0002
     atom   6 (R=0.110)  charge= 10.3500  magn=  0.0001
     atom   7 (R=0.110)  charge= 10.3477  magn=  0.0001
     atom   8 (R=0.070)  charge=  5.8211  magn= -0.0000
     atom   9 (R=0.070)  charge=  5.8392  magn=  0.0000
     atom  10 (R=0.070)  charge=  5.8079  magn=  0.0004
     atom  11 (R=0.070)  charge=  5.8067  magn=  0.0004
     atom  12 (R=0.070)  charge=  5.8058  magn=  0.0008
     atom  13 (R=0.070)  charge=  5.8089  magn=  0.0003
     atom  14 (R=0.070)  charge=  5.8046  magn=  0.0004
     atom  15 (R=0.070)  charge=  5.8037  magn=  0.0004
     atom  16 (R=0.070)  charge=  5.8039  magn=  0.0011
     atom  17 (R=0.070)  charge=  5.8061  magn=  0.0006
     atom  18 (R=0.111)  charge=  9.4555  magn= -0.0000
     atom  19 (R=0.111)  charge=  9.0013  magn=  0.0018
     atom  20 (R=0.111)  charge=  8.9942  magn=  0.0007
     atom  21 (R=0.111)  charge=  9.0073  magn=  0.0022
     atom  22 (R=0.111)  charge=  8.9969  magn=  0.0011
     atom  23 (R=0.070)  charge=  0.9181  magn=  0.0001

     total cpu time spent up to now is      662.2 secs

     End of self-consistent calculation

 ------ SPIN UP ------------


          k = 0.0000 0.0000 0.0000 ( 61588 PWs)   bands (ev):

   -60.7644 -60.7625 -60.7193 -60.7172 -60.6843 -60.6840 -60.6401 -60.6395
   -60.5251 -60.1683 -54.3652 -54.3108 -54.2381 -54.1730 -52.7226 -46.2671
   -46.2442 -41.6480 -41.6223 -41.5477 -41.5388 -39.8110 -27.7695 -27.7646
   -27.6838 -27.6778 -27.5842 -27.5731 -27.4576 -27.4426 -27.3554 -27.3164
   -27.2872 -27.2509 -27.2459 -27.2210 -27.2070 -27.1633 -27.1460 -27.1329
   -27.0911 -26.9480 -26.9462 -26.9401 -26.9325 -26.8903 -26.8734 -26.8683
   -26.8482 -26.8428 -26.8408 -26.8213 -24.1499 -23.9291 -23.6460 -23.5471
   -23.2952 -23.1611 -23.1409 -23.0371 -22.9121 -22.8363 -22.8131 -22.5895
   -22.5047 -22.4472 -22.3909 -22.3424 -22.2632 -22.2146 -21.7683 -21.7026
   -21.6489 -20.2117 -19.9300 -19.8549 -19.8481 -19.6126 -19.6000 -19.5950
   -19.5825 -19.5696 -19.5336 -19.3869 -19.3588 -18.1544 -17.9596 -17.8259
     1.2339   2.3189   2.9373   3.1495   3.3245   3.4735   3.5411   3.6787
     3.7200   3.8740   3.9205   4.0853   4.1824   4.5154   4.5513   4.7075
     4.7754   4.8254   5.0341   5.0999   5.1682   5.2706   5.2890   5.3594
     5.3990   5.5571   5.6421   5.7361   5.7509   5.7599   5.7696   5.8559
     5.9843   6.1005   6.2013   6.2302   6.2591   6.3143   6.3677   6.4060
     6.4352   6.6059   6.6624   6.7334   6.8203   6.9812   7.0015   7.0804
     7.1016   7.1621   7.2191   7.2762   7.3311   7.4408   7.5485   7.5593
     7.6288   7.7909   7.9051   7.9083   8.0878   8.0916   8.1191   8.2123
     8.2540   8.2743   8.3625   8.3871   8.4790   8.5592   8.6589   8.6658
     8.8637   8.9036   9.0098   9.0834   9.1346   9.2473   9.2802

 ------ SPIN DOWN ----------


          k = 0.0000 0.0000 0.0000 ( 61588 PWs)   bands (ev):

   -60.7636 -60.7615 -60.7185 -60.7161 -60.6832 -60.6827 -60.6394 -60.6379
   -60.5252 -60.1682 -54.3652 -54.3107 -54.2381 -54.1730 -52.7226 -46.2669
   -46.2442 -41.6462 -41.6214 -41.5459 -41.5380 -39.8110 -27.7680 -27.7631
   -27.6820 -27.6766 -27.5830 -27.5716 -27.4565 -27.4403 -27.3551 -27.3153
   -27.2866 -27.2497 -27.2449 -27.2201 -27.2055 -27.1627 -27.1444 -27.1320
   -27.0910 -26.9469 -26.9451 -26.9385 -26.9308 -26.8894 -26.8720 -26.8667
   -26.8482 -26.8418 -26.8390 -26.8210 -24.1498 -23.9291 -23.6458 -23.5470
   -23.2951 -23.1609 -23.1407 -23.0370 -22.9121 -22.8362 -22.8130 -22.5894
   -22.5046 -22.4472 -22.3907 -22.3423 -22.2630 -22.2145 -21.7682 -21.7026
   -21.6489 -20.2099 -19.9292 -19.8529 -19.8466 -19.6104 -19.5984 -19.5943
   -19.5816 -19.5684 -19.5326 -19.3846 -19.3578 -18.1543 -17.9595 -17.8256
     1.2347   2.3197   2.9393   3.1501   3.3253   3.4758   3.5418   3.6792
     3.7206   3.8747   3.9229   4.0861   4.1838   4.5161   4.5522   4.7092
     4.7765   4.8265   5.0358   5.1014   5.1693   5.2719   5.2904   5.3612
     5.4010   5.5581   5.6430   5.7377   5.7521   5.7608   5.7706   5.8568
     5.9851   6.1024   6.2024   6.2314   6.2603   6.3156   6.3688   6.4072
     6.4376   6.6069   6.6638   6.7348   6.8218   6.9830   7.0052   7.0841
     7.1079   7.1643   7.2253   7.2801   7.3328   7.4460   7.5521   7.5617
     7.6314   7.7931   7.9067   7.9099   8.0900   8.0950   8.1209   8.2160
     8.2566   8.2758   8.3660   8.3892   8.4806   8.5614   8.6607   8.6675
     8.8651   8.9076   9.0122   9.0848   9.1359   9.2484   9.2825

     the Fermi energy is     7.2394 ev

!    total energy              =   -2943.04257429 Ry
     estimated scf accuracy    <       0.00061852 Ry
     smearing contrib. (-TS)   =      -0.10138394 Ry
     internal energy E=F+TS    =   -2942.94119035 Ry

     total magnetization       =     0.06 Bohr mag/cell
     absolute magnetization    =     0.06 Bohr mag/cell

     convergence has been achieved in   4 iterations

     negative rho (up, down):  9.088E-01 9.088E-01

     Forces acting on atoms (cartesian axes, Ry/au):

     atom    1 type  1   force =    -0.00758340   -0.02698782    0.01085645
     atom    2 type  1   force =    -0.11575146   -0.01694913   -0.00747312
     atom    3 type  1   force =    -0.11640994    0.01299426    0.00001126
     atom    4 type  1   force =     0.12554214   -0.00882635   -0.00695454
     atom    5 type  1   force =     0.12498860   -0.02368825    0.00366803
     atom    6 type  2   force =    -0.00668111   -0.01833563    0.00883098
     atom    7 type  2   force =    -0.01089824    0.01119988   -0.01145793
     atom    8 type  3   force =    -0.11396341    0.00626220   -0.00740619
     atom    9 type  3   force =     0.02299086   -0.08816571   -0.00321082
     atom   10 type  3   force =    -0.02204082   -0.02464317   -0.05864079
     atom   11 type  3   force =    -0.01885898   -0.03188116    0.05760221
     atom   12 type  3   force =    -0.01456680    0.03318676   -0.05537234
     atom   13 type  3   force =    -0.01466100    0.02800356    0.06377021
     atom   14 type  3   force =     0.01793609   -0.02905867   -0.06279565
     atom   15 type  3   force =     0.01665589   -0.03677796    0.06160030
     atom   16 type  3   force =     0.01559538    0.03913163   -0.05558466
     atom   17 type  3   force =     0.01510007    0.03436833    0.06322604
     atom   18 type  4   force =    -0.00936249    0.01769284   -0.00821104
     atom   19 type  4   force =    -0.12588877   -0.00642899   -0.11524649
     atom   20 type  4   force =    -0.13038130    0.00430750    0.11984912
     atom   21 type  4   force =     0.11866633   -0.00942038   -0.11692345
     atom   22 type  4   force =     0.12605120    0.00347141    0.12073645
     atom   23 type  5   force =     0.12352116    0.13054485   -0.00087402
     The non-local contrib.  to forces
     atom    1 type  1   force =     0.00336993   -0.00305435    0.01824105
     atom    2 type  1   force =    -0.24588707   -0.15979685    0.01331952
     atom    3 type  1   force =    -0.23759162    0.15269080   -0.02878342
     atom    4 type  1   force =     0.24775591   -0.17093233    0.01451309
     atom    5 type  1   force =     0.22279119    0.14994826   -0.02766628
     atom    6 type  2   force =     0.00791068   -0.04723764   -0.07402349
     atom    7 type  2   force =    -0.01023336    0.06665714    0.06214687
     atom    8 type  3   force =    -0.25133605    0.00212401   -0.00732442
     atom    9 type  3   force =     0.10173320   -0.10285647   -0.01022385
     atom   10 type  3   force =    -0.21272814    0.00541814   -0.21094141
     atom   11 type  3   force =    -0.21834669    0.00468666    0.20284876
     atom   12 type  3   force =    -0.20228496   -0.02321075   -0.17697926
     atom   13 type  3   force =    -0.20928895   -0.00572423    0.20975079
     atom   14 type  3   force =     0.20182909    0.00262056   -0.21822800
     atom   15 type  3   force =     0.21253283    0.00435134    0.20559709
     atom   16 type  3   force =     0.21415615   -0.02707297   -0.17421427
     atom   17 type  3   force =     0.21941421   -0.01091960    0.20494891
     atom   18 type  4   force =    -0.01188119    0.05536346   -0.06388535
     atom   19 type  4   force =     0.06555242    0.00800236    0.07084945
     atom   20 type  4   force =     0.06113781   -0.01600588   -0.06661970
     atom   21 type  4   force =    -0.06303472    0.01054531    0.06601131
     atom   22 type  4   force =    -0.05778372   -0.01149266   -0.05545249
     atom   23 type  5   force =    -0.06286900   -0.04348606   -0.00044720
     The ionic contribution  to forces
     atom    1 type  1   force =    -0.20846564   -4.74612051   14.10369982
     atom    2 type  1   force =   -39.71341864   -6.12520603    0.77972112
     atom    3 type  1   force =   -39.75518879    6.21827626   -0.71313382
     atom    4 type  1   force =    39.53669919   -6.16072926    0.77888727
     atom    5 type  1   force =    38.97712073    7.13698102   -0.70539735
     atom    6 type  2   force =    -0.22042764   -3.71252801  -14.00726772
     atom    7 type  2   force =    -0.55984463    3.65014215   14.25327966
     atom    8 type  3   force =   -52.24316031   -0.02789231   -0.06499358
     atom    9 type  3   force =    50.05474787   -1.92987356   -0.06678411
     atom   10 type  3   force =   -36.07573149   -2.08812904  -23.10096077
     atom   11 type  3   force =   -35.14982026   -0.84093525   22.10518699
     atom   12 type  3   force =   -35.28494239    0.84569044  -22.19112460
     atom   13 type  3   force =   -36.07557754    2.22987737   23.12097318
     atom   14 type  3   force =    35.97152370   -2.10053873  -23.16755264
     atom   15 type  3   force =    35.04636647   -0.85293956   22.17167723
     atom   16 type  3   force =    35.08240105    0.97428385  -22.39952517
     atom   17 type  3   force =    35.87013213    2.35981118   23.33187549
     atom   18 type  4   force =    -0.52294118    4.41719075  -14.15783924
     atom   19 type  4   force =   -35.93939083    0.91368720  -25.59425987
     atom   20 type  4   force =   -35.92246264   -0.99593302   25.57263456
     atom   21 type  4   force =    35.71541755    0.80806043  -25.87682199
     atom   22 type  4   force =    35.69806365   -1.09953879   25.85806125
     atom   23 type  5   force =     5.71889964    1.12636343   -0.03033572
     The local contribution  to forces
     atom    1 type  1   force =     0.19739371    4.71860031  -14.11201841
     atom    2 type  1   force =    39.86087794    6.27013782   -0.81573539
     atom    3 type  1   force =    39.89766150   -6.35999975    0.73151724
     atom    4 type  1   force =   -39.67573825    6.32292991   -0.81487546
     atom    5 type  1   force =   -39.09618416   -7.31229213    0.73164904
     atom    6 type  2   force =     0.20775844    3.75044210   14.06196387
     atom    7 type  2   force =     0.56691353   -3.69774234  -14.32741431
     atom    8 type  3   force =    52.41346415    0.03054623    0.04183632
     atom    9 type  3   force =   -50.13533532    1.97256892    0.04950337
     atom   10 type  3   force =    36.29120129    2.06996334   23.27408080
     atom   11 type  3   force =    35.38416254    0.80182645  -22.26352426
     atom   12 type  3   force =    35.49481667   -0.79321202   22.33074093
     atom   13 type  3   force =    36.30658396   -2.19398682  -23.27782674
     atom   14 type  3   force =   -36.17793141    2.08256691   23.34229365
     atom   15 type  3   force =   -35.27185059    0.80225703  -22.32747330
     atom   16 type  3   force =   -35.30216562   -0.91494070   22.53397383
     atom   17 type  3   force =   -36.10068633   -2.31427643  -23.48614700
     atom   18 type  4   force =     0.52919032   -4.46683486   14.19469636
     atom   19 type  4   force =    35.76958287   -0.93234014   25.41292328
     atom   20 type  4   force =    35.75128805    1.01595786  -25.38128993
     atom   21 type  4   force =   -35.55131116   -0.83087916   25.69952564
     atom   22 type  4   force =   -35.53013810    1.12038421  -25.67618097
     atom   23 type  5   force =    -5.53520891   -0.95518704    0.02751087
     The core correction contribution to forces
     atom    1 type  1   force =     0.00017614    0.00227337   -0.00280623
     atom    2 type  1   force =    -0.01082096   -0.00114465    0.00074133
     atom    3 type  1   force =    -0.01169710    0.00319422   -0.00137604
     atom    4 type  1   force =     0.01177751   -0.00306356    0.00087566
     atom    5 type  1   force =     0.00450587    0.00840840   -0.00177588
     atom    6 type  2   force =    -0.00031016    0.00243209    0.00328631
     atom    7 type  2   force =     0.00040905   -0.00326880   -0.00250127
     atom    8 type  3   force =    -0.03010186    0.00060626   -0.00067944
     atom    9 type  3   force =     0.01005898   -0.01502954   -0.00065791
     atom   10 type  3   force =    -0.02255212    0.00903118   -0.01734997
     atom   11 type  3   force =    -0.02444324    0.00919390    0.01792910
     atom   12 type  3   force =    -0.02239888   -0.01029463   -0.01517996
     atom   13 type  3   force =    -0.02272813   -0.00946601    0.01659146
     atom   14 type  3   force =     0.02174438    0.00934460   -0.01729299
     atom   15 type  3   force =     0.02320876    0.01001622    0.01762282
     atom   16 type  3   force =     0.02336253   -0.01069686   -0.01415768
     atom   17 type  3   force =     0.02294329   -0.00946473    0.01558551
     atom   18 type  4   force =     0.00067273   -0.00313858    0.00303711
     atom   19 type  4   force =    -0.00992220    0.00009250   -0.00948508
     atom   20 type  4   force =    -0.00982218    0.00049434    0.00945134
     atom   21 type  4   force =     0.00991471    0.00009224   -0.00905932
     atom   22 type  4   force =     0.00971968    0.00033746    0.00864002
     atom   23 type  5   force =     0.00000000    0.00000000    0.00000000
     The Hubbard contrib.    to forces
     atom    1 type  1   force =     0.00000000    0.00000000    0.00000000
     atom    2 type  1   force =     0.00000000    0.00000000    0.00000000
     atom    3 type  1   force =     0.00000000    0.00000000    0.00000000
     atom    4 type  1   force =     0.00000000    0.00000000    0.00000000
     atom    5 type  1   force =     0.00000000    0.00000000    0.00000000
     atom    6 type  2   force =     0.00000000    0.00000000    0.00000000
     atom    7 type  2   force =     0.00000000    0.00000000    0.00000000
     atom    8 type  3   force =     0.00000000    0.00000000    0.00000000
     atom    9 type  3   force =     0.00000000    0.00000000    0.00000000
     atom   10 type  3   force =     0.00000000    0.00000000    0.00000000
     atom   11 type  3   force =     0.00000000    0.00000000    0.00000000
     atom   12 type  3   force =     0.00000000    0.00000000    0.00000000
     atom   13 type  3   force =     0.00000000    0.00000000    0.00000000
     atom   14 type  3   force =     0.00000000    0.00000000    0.00000000
     atom   15 type  3   force =     0.00000000    0.00000000    0.00000000
     atom   16 type  3   force =     0.00000000    0.00000000    0.00000000
     atom   17 type  3   force =     0.00000000    0.00000000    0.00000000
     atom   18 type  4   force =     0.00000000    0.00000000    0.00000000
     atom   19 type  4   force =     0.00000000    0.00000000    0.00000000
     atom   20 type  4   force =     0.00000000    0.00000000    0.00000000
     atom   21 type  4   force =     0.00000000    0.00000000    0.00000000
     atom   22 type  4   force =     0.00000000    0.00000000    0.00000000
     atom   23 type  5   force =     0.00000000    0.00000000    0.00000000
     The SCF correction term to forces
     atom    1 type  1   force =     0.00019464    0.00131280    0.00305227
     atom    2 type  1   force =    -0.00625055   -0.00093998    0.01379234
     atom    3 type  1   force =    -0.00934178   -0.00116785    0.01109934
     atom    4 type  1   force =     0.00529995    0.00296833    0.01295695
     atom    5 type  1   force =     0.01700714   -0.00673435    0.00617054
     atom    6 type  2   force =    -0.00136025   -0.01144474    0.02418406
     atom    7 type  2   force =    -0.00789065   -0.00458883    0.00234316
     atom    8 type  3   force =    -0.00257717    0.00087746    0.02306697
     atom    9 type  3   force =    -0.00796171   -0.01297562    0.02426371
     atom   10 type  3   force =    -0.00197820   -0.02092735   -0.00415739
     atom   11 type  3   force =    -0.01015917   -0.00665348   -0.00552634
     atom   12 type  3   force =     0.00049493    0.01421316   -0.00351741
     atom   13 type  3   force =    -0.01339816    0.00730269   -0.00640645
     atom   14 type  3   force =     0.00102250   -0.02305256   -0.00270362
     atom   15 type  3   force =     0.00665059   -0.00046355   -0.00651151
     atom   16 type  3   force =    -0.00190656    0.01755774   -0.00234933
     atom   17 type  3   force =     0.00354895    0.00921735   -0.00372483
     atom   18 type  4   force =    -0.00415100    0.01511150    0.01509214
     atom   19 type  4   force =    -0.01145884    0.00412852    0.00403777
     atom   20 type  4   force =    -0.01027016   -0.00020636   -0.01501510
     atom   21 type  4   force =     0.00793211    0.00276024    0.00273296
     atom   22 type  4   force =     0.00644186   -0.00621938   -0.01501930
     atom   23 type  5   force =     0.00295160    0.00285397    0.00171007

     Total force =     0.523250     Total SCF correction =     0.082163
     SCF correction compared to forces is large: reduce conv_thr to get better values


     Computing stress (Cartesian axis) and pressure


     negative rho (up, down):  9.088E-01 9.088E-01
[...]
     3.6782   3.8992   3.9131   4.0828   4.1467   4.4925   4.6191   4.6880
     4.7578   4.8631   5.0264   5.1012   5.1992   5.2548   5.2763   5.3666
     5.4346   5.5431   5.6049   5.7157   5.7197   5.7312   5.7573   5.8228
     5.9317   6.0649   6.1592   6.1808   6.2356   6.2806   6.3621   6.4049
     6.4867   6.5802   6.6559   6.7224   6.8103   6.9629   7.0107   7.0500
     7.0954   7.1507   7.2560   7.2746   7.3031   7.4313   7.5454   7.5853
     7.6171   7.7380   7.8985   7.8999   8.0852   8.1024   8.1131   8.1975
     8.2368   8.2546   8.3533   8.3706   8.3876   8.5585   8.6516   8.6792
     8.8467   8.8951   8.9954   9.0753   9.1536   9.2105   9.2679

     the Fermi energy is     7.2327 ev

!    total energy              =   -2943.05902655 Ry
     estimated scf accuracy    <       0.00012764 Ry
     smearing contrib. (-TS)   =      -0.10040902 Ry
     internal energy E=F+TS    =   -2942.95861753 Ry

     total magnetization       =     0.00 Bohr mag/cell
     absolute magnetization    =     0.00 Bohr mag/cell

     convergence has been achieved in   5 iterations

     negative rho (up, down):  9.091E-01 9.091E-01

     Forces acting on atoms (cartesian axes, Ry/au):

     atom    1 type  1   force =    -0.01354994   -0.03138253    0.01903187
     atom    2 type  1   force =    -0.11972613   -0.01672989   -0.00099960
     atom    3 type  1   force =    -0.12113696    0.01222711    0.00476670
     atom    4 type  1   force =     0.11678783   -0.00605061    0.00000292
     atom    5 type  1   force =     0.15232391   -0.01709335    0.00720838
     atom    6 type  2   force =    -0.01179443   -0.01820592    0.00270222
     atom    7 type  2   force =    -0.01267421    0.00726179   -0.00982942
     atom    8 type  3   force =    -0.10935878    0.00351536   -0.00488564
     atom    9 type  3   force =     0.17067124    0.05655998   -0.00666519
     atom   10 type  3   force =    -0.01976932   -0.02780367   -0.06016309
     atom   11 type  3   force =    -0.01855428   -0.03343732    0.05486426
     atom   12 type  3   force =    -0.01473632    0.03463580   -0.05515797
     atom   13 type  3   force =    -0.01653073    0.03043203    0.05956073
     atom   14 type  3   force =     0.02040853   -0.03262940   -0.06297568
     atom   15 type  3   force =     0.01946047   -0.03787939    0.05839797
     atom   16 type  3   force =     0.01681734    0.04288873   -0.05730472
     atom   17 type  3   force =     0.01699588    0.03731905    0.05999485
     atom   18 type  4   force =    -0.01174178    0.01557242   -0.00752751
     atom   19 type  4   force =    -0.12368933   -0.00447075   -0.11631172
     atom   20 type  4   force =    -0.12886968    0.00572740    0.11632806
     atom   21 type  4   force =     0.12167111   -0.00973261   -0.11856190
     atom   22 type  4   force =     0.12854635    0.00112116    0.11871061
     atom   23 type  5   force =    -0.04155080   -0.01184541   -0.00118612
     The non-local contrib.  to forces
     atom    1 type  1   force =     0.00209015   -0.00985456    0.02331632
     atom    2 type  1   force =    -0.25561756   -0.15598825    0.01746746
     atom    3 type  1   force =    -0.23751663    0.15406305   -0.02605560
     atom    4 type  1   force =     0.24902819   -0.16452473    0.01760908
     atom    5 type  1   force =     0.14713593    0.20268302   -0.02557136
     atom    6 type  2   force =     0.00832798   -0.04844716   -0.06392933
     atom    7 type  2   force =    -0.01734655    0.06873950    0.05971377
     atom    8 type  3   force =    -0.26355108    0.00857533   -0.00493827
     atom    9 type  3   force =     0.23468764   -0.00117196   -0.00881025
     atom   10 type  3   force =    -0.20594289    0.00357500   -0.20659655
     atom   11 type  3   force =    -0.21162904    0.00231362    0.19592072
     atom   12 type  3   force =    -0.20593008   -0.02085942   -0.17581795
     atom   13 type  3   force =    -0.21329383   -0.00333227    0.20724265
     atom   14 type  3   force =     0.20324203    0.00102841   -0.21519215
     atom   15 type  3   force =     0.21108358    0.00509434    0.20162395
     atom   16 type  3   force =     0.22389534   -0.02843491   -0.16950954
     atom   17 type  3   force =     0.22884151   -0.01278083    0.20047430
     atom   18 type  4   force =    -0.01762075    0.06005111   -0.06312026
     atom   19 type  4   force =     0.06151300    0.00692885    0.06852466
     atom   20 type  4   force =     0.05697928   -0.01589764   -0.06509229
     atom   21 type  4   force =    -0.06628730    0.00584481    0.06870250
     atom   22 type  4   force =    -0.06128214   -0.01844581   -0.06268130
     atom   23 type  5   force =    -0.03023611    0.00504702   -0.00000631
     The ionic contribution  to forces
     atom    1 type  1   force =    -0.29369643   -4.79549463   14.38922917
     atom    2 type  1   force =   -39.71745903   -6.15349326    0.77966974
     atom    3 type  1   force =   -39.61313558    6.15935516   -0.71214358
     atom    4 type  1   force =    39.57325207   -6.24773821    0.77831097
     atom    5 type  1   force =    38.64602314    6.60887854   -0.70574111
     atom    6 type  2   force =    -0.30353160   -3.76337147  -14.30299207
     atom    7 type  2   force =    -0.20468575    3.61632195   14.10186736
     atom    8 type  3   force =   -52.32452953    0.08197948   -0.06583232
     atom    9 type  3   force =    51.22726378   -0.04680811   -0.03982914
     atom   10 type  3   force =   -36.04449262   -2.07255628  -23.09363762
     atom   11 type  3   force =   -35.11981271   -0.82601101   22.09793584
     atom   12 type  3   force =   -35.20919386    0.80133124  -22.16039003
     atom   13 type  3   force =   -35.99507872    2.18383202   23.08786049
     atom   14 type  3   force =    35.96071253   -2.06677403  -23.16680667
     atom   15 type  3   force =    35.03680241   -0.81965479   22.17041692
     atom   16 type  3   force =    35.03077809    0.85175715  -22.32656517
     atom   17 type  3   force =    35.81364308    2.23488168   23.25588739
     atom   18 type  4   force =    -0.18794567    4.38486380  -14.01499570
     atom   19 type  4   force =   -35.86004823    0.93657781  -25.53535009
     atom   20 type  4   force =   -35.84189352   -0.96905062   25.51214102
     atom   21 type  4   force =    35.75818510    0.90717185  -25.65037815
     atom   22 type  4   force =    35.73929209   -0.99992409   25.62724700
     atom   23 type  5   force =     3.92955096   -0.00607417   -0.02590425
     The local contribution  to forces
     atom    1 type  1   force =     0.27871741    4.76759689  -14.38288754
     atom    2 type  1   force =    39.86623114    6.29239371   -0.79284907
     atom    3 type  1   force =    39.74023777   -6.30330606    0.75088389
     atom    4 type  1   force =   -39.71553607    6.40565837   -0.79054825
     atom    5 type  1   force =   -38.63388380   -6.84322835    0.74623482
     atom    6 type  2   force =     0.28452757    3.79119629   14.36918956
     atom    7 type  2   force =     0.21022942   -3.66873415  -14.15880639
     atom    8 type  3   force =    52.50961030   -0.08562591    0.07002201
     atom    9 type  3   force =   -51.31438269    0.11145883    0.04719079
     atom   10 type  3   force =    36.25507488    2.03471191   23.25445761
     atom   11 type  3   force =    35.33724112    0.77609836  -22.25384896
     atom   12 type  3   force =    35.42541705   -0.73840692   22.29407379
     atom   13 type  3   force =    36.21546597   -2.13619708  -23.25000623
     atom   14 type  3   force =   -36.16601365    2.02557539   23.33325125
     atom   15 type  3   force =   -35.24955406    0.76076702  -22.32786908
     atom   16 type  3   force =   -35.26274373   -0.77144920   22.45178000
     atom   17 type  3   force =   -36.04709361   -2.17007245  -23.41006680
     atom   18 type  4   force =     0.19394533   -4.42623500   14.07110729
     atom   19 type  4   force =    35.68797021   -0.94797483   25.35778202
     atom   20 type  4   force =    35.66416021    0.99078232  -25.33681170
     atom   21 type  4   force =   -35.58232529   -0.92287941   25.47012671
     atom   22 type  4   force =   -35.55575299    1.01973318  -25.45149730
     atom   23 type  5   force =    -3.94008161   -0.00991166    0.02629367
     The core correction contribution to forces
     atom    1 type  1   force =     0.00009227    0.00192188   -0.00174278
     atom    2 type  1   force =    -0.01199519   -0.00119051    0.00081093
     atom    3 type  1   force =    -0.01102283    0.00202334   -0.00162284
     atom    4 type  1   force =     0.01166168   -0.00168291    0.00078033
     atom    5 type  1   force =    -0.00162632    0.01465792   -0.00153895
     atom    6 type  2   force =    -0.00047371    0.00227769    0.00257718
     atom    7 type  2   force =     0.00063112   -0.00353735   -0.00234486
     atom    8 type  3   force =    -0.03174684    0.00037571   -0.00046302
     atom    9 type  3   force =     0.02517182   -0.00518945   -0.00151468
     atom   10 type  3   force =    -0.02205833    0.00882486   -0.01722786
     atom   11 type  3   force =    -0.02407505    0.00875002    0.01785631
     atom   12 type  3   force =    -0.02286067   -0.00988091   -0.01501909
     atom   13 type  3   force =    -0.02300140   -0.00910240    0.01648905
     atom   14 type  3   force =     0.02149229    0.00971854   -0.01614492
     atom   15 type  3   force =     0.02272676    0.01029839    0.01658431
     atom   16 type  3   force =     0.02456329   -0.01142764   -0.01371637
     atom   17 type  3   force =     0.02369411   -0.01020548    0.01501557
     atom   18 type  4   force =     0.00089838   -0.00339567    0.00313786
     atom   19 type  4   force =    -0.00974099    0.00014966   -0.00932643
     atom   20 type  4   force =    -0.00966315    0.00049344    0.00925698
     atom   21 type  4   force =     0.01022931    0.00042354   -0.00912201
     atom   22 type  4   force =     0.01009067    0.00077220    0.00895095
     atom   23 type  5   force =     0.00000000    0.00000000    0.00000000
     The Hubbard contrib.    to forces
     atom    1 type  1   force =     0.00000000    0.00000000    0.00000000
     atom    2 type  1   force =     0.00000000    0.00000000    0.00000000
     atom    3 type  1   force =     0.00000000    0.00000000    0.00000000
     atom    4 type  1   force =     0.00000000    0.00000000    0.00000000
     atom    5 type  1   force =     0.00000000    0.00000000    0.00000000
     atom    6 type  2   force =     0.00000000    0.00000000    0.00000000
     atom    7 type  2   force =     0.00000000    0.00000000    0.00000000
     atom    8 type  3   force =     0.00000000    0.00000000    0.00000000
     atom    9 type  3   force =     0.00000000    0.00000000    0.00000000
     atom   10 type  3   force =     0.00000000    0.00000000    0.00000000
     atom   11 type  3   force =     0.00000000    0.00000000    0.00000000
     atom   12 type  3   force =     0.00000000    0.00000000    0.00000000
     atom   13 type  3   force =     0.00000000    0.00000000    0.00000000
     atom   14 type  3   force =     0.00000000    0.00000000    0.00000000
     atom   15 type  3   force =     0.00000000    0.00000000    0.00000000
     atom   16 type  3   force =     0.00000000    0.00000000    0.00000000
     atom   17 type  3   force =     0.00000000    0.00000000    0.00000000
     atom   18 type  4   force =     0.00000000    0.00000000    0.00000000
     atom   19 type  4   force =     0.00000000    0.00000000    0.00000000
     atom   20 type  4   force =     0.00000000    0.00000000    0.00000000
     atom   21 type  4   force =     0.00000000    0.00000000    0.00000000
     atom   22 type  4   force =     0.00000000    0.00000000    0.00000000
     atom   23 type  5   force =     0.00000000    0.00000000    0.00000000
     The SCF correction term to forces
     atom    1 type  1   force =    -0.00053588    0.00437939   -0.00822214
     atom    2 type  1   force =    -0.00066804    0.00147994   -0.00543751
     atom    3 type  1   force =     0.00051778    0.00002313   -0.00563402
     atom    4 type  1   force =    -0.00140057    0.00216838   -0.00548806
     atom    5 type  1   force =    -0.00510757   -0.00015298   -0.00551386
     atom    6 type  2   force =    -0.00042720    0.00007024   -0.00148196
     atom    7 type  2   force =    -0.00128498   -0.00559665   -0.00959814
     atom    8 type  3   force =     0.00107584   -0.00185775   -0.00301289
     atom    9 type  3   force =    -0.00185186   -0.00179782   -0.00304076
     atom   10 type  3   force =    -0.00213289   -0.00242765    0.00350248
     atom   11 type  3   force =    -0.00006113    0.00534320   -0.00233850
     atom   12 type  3   force =    -0.00195129    0.00238331    0.00265647
     atom   13 type  3   force =    -0.00040530   -0.00483673   -0.00136408
     atom   14 type  3   force =     0.00119280   -0.00224620    0.00257797
     atom   15 type  3   force =    -0.00138074    0.00554715   -0.00169698
     atom   16 type  3   force =     0.00054180    0.00237484    0.00136751
     atom   17 type  3   force =    -0.00187175   -0.00457236   -0.00065445
     atom   18 type  4   force =    -0.00080160    0.00021970   -0.00299555
     atom   19 type  4   force =    -0.00316585   -0.00022074    0.00271927
     atom   20 type  4   force =     0.00176497   -0.00066858   -0.00250480
     atom   21 type  4   force =     0.00208677   -0.00036189    0.00277020
     atom   22 type  4   force =    -0.00358381   -0.00108281   -0.00264759
     atom   23 type  5   force =    -0.00056657   -0.00097509   -0.00090807

     Total force =     0.523535     Total SCF correction =     0.025572


     Computing stress (Cartesian axis) and pressure


     negative rho (up, down):  9.091E-01 9.091E-01
          total   stress  (Ry/bohr**3)                   (kbar)     P=       81.93
   0.00063429   0.00000166  -0.00000092           93.31        0.24       -0.13
   0.00000166   0.00063982  -0.00001279            0.24       94.12       -1.88
  -0.00000092  -0.00001279   0.00039682           -0.13       -1.88       58.37


     Entering Dynamics:    iteration =    20
                           time      =   0.0041 pico-seconds


ATOMIC_POSITIONS (angstrom)
Hf            2.6718296983        2.8286725651        6.6040691745
Hf            1.2534227894        1.2878721991        5.0584284671
Hf            1.2559049903        7.3917243577        5.0881070793
Hf            4.0902945296        1.2879244468        5.0584229230
Hf            4.0876979275        7.3914276910        5.0881212274
Nb            2.6718643250        2.7983926153        3.5157794949
Nb            2.6717603398        5.8783949580        6.6346249191
Ta            1.2098339862        4.3428095650        5.0710713505
Ta            4.0959035425        4.3048252060        5.0711568478
Ta            1.3087583595        1.3155730094        2.0580824123
Ta            1.3043216522        1.3097675051        8.0952170114
Ta            1.3056110361        7.3780137808        2.0455992352
Ta            1.3092834860        7.3671923887        8.0866975360
Ta            4.0347181535        1.3155506528        2.0580698801
Ta            4.0391775731        1.3097739279        8.0952339216
Ta            4.0379362947        7.3780452383        2.0456222527
Ta            4.0342461606        7.3672345382        8.0866837807
Zr            2.6717590636        5.8685081686        3.5273123387
Zr            1.2426889018        4.3237076109        1.9974009838
Zr            1.2391549037        4.3559988386        8.1523835816
Zr            4.1007005429        4.3236457061        1.9974502705
Zr            4.1042884793        4.3559604755        8.1523157179
H             5.9932294910        6.2319421051        5.0726049266


     kinetic energy (Ekin) =           8.07245259 Ry
     temperature           =       38622.40784825 K 
     Ekin + Etot (const)   =       -2934.98657396 Ry
     Ions kinetic stress =          142.57 (kbar)
                                    209.49         213.62           0.04
                                    213.62         218.08           0.05
                                      0.04           0.05           0.14



     Linear momentum :   -0.0000000000    0.0000000000    0.0000000000

     The maximum number of steps has been reached.

     End of molecular dynamics calculation

     diffusion coefficients :
     atom     1   D =       0.00000002 cm^2/s
     atom     2   D =       0.00000001 cm^2/s
     atom     3   D =       0.00000002 cm^2/s
     atom     4   D =       0.00000006 cm^2/s
     atom     5   D =       0.00000005 cm^2/s
     atom     6   D =       0.00000002 cm^2/s
     atom     7   D =       0.00000003 cm^2/s
     atom     8   D =       0.00000002 cm^2/s
     atom     9   D =       0.00001029 cm^2/s
     atom    10   D =       0.00000002 cm^2/s
     atom    11   D =       0.00000002 cm^2/s
     atom    12   D =       0.00000003 cm^2/s
     atom    13   D =       0.00000003 cm^2/s
     atom    14   D =       0.00000003 cm^2/s
     atom    15   D =       0.00000003 cm^2/s
     atom    16   D =       0.00000004 cm^2/s
     atom    17   D =       0.00000004 cm^2/s
     atom    18   D =       0.00000003 cm^2/s
     atom    19   D =       0.00000004 cm^2/s
     atom    20   D =       0.00000005 cm^2/s
     atom    21   D =       0.00000012 cm^2/s
     atom    22   D =       0.00000013 cm^2/s
     atom    23   D =       0.00176061 cm^2/s

     < D > =       0.00007703 cm^2/s

     Writing all to output data dir outdir/pwscf.save/

     init_run     :     10.17s CPU     11.84s WALL (       1 calls)
     electrons    :   2511.41s CPU   2979.10s WALL (      20 calls)
     update_pot   :     19.24s CPU     21.02s WALL (      19 calls)
     forces       :    180.84s CPU    215.13s WALL (      20 calls)
     stress       :    295.58s CPU    319.65s WALL (      20 calls)

     Called by init_run:
     wfcinit      :      7.86s CPU      8.79s WALL (       1 calls)
     potinit      :      0.45s CPU      0.54s WALL (       1 calls)
     hinit0       :      0.97s CPU      1.11s WALL (       1 calls)

     Called by electrons:
     c_bands      :   1984.68s CPU   2374.67s WALL (      97 calls)
     sum_band     :    356.83s CPU    408.02s WALL (      97 calls)
     v_of_rho     :     10.61s CPU     12.42s WALL (     117 calls)
     newd         :    182.35s CPU    211.10s WALL (     117 calls)
     mix_rho      :      0.96s CPU      1.23s WALL (      97 calls)

     Called by c_bands:
     init_us_2    :      3.89s CPU      4.03s WALL (     470 calls)
     init_us_2:cp :      3.89s CPU      4.03s WALL (     470 calls)
     regterg      :   1970.81s CPU   2357.77s WALL (     194 calls)

     Called by *egterg:
     rdiaghg      :     66.73s CPU     84.47s WALL (    1570 calls)
     h_psi        :   1029.27s CPU   1144.89s WALL (    1610 calls)
     s_psi        :    345.92s CPU    346.62s WALL (    1610 calls)
     g_psi        :      0.73s CPU      0.79s WALL (    1414 calls)

     Called by h_psi:
     h_psi:calbec :    496.84s CPU    578.51s WALL (    1610 calls)
     vloc_psi     :    105.46s CPU    137.97s WALL (    1610 calls)
     add_vuspsi   :    425.63s CPU    427.02s WALL (    1610 calls)

     General routines
     calbec       :    833.48s CPU    975.06s WALL (    2004 calls)
     fft          :      8.75s CPU     23.73s WALL (    2454 calls)
     ffts         :      0.21s CPU      0.29s WALL (      97 calls)
     fftw         :    112.87s CPU    148.68s WALL (  103250 calls)

     Parallel routines

     PWSCF        :  50m41.80s CPU  59m36.56s WALL


   This run was terminated on:  20:22: 6  12Jun2023            

=------------------------------------------------------------------------------=
   JOB DONE.
=------------------------------------------------------------------------------=
