
     Program PWSCF v.7.2 starts on  6Jun2023 at 17:11:20 

     This program is part of the open-source Quantum ESPRESSO suite
     for quantum simulation of materials; please cite
         "P. Giannozzi et al., J. Phys.:Condens. Matter 21 395502 (2009);
         "P. Giannozzi et al., J. Phys.:Condens. Matter 29 465901 (2017);
         "P. Giannozzi et al., J. Chem. Phys. 152 154105 (2020);
          URL http://www.quantum-espresso.org", 
     in publications or presentations arising from this work. More details at
     http://www.quantum-espresso.org/quote

     Parallel version (MPI), running on    12 processors

     MPI processes distributed on     1 nodes
     67655 MiB available memory on the printing compute node when the environment starts

     Reading input from md_Hf5Nb2Ta10Zr5H_15steps_1000eV_offset.in
Warning: card &CELL ignored
Warning: card / ignored

     Current dimensions of program PWSCF are:
     Max number of different atomic species (ntypx) = 10
     Max number of k-points (npk) =  40000
     Max angular momentum in pseudopotentials (lmaxx) =  4

     File outdir/pwscf.md deleted, as requested

     gamma-point specific algorithms are used

     R & G space division:  proc/nbgrp/npool/nimage =      12
     Subspace diagonalization in iterative solution of the eigenvalue problem:
     one sub-group per band group will be used
     custom distributed-memory algorithm (size of sub-group:  2*  2 procs)


     Parallelization info
     --------------------
     sticks:   dense  smooth     PW     G-vecs:    dense   smooth      PW
     Min         821     821    205                73378    73378    9174
     Max         824     824    206                73388    73388    9178
     Sum        9871    9871   2471               880587   880587  110101

     Using Slab Decomposition



     bravais-lattice index     =            0
     lattice parameter (alat)  =      15.7603  a.u.
     unit-cell volume          =    4958.3580 (a.u.)^3
     number of atoms/cell      =           23
     number of atomic types    =            5
     number of electrons       =       277.00
     number of Kohn-Sham states=          167
     kinetic-energy cutoff     =     120.0000  Ry
     charge density cutoff     =     480.0000  Ry
     scf convergence threshold =      1.0E-03
     mixing beta               =       0.7000
     number of iterations used =            8  TF        mixing
     energy convergence thresh.=      0.0E+00
     force convergence thresh. =      0.0E+00
     Exchange-correlation=  SLA  PW   PBX  PBC
                           (   1   4   3   4   0   0   0)
     nstep                     =           15


     celldm(1)=  15.760315  celldm(2)=   0.000000  celldm(3)=   0.000000
     celldm(4)=   0.000000  celldm(5)=   0.000000  celldm(6)=   0.000000

     crystal axes: (cart. coord. in units of alat)
               a(1) = (   1.000000   0.000000   0.000000 )  
               a(2) = (   0.000000   1.040767   0.000000 )  
               a(3) = (   0.000000   0.000000   1.216997 )  

     reciprocal axes: (cart. coord. in units 2 pi/alat)
               b(1) = (  1.000000  0.000000  0.000000 )  
               b(2) = (  0.000000  0.960830  0.000000 )  
               b(3) = (  0.000000  0.000000  0.821695 )  


     PseudoPot. # 1 for Hf read from file:
     q-e/pseudo/hf_pbe_v1.uspp.F.UPF
     MD5 check sum: 8ee9378dfe14276e333edf04c5e4aa26
     Pseudo is Ultrasoft + core correction, Zval = 12.0
     Generated by new atomic code, or converted to UPF format
     Using radial grid of  921 points,  8 beta functions with: 
                l(1) =   0
                l(2) =   0
                l(3) =   0
                l(4) =   1
                l(5) =   1
                l(6) =   2
                l(7) =   2
                l(8) =   3
     Q(r) pseudized with  6 coefficients,  rinner =    1.200   1.200   1.200
                                                       1.200   1.200   1.200
                                                       1.200

     PseudoPot. # 2 for Nb read from file:
     q-e/pseudo/nb_pbe_v1.uspp.F.UPF
     MD5 check sum: 573aab8a2fa660278ed4a62cd769473f
     Pseudo is Ultrasoft + core correction, Zval = 13.0
     Generated by new atomic code, or converted to UPF format
     Using radial grid of  887 points,  6 beta functions with: 
                l(1) =   0
                l(2) =   0
                l(3) =   1
                l(4) =   1
                l(5) =   2
                l(6) =   2
     Q(r) pseudized with  6 coefficients,  rinner =    1.000   1.000   1.000
                                                       1.000   1.000

     PseudoPot. # 3 for Ta read from file:
     q-e/pseudo/ta_pbe_v1.uspp.F.UPF
     MD5 check sum: f8bbe9446314a3b8ea5d9f3e3836c939
     Pseudo is Ultrasoft + core correction, Zval = 13.0
     Generated by new atomic code, or converted to UPF format
     Using radial grid of  921 points,  7 beta functions with: 
                l(1) =   0
                l(2) =   0
                l(3) =   1
                l(4) =   1
                l(5) =   2
                l(6) =   2
                l(7) =   3
     Q(r) pseudized with  6 coefficients,  rinner =    1.300   1.300   1.300
                                                       1.300   1.300   1.300
                                                       1.300

     PseudoPot. # 4 for Zr read from file:
     q-e/pseudo/zr_pbe_v1.uspp.F.UPF
     MD5 check sum: 5db81b1e868ab7776c4564c113de050b
     Pseudo is Ultrasoft + core correction, Zval = 12.0
     Generated by new atomic code, or converted to UPF format
     Using radial grid of  887 points,  6 beta functions with: 
                l(1) =   0
                l(2) =   0
                l(3) =   1
                l(4) =   1
                l(5) =   2
                l(6) =   2
     Q(r) pseudized with  6 coefficients,  rinner =    1.200   1.200   1.200
                                                       1.200   1.200

     PseudoPot. # 5 for H  read from file:
     q-e/pseudo/h_pbe_v1.4.uspp.F.UPF
     MD5 check sum: 761ae9a214b05c3daf00ab9f6b793d6f
     Pseudo is Ultrasoft, Zval =  1.0
     Generated by new atomic code, or converted to UPF format
     Using radial grid of  615 points,  2 beta functions with: 
                l(1) =   0
                l(2) =   0
     Q(r) pseudized with  8 coefficients,  rinner =    0.700

     atomic species   valence    mass     pseudopotential
        Hf            12.00   178.49000     Hf( 1.00)
        Nb            13.00    92.90637     Nb( 1.00)
        Ta            13.00   180.94788     Ta( 1.00)
        Zr            12.00    91.22400     Zr( 1.00)
        H              1.00     2.01400     H ( 1.00)

     Starting magnetic structure 
     atomic species   magnetization
        Hf           0.000
        Nb           0.000
        Ta           0.000
        Zr           0.000
        H            0.000

     No symmetry found



   Cartesian axes

     site n.     atom                  positions (alat units)
         1           Hf  tau(   1) = (   0.3201439   0.3389836   0.7918423  )
         2           Hf  tau(   2) = (   0.1502387   0.1542307   0.6065307  )
         3           Hf  tau(   3) = (   0.1505380   0.8860677   0.6100801  )
         4           Hf  tau(   4) = (   0.4900491   0.1542307   0.6065307  )
         5           Hf  tau(   5) = (   0.4897498   0.8860677   0.6100801  )
         6           Nb  tau(   6) = (   0.3201439   0.3353634   0.4215328  )
         7           Nb  tau(   7) = (   0.3201439   0.7046018   0.7955633  )
         8           Ta  tau(   8) = (   0.1450088   0.5204950   0.6080487  )
         9           Ta  tau(   9) = (   0.4952790   0.5204950   0.6080487  )
        10           Ta  tau(  10) = (   0.1567449   0.1575687   0.2468560  )
        11           Ta  tau(  11) = (   0.1562096   0.1568814   0.9705731  )
        12           Ta  tau(  12) = (   0.1563561   0.8843917   0.2453522  )
        13           Ta  tau(  13) = (   0.1567999   0.8831035   0.9695447  )
        14           Ta  tau(  14) = (   0.4835429   0.1575687   0.2468560  )
        15           Ta  tau(  15) = (   0.4840781   0.1568814   0.9705731  )
        16           Ta  tau(  16) = (   0.4839317   0.8843917   0.2453522  )
        17           Ta  tau(  17) = (   0.4834879   0.8831035   0.9695447  )
        18           Zr  tau(  18) = (   0.3201439   0.7033916   0.4229477  )
        19           Zr  tau(  19) = (   0.1491408   0.5182348   0.2398082  )
        20           Zr  tau(  20) = (   0.1487273   0.5220772   0.9771889  )
        21           Zr  tau(  21) = (   0.4911469   0.5182348   0.2398082  )
        22           Zr  tau(  22) = (   0.4915605   0.5220772   0.9771889  )
        23           H   tau(  23) = (   0.6751351   0.7002398   0.6081751  )

     number of k points=     1  Gaussian smearing, width (Ry)=  0.0220
                       cart. coord. in units 2pi/alat
        k(    1) = (   0.0000000   0.0000000   0.0000000), wk =   1.0000000

     Dense  grid:   440294 G-vectors     FFT dimensions: ( 120, 120, 135)

     Estimated max dynamical RAM per process >     369.12 MB

     Estimated total dynamical RAM >       4.33 GB

     Check: negative core charge=   -0.000002
     Generating pointlists ...
     new r_m :   0.1083 (alat units)  1.7065 (a.u.) for type    1
     new r_m :   0.1229 (alat units)  1.9374 (a.u.) for type    2
     new r_m :   0.1049 (alat units)  1.6531 (a.u.) for type    3
     new r_m :   0.1245 (alat units)  1.9625 (a.u.) for type    4
     new r_m :   0.1049 (alat units)  1.6531 (a.u.) for type    5

     Initial potential from superposition of free atoms

     starting charge     266.9726, renormalised to     277.0000

     negative rho (up, down):  9.207E-01 9.207E-01
     Starting wfcs are  287 randomized atomic wfcs

     total cpu time spent up to now is       28.9 secs

     Self-consistent Calculation

     iteration #  1     ecut=   120.00 Ry     beta= 0.70
     Davidson diagonalization with overlap
     ethr =  1.00E-02,  avg # of iterations =  3.0

     negative rho (up, down):  9.763E-01 9.761E-01

     total cpu time spent up to now is       77.1 secs

     total energy              =   -2932.31302483 Ry
     estimated scf accuracy    <     290.57810207 Ry

     total magnetization       =     0.00 Bohr mag/cell
     absolute magnetization    =     0.09 Bohr mag/cell

     iteration #  2     ecut=   120.00 Ry     beta= 0.70
     Davidson diagonalization with overlap
     ethr =  1.00E-02,  avg # of iterations =  4.5

     negative rho (up, down):  9.325E-01 9.337E-01

     total cpu time spent up to now is      128.9 secs

     total energy              =   -2942.26805184 Ry
     estimated scf accuracy    <      36.30137655 Ry

     total magnetization       =     0.10 Bohr mag/cell
     absolute magnetization    =     0.25 Bohr mag/cell

     iteration #  3     ecut=   120.00 Ry     beta= 0.70
     Davidson diagonalization with overlap
     ethr =  1.00E-02,  avg # of iterations =  2.0

     negative rho (up, down):  9.608E-01 9.614E-01

     total cpu time spent up to now is      178.3 secs

     total energy              =   -2942.70849786 Ry
     estimated scf accuracy    <      15.26192264 Ry

     total magnetization       =     0.07 Bohr mag/cell
     absolute magnetization    =     0.30 Bohr mag/cell

     iteration #  4     ecut=   120.00 Ry     beta= 0.70
     Davidson diagonalization with overlap
     ethr =  5.51E-03,  avg # of iterations =  4.0

     negative rho (up, down):  9.555E-01 9.546E-01

     total cpu time spent up to now is      223.6 secs

     total energy              =   -2942.97619171 Ry
     estimated scf accuracy    <       3.28959258 Ry

     total magnetization       =     0.03 Bohr mag/cell
     absolute magnetization    =     0.32 Bohr mag/cell

     iteration #  5     ecut=   120.00 Ry     beta= 0.70
     Davidson diagonalization with overlap
     ethr =  1.19E-03,  avg # of iterations =  7.0

     negative rho (up, down):  9.310E-01 9.305E-01

     total cpu time spent up to now is      281.2 secs

     total energy              =   -2943.11964427 Ry
     estimated scf accuracy    <       1.58224525 Ry

     total magnetization       =     0.02 Bohr mag/cell
     absolute magnetization    =     0.15 Bohr mag/cell

     iteration #  6     ecut=   120.00 Ry     beta= 0.70
     Davidson diagonalization with overlap
     ethr =  5.71E-04,  avg # of iterations =  2.0

     negative rho (up, down):  9.209E-01 9.205E-01

     total cpu time spent up to now is      326.3 secs

     total energy              =   -2943.12638020 Ry
     estimated scf accuracy    <       1.20464323 Ry

     total magnetization       =     0.02 Bohr mag/cell
     absolute magnetization    =     0.10 Bohr mag/cell

     iteration #  7     ecut=   120.00 Ry     beta= 0.70
     Davidson diagonalization with overlap
     ethr =  4.35E-04,  avg # of iterations =  2.0

     negative rho (up, down):  9.089E-01 9.088E-01

     total cpu time spent up to now is      371.0 secs

     total energy              =   -2943.10447078 Ry
     estimated scf accuracy    <       0.31228777 Ry

     total magnetization       =     0.01 Bohr mag/cell
     absolute magnetization    =     0.09 Bohr mag/cell

     iteration #  8     ecut=   120.00 Ry     beta= 0.70
     Davidson diagonalization with overlap
     ethr =  1.13E-04,  avg # of iterations = 12.5

     negative rho (up, down):  9.052E-01 9.052E-01

     total cpu time spent up to now is      421.6 secs

     total energy              =   -2943.10945819 Ry
     estimated scf accuracy    <       0.24828938 Ry

     total magnetization       =     0.01 Bohr mag/cell
     absolute magnetization    =     0.06 Bohr mag/cell

     iteration #  9     ecut=   120.00 Ry     beta= 0.70
     Davidson diagonalization with overlap
     ethr =  8.96E-05,  avg # of iterations =  2.0

     negative rho (up, down):  9.063E-01 9.063E-01

     total cpu time spent up to now is      465.0 secs

     total energy              =   -2943.11767600 Ry
     estimated scf accuracy    <       0.04542278 Ry

     total magnetization       =     0.01 Bohr mag/cell
     absolute magnetization    =     0.04 Bohr mag/cell

     iteration # 10     ecut=   120.00 Ry     beta= 0.70
     Davidson diagonalization with overlap
     ethr =  1.64E-05,  avg # of iterations = 13.5

     negative rho (up, down):  9.072E-01 9.073E-01

     total cpu time spent up to now is      518.3 secs

     total energy              =   -2943.12268879 Ry
     estimated scf accuracy    <       0.03466162 Ry

     total magnetization       =     0.01 Bohr mag/cell
     absolute magnetization    =     0.03 Bohr mag/cell

     iteration # 11     ecut=   120.00 Ry     beta= 0.70
     Davidson diagonalization with overlap
     ethr =  1.25E-05,  avg # of iterations =  1.5

     negative rho (up, down):  9.080E-01 9.080E-01

     total cpu time spent up to now is      557.6 secs

     total energy              =   -2943.12498379 Ry
     estimated scf accuracy    <       0.00547976 Ry

     total magnetization       =     0.01 Bohr mag/cell
     absolute magnetization    =     0.03 Bohr mag/cell

     iteration # 12     ecut=   120.00 Ry     beta= 0.70
     Davidson diagonalization with overlap
     ethr =  1.98E-06,  avg # of iterations = 14.0

     negative rho (up, down):  9.080E-01 9.081E-01

     Magnetic moment per site  (integrated on atomic sphere of radius R)
     atom   1 (R=0.108)  charge=  8.3183   -0.0002
     atom   2 (R=0.108)  charge=  8.1008   -0.0001
     atom   3 (R=0.108)  charge=  8.0991   -0.0000
     atom   4 (R=0.108)  charge=  8.0998   -0.0000
     atom   5 (R=0.108)  charge=  8.0960   -0.0001
     atom   6 (R=0.123)  charge= 10.3434   -0.0006
     atom   7 (R=0.123)  charge= 10.3457   -0.0001
     atom   8 (R=0.105)  charge=  8.6103   -0.0002
     atom   9 (R=0.105)  charge=  8.5952   -0.0003
     atom  10 (R=0.105)  charge=  8.5836   -0.0001
     atom  11 (R=0.105)  charge=  8.5797    0.0002
     atom  12 (R=0.105)  charge=  8.5862    0.0008
     atom  13 (R=0.105)  charge=  8.5824    0.0001
     atom  14 (R=0.105)  charge=  8.5833    0.0003
     atom  15 (R=0.105)  charge=  8.5797    0.0003
     atom  16 (R=0.105)  charge=  8.5884    0.0008
     atom  17 (R=0.105)  charge=  8.5827   -0.0000
     atom  18 (R=0.125)  charge=  9.4545   -0.0003
     atom  19 (R=0.125)  charge=  8.9981    0.0004
     atom  20 (R=0.125)  charge=  8.9956    0.0011
     atom  21 (R=0.125)  charge=  9.0007    0.0003
     atom  22 (R=0.125)  charge=  8.9979    0.0011
     atom  23 (R=0.105)  charge=  1.0922    0.0000

     total cpu time spent up to now is      612.6 secs

     End of self-consistent calculation

 ------ SPIN UP ------------


          k = 0.0000 0.0000 0.0000 ( 55051 PWs)   bands (ev):

   -59.4913 -59.4792 -59.4467 -59.4339 -59.4152 -59.4032 -59.3715 -59.3590
   -59.2610 -59.1643 -53.0632 -52.9865 -52.9266 -52.8350 -51.3635 -44.9322
   -44.9072 -40.3362 -40.3282 -40.2426 -40.2352 -38.4864 -26.4930 -26.4800
   -26.4094 -26.3913 -26.3091 -26.2993 -26.1835 -26.1752 -26.1204 -26.0320
   -26.0124 -25.9708 -25.9577 -25.9424 -25.9234 -25.8863 -25.8678 -25.8560
   -25.8153 -25.7905 -25.7444 -25.6980 -25.6707 -25.6625 -25.6544 -25.6455
   -25.5983 -25.5924 -25.5715 -25.5631 -22.8391 -22.6171 -22.3243 -22.2174
   -21.9808 -21.8520 -21.8074 -21.7138 -21.5993 -21.5104 -21.4768 -21.2454
   -21.1722 -21.1141 -21.0629 -21.0104 -20.9424 -20.8922 -20.4293 -20.3613
   -20.2990 -18.8930 -18.6217 -18.5502 -18.5336 -18.3107 -18.3010 -18.2931
   -18.2822 -18.2698 -18.2312 -18.0615 -18.0521 -16.8350 -16.6392 -16.5015
     2.7153   4.1708   4.2218   4.4537   4.6356   4.7919   4.8504   4.9662
     4.9956   5.1837   5.2375   5.3806   5.4896   5.8099   5.9011   5.9975
     6.0729   6.1672   6.3423   6.4016   6.4926   6.5642   6.5872   6.6550
     6.7240   6.8590   6.9120   7.0039   7.0362   7.0559   7.0702   7.1388
     7.2535   7.3632   7.4646   7.5017   7.5721   7.5761   7.6513   7.6870
     7.7428   7.8917   8.0127   8.0311   8.1897   8.2566   8.2792   8.3896
     8.4612   8.5227   8.5986   8.6126   8.6179   8.7539   8.8141   8.8819
     8.9098   9.0927   9.1727   9.2502   9.3587   9.3762   9.5797   9.5953
     9.6295   9.6440   9.6585   9.6836   9.8192   9.9517  10.0084  10.0181
    10.2232  10.2452  10.4145  10.4249  10.4537  10.5242  10.5760

 ------ SPIN DOWN ----------


          k = 0.0000 0.0000 0.0000 ( 55051 PWs)   bands (ev):

   -59.4911 -59.4792 -59.4466 -59.4338 -59.4148 -59.4031 -59.3712 -59.3589
   -59.2612 -59.1645 -53.0632 -52.9864 -52.9266 -52.8350 -51.3637 -44.9323
   -44.9078 -40.3359 -40.3270 -40.2415 -40.2349 -38.4867 -26.4925 -26.4798
   -26.4089 -26.3911 -26.3090 -26.2992 -26.1832 -26.1749 -26.1204 -26.0320
   -26.0124 -25.9707 -25.9577 -25.9423 -25.9233 -25.8863 -25.8675 -25.8560
   -25.8155 -25.7908 -25.7448 -25.6981 -25.6705 -25.6625 -25.6541 -25.6452
   -25.5978 -25.5924 -25.5711 -25.5629 -22.8392 -22.6172 -22.3244 -22.2174
   -21.9808 -21.8521 -21.8074 -21.7138 -21.5994 -21.5104 -21.4769 -21.2453
   -21.1724 -21.1145 -21.0631 -21.0106 -20.9426 -20.8925 -20.4294 -20.3614
   -20.2993 -18.8928 -18.6203 -18.5500 -18.5334 -18.3096 -18.3005 -18.2921
   -18.2815 -18.2687 -18.2301 -18.0615 -18.0508 -16.8352 -16.6396 -16.5018
     2.7154   4.1708   4.2223   4.4537   4.6357   4.7924   4.8504   4.9661
     4.9956   5.1837   5.2382   5.3807   5.4899   5.8099   5.9013   5.9978
     6.0731   6.1674   6.3426   6.4018   6.4928   6.5643   6.5874   6.6553
     6.7243   6.8591   6.9121   7.0043   7.0366   7.0562   7.0702   7.1389
     7.2536   7.3635   7.4648   7.5021   7.5723   7.5763   7.6518   7.6871
     7.7431   7.8919   8.0130   8.0313   8.1903   8.2571   8.2801   8.3903
     8.4619   8.5239   8.5986   8.6135   8.6190   8.7552   8.8147   8.8825
     8.9105   9.0932   9.1731   9.2505   9.3593   9.3771   9.5801   9.5957
     9.6305   9.6446   9.6594   9.6839   9.8196   9.9522  10.0088  10.0185
    10.2233  10.2460  10.4152  10.4253  10.4543  10.5242  10.5766

     the Fermi energy is     8.5631 ev

!    total energy              =   -2943.12626330 Ry
     estimated scf accuracy    <       0.00080471 Ry
     smearing contrib. (-TS)   =      -0.10395192 Ry
     internal energy E=F+TS    =   -2943.02231137 Ry

     total magnetization       =     0.01 Bohr mag/cell
     absolute magnetization    =     0.03 Bohr mag/cell

     convergence has been achieved in  12 iterations

     negative rho (up, down):  9.080E-01 9.081E-01

     Forces acting on atoms (cartesian axes, Ry/au):

     atom    1 type  1   force =    -0.00660609   -0.02585777    0.01288537
     atom    2 type  1   force =    -0.12613787   -0.02113622   -0.00455341
     atom    3 type  1   force =    -0.12669942    0.01638502    0.00039501
     atom    4 type  1   force =     0.12670341   -0.00804814   -0.00326809
     atom    5 type  1   force =     0.14850839   -0.01586550    0.00361196
     atom    6 type  2   force =    -0.00501536   -0.01509261    0.00760480
     atom    7 type  2   force =    -0.01302813    0.01054664   -0.00689475
     atom    8 type  3   force =    -0.11628050    0.00455305   -0.00577503
     atom    9 type  3   force =     0.16753074    0.04231379   -0.00469223
     atom   10 type  3   force =    -0.02430217   -0.02926013   -0.05816641
     atom   11 type  3   force =    -0.02392971   -0.03302143    0.05618157
     atom   12 type  3   force =    -0.01336493    0.03294854   -0.05525569
     atom   13 type  3   force =    -0.01781435    0.02739584    0.06092534
     atom   14 type  3   force =     0.02256924   -0.03305855   -0.06133970
     atom   15 type  3   force =     0.02336150   -0.03596139    0.05971186
     atom   16 type  3   force =     0.01746646    0.04211331   -0.05590347
     atom   17 type  3   force =     0.01896613    0.03574464    0.06076791
     atom   18 type  4   force =    -0.01344073    0.02001402   -0.01003747
     atom   19 type  4   force =    -0.13496775   -0.00492871   -0.11824585
     atom   20 type  4   force =    -0.13864576    0.00516128    0.12083785
     atom   21 type  4   force =     0.13036742   -0.00855478   -0.12070378
     atom   22 type  4   force =     0.13586002    0.00076443    0.12222013
     atom   23 type  5   force =    -0.03110057   -0.00715531   -0.00030592
     The non-local contrib.  to forces
     atom    1 type  1   force =     0.00067160   -0.01145314    0.03109798
     atom    2 type  1   force =    -0.25442627   -0.16202367    0.01562149
     atom    3 type  1   force =    -0.24100531    0.15674552   -0.02848795
     atom    4 type  1   force =     0.24390161   -0.17236525    0.01626725
     atom    5 type  1   force =     0.17924702    0.19830306   -0.02732940
     atom    6 type  2   force =     0.00891284   -0.06192123   -0.07392692
     atom    7 type  2   force =    -0.01841616    0.07737792    0.06061926
     atom    8 type  3   force =    -0.26179456    0.00728981   -0.00526829
     atom    9 type  3   force =     0.19070750   -0.04169080   -0.01199669
     atom   10 type  3   force =    -0.22038648    0.00454012   -0.21111011
     atom   11 type  3   force =    -0.22560259    0.00589710    0.20350240
     atom   12 type  3   force =    -0.21247915   -0.02305620   -0.18155657
     atom   13 type  3   force =    -0.22461618   -0.00592335    0.21173522
     atom   14 type  3   force =     0.21596946    0.00080345   -0.21951147
     atom   15 type  3   force =     0.22389973    0.00665457    0.20822293
     atom   16 type  3   force =     0.22922830   -0.02879262   -0.17467375
     atom   17 type  3   force =     0.23648880   -0.01230204    0.20450266
     atom   18 type  4   force =    -0.02061521    0.07065793   -0.06579749
     atom   19 type  4   force =     0.06647883    0.00535886    0.06633296
     atom   20 type  4   force =     0.06223598   -0.01137720   -0.06189212
     atom   21 type  4   force =    -0.06681038    0.00513393    0.06018864
     atom   22 type  4   force =    -0.06309921   -0.01342310   -0.05143844
     atom   23 type  5   force =    -0.03723988   -0.00438064   -0.00009514
     The ionic contribution  to forces
     atom    1 type  1   force =    -0.11290090   -4.70530116   14.35997634
     atom    2 type  1   force =   -34.50452503   -6.11011284    0.77915336
     atom    3 type  1   force =   -34.44820700    6.26663014   -0.71180371
     atom    4 type  1   force =    34.40054687   -6.07683043    0.77856940
     atom    5 type  1   force =    33.59014205    7.04606586   -0.70372854
     atom    6 type  2   force =    -0.11946459   -3.66688348  -14.28716685
     atom    7 type  2   force =    -0.38065704    3.57300933   14.49103275
     atom    8 type  3   force =   -46.20795723   -0.08882810   -0.06582653
     atom    9 type  3   force =    45.21954808   -1.00496522   -0.06647668
     atom   10 type  3   force =   -31.10123281   -2.07385059  -23.62982971
     atom   11 type  3   force =   -30.16984117   -0.82134186   22.63199267
     atom   12 type  3   force =   -30.27686151    0.85428503  -22.73992162
     atom   13 type  3   force =   -31.06922737    2.24472004   23.67260767
     atom   14 type  3   force =    31.04624133   -2.06543045  -23.67469127
     atom   15 type  3   force =    30.11530387   -0.81269815   22.67683598
     atom   16 type  3   force =    30.12893074    0.94737402  -22.92372306
     atom   17 type  3   force =    30.91878269    2.33860613   23.85860053
     atom   18 type  4   force =    -0.35486678    4.34715922  -14.37659773
     atom   19 type  4   force =   -31.10859904    0.89530110  -26.11781746
     atom   20 type  4   force =   -31.07998928   -1.02393673   26.09714113
     atom   21 type  4   force =    30.98286087    0.81038277  -26.28946415
     atom   22 type  4   force =    30.95361546   -1.10818768   26.27117429
     atom   23 type  5   force =     3.57835778    0.23483303   -0.03003681
     The local contribution  to forces
     atom    1 type  1   force =     0.10559230    4.68259810  -14.37361743
     atom    2 type  1   force =    34.63442689    6.24008409   -0.80510215
     atom    3 type  1   force =    34.56947554   -6.39827141    0.73426349
     atom    4 type  1   force =   -34.52038981    6.22901693   -0.80273379
     atom    5 type  1   force =   -33.61834515   -7.25888454    0.72823370
     atom    6 type  2   force =     0.10259198    3.71037660   14.35138657
     atom    7 type  2   force =     0.38226398   -3.63589051  -14.55706818
     atom    8 type  3   force =    46.35622849    0.08623384    0.05607743
     atom    9 type  3   force =   -45.23856116    1.09848977    0.06593347
     atom   10 type  3   force =    31.31198696    2.02252745   23.79711384
     atom   11 type  3   force =    30.39149891    0.77214416  -22.79571673
     atom   12 type  3   force =    30.49600741   -0.78437899   22.87677474
     atom   13 type  3   force =    31.29197196   -2.20136434  -23.83210066
     atom   14 type  3   force =   -31.25385852    2.01282348   23.84521225
     atom   15 type  3   force =   -30.33354750    0.76093805  -22.84063604
     atom   16 type  3   force =   -30.36373462   -0.86098976   23.05134015
     atom   17 type  3   force =   -31.15474205   -2.27878263  -24.01026145
     atom   18 type  4   force =     0.35774954   -4.38850921   14.41383384
     atom   19 type  4   force =    30.90934094   -0.90231417   25.93336594
     atom   20 type  4   force =    30.88192045    1.04126369  -25.90964616
     atom   21 type  4   force =   -30.78919361   -0.82108719   26.10680274
     atom   22 type  4   force =   -30.75696702    1.12040629  -26.09107022
     atom   23 type  5   force =    -3.57044664   -0.23780073    0.02877226
     The core correction contribution to forces
     atom    1 type  1   force =    -0.00059841    0.00349990   -0.00184951
     atom    2 type  1   force =    -0.01069957   -0.00091535    0.00108506
     atom    3 type  1   force =    -0.01072302    0.00210654   -0.00163990
     atom    4 type  1   force =     0.01032658   -0.00249076    0.00098239
     atom    5 type  1   force =    -0.00006110    0.01249608   -0.00167099
     atom    6 type  2   force =    -0.00041141    0.00294329    0.00301969
     atom    7 type  2   force =     0.00069563   -0.00383237   -0.00228412
     atom    8 type  3   force =    -0.02993977    0.00124039   -0.00061111
     atom    9 type  3   force =     0.01907276   -0.00861238   -0.00144176
     atom   10 type  3   force =    -0.02323584    0.00794622   -0.01708535
     atom   11 type  3   force =    -0.02558857    0.00827601    0.01783421
     atom   12 type  3   force =    -0.02264747   -0.00961875   -0.01478992
     atom   13 type  3   force =    -0.02334527   -0.00845944    0.01599798
     atom   14 type  3   force =     0.02248379    0.00864864   -0.01645250
     atom   15 type  3   force =     0.02393916    0.00953538    0.01718207
     atom   16 type  3   force =     0.02501701   -0.01073428   -0.01300113
     atom   17 type  3   force =     0.02454323   -0.00910300    0.01427056
     atom   18 type  4   force =     0.00102170   -0.00386493    0.00313037
     atom   19 type  4   force =    -0.01012920    0.00025434   -0.00929541
     atom   20 type  4   force =    -0.00999985    0.00022591    0.00921755
     atom   21 type  4   force =     0.01029220    0.00046012   -0.00876651
     atom   22 type  4   force =     0.01013354    0.00041842    0.00844454
     atom   23 type  5   force =     0.00000000    0.00000000    0.00000000
     The Hubbard contrib.    to forces
     atom    1 type  1   force =     0.00000000    0.00000000    0.00000000
     atom    2 type  1   force =     0.00000000    0.00000000    0.00000000
     atom    3 type  1   force =     0.00000000    0.00000000    0.00000000
     atom    4 type  1   force =     0.00000000    0.00000000    0.00000000
     atom    5 type  1   force =     0.00000000    0.00000000    0.00000000
     atom    6 type  2   force =     0.00000000    0.00000000    0.00000000
     atom    7 type  2   force =     0.00000000    0.00000000    0.00000000
     atom    8 type  3   force =     0.00000000    0.00000000    0.00000000
     atom    9 type  3   force =     0.00000000    0.00000000    0.00000000
     atom   10 type  3   force =     0.00000000    0.00000000    0.00000000
     atom   11 type  3   force =     0.00000000    0.00000000    0.00000000
     atom   12 type  3   force =     0.00000000    0.00000000    0.00000000
     atom   13 type  3   force =     0.00000000    0.00000000    0.00000000
     atom   14 type  3   force =     0.00000000    0.00000000    0.00000000
     atom   15 type  3   force =     0.00000000    0.00000000    0.00000000
     atom   16 type  3   force =     0.00000000    0.00000000    0.00000000
     atom   17 type  3   force =     0.00000000    0.00000000    0.00000000
     atom   18 type  4   force =     0.00000000    0.00000000    0.00000000
     atom   19 type  4   force =     0.00000000    0.00000000    0.00000000
     atom   20 type  4   force =     0.00000000    0.00000000    0.00000000
     atom   21 type  4   force =     0.00000000    0.00000000    0.00000000
     atom   22 type  4   force =     0.00000000    0.00000000    0.00000000
     atom   23 type  5   force =     0.00000000    0.00000000    0.00000000
     The SCF correction term to forces
     atom    1 type  1   force =     0.00000000    0.00000000   -0.00000000
     atom    2 type  1   force =     0.00000000    0.00000000    0.00000000
     atom    3 type  1   force =     0.00000000   -0.00000000    0.00000000
     atom    4 type  1   force =    -0.00000000    0.00000000    0.00000000
     atom    5 type  1   force =    -0.00000000   -0.00000000    0.00000000
     atom    6 type  2   force =     0.00000000    0.00000000    0.00000000
     atom    7 type  2   force =     0.00000000   -0.00000000    0.00000000
     atom    8 type  3   force =     0.00000000   -0.00000000    0.00000000
     atom    9 type  3   force =    -0.00000000   -0.00000000    0.00000000
     atom   10 type  3   force =     0.00000000    0.00000000    0.00000000
     atom   11 type  3   force =     0.00000000    0.00000000   -0.00000000
     atom   12 type  3   force =     0.00000000   -0.00000000    0.00000000
     atom   13 type  3   force =     0.00000000   -0.00000000   -0.00000000
     atom   14 type  3   force =    -0.00833286    0.01006877    0.00369109
     atom   15 type  3   force =    -0.00629981   -0.00041880   -0.00230529
     atom   16 type  3   force =    -0.00204103   -0.00477160    0.00374212
     atom   17 type  3   force =    -0.00617259   -0.00270136   -0.00675661
     atom   18 type  4   force =     0.00320398   -0.00545656    0.01498135
     atom   19 type  4   force =     0.00787467   -0.00355639    0.00875591
     atom   20 type  4   force =     0.00712089   -0.00104195   -0.01439474
     atom   21 type  4   force =    -0.00684770   -0.00347195    0.01012329
     atom   22 type  4   force =    -0.00788878    0.00152296   -0.01530225
     atom   23 type  5   force =    -0.00183788    0.00016547    0.00064156

     Total force =     0.392571     Total SCF correction =     0.038735

     Molecular Dynamics Calculation

     Starting temperature  =   300.00 K

     temperature is set once at start

     mass Hf               =   178.49
     mass Nb               =    92.91
     mass Ta               =   180.95
     mass Zr               =    91.22
     mass H                =     2.01
     Time step             =     4.20 a.u.,  0.2032 femto-seconds

     Entering Dynamics:    iteration =     1
                           time      =   0.0002 pico-seconds


ATOMIC_POSITIONS (angstrom)
Hf            2.6699999570        2.8271230292        6.6039642186    0   0   0
Hf            1.2529906802        1.2862841814        5.0584662261    0   0   0
Hf            1.2554868986        7.3898042948        5.0880677674    0   0   0
Hf            4.0870092338        1.2862841814        5.0584662261    0   0   0
Hf            4.0845130154        7.3898042948        5.0880677674    0   0   0
Nb            2.6699999570        2.7969306055        3.5155832167    0   0   0
Nb            2.6699999570        5.8763786763        6.6349979432    0   0   0
Ta            1.2093730560        4.3409278516        5.0711258323    0   0   0
Ta            4.1306268580        4.3409278516        5.0711258323    0   0   0
Ta            1.3072526841        1.3141225894        2.0587791101    0   0   0
Ta            1.3027883142        1.3083911360        8.0945792024    0   0   0
Ta            1.3040096221        7.3758261241        2.0462371798    0   0   0
Ta            1.3077107984        7.3650829484        8.0860022208    0   0   0
Ta            4.0327478686        1.3141216538        2.0587773742
Ta            4.0372122609        1.3083901183        8.0945808922
Ta            4.0359907862        7.3758273159        2.0462355977
Ta            4.0322896523        7.3650839600        8.0860039405
Zr            2.6699992025        5.8662869669        3.5273833670
Zr            1.2438270426        4.3220776878        1.9999933623
Zr            1.2403776299        4.3541235742        8.1497623325
Zr            4.0961726131        4.3220774843        1.9999932243
Zr            4.0996221277        4.3541233274        8.1497624101
H             5.3160799903        5.8399817570        5.0721790170


     kinetic energy (Ekin) =          18.37431130 Ry
     temperature           =      193404.95351811 K 
     Ekin + Etot (const)   =       -2924.75195200 Ry

     File outdir/pwscf.msd.dat deleted, as requested

     Writing config-only to output data dir outdir/pwscf.save/
     NEW-OLD atomic charge density approx. for the potential

     Check: negative core charge=   -0.000002

     negative rho (up, down):  9.080E-01 9.080E-01
     Generating pointlists ...
     new r_m :   0.0979 (alat units)  1.5432 (a.u.) for type    1
     new r_m :   0.0945 (alat units)  1.4898 (a.u.) for type    3
     new r_m :   0.0945 (alat units)  1.4898 (a.u.) for type    5

     total cpu time spent up to now is      640.8 secs

     Self-consistent Calculation

     iteration #  1     ecut=   120.00 Ry     beta= 0.70
     Davidson diagonalization with overlap
     ethr =  1.00E-06,  avg # of iterations = 11.5

     negative rho (up, down):  9.082E-01 9.082E-01

     total cpu time spent up to now is      727.1 secs

     total energy              =   -2943.12688987 Ry
     estimated scf accuracy    <       0.06858349 Ry

     total magnetization       =     0.01 Bohr mag/cell
     absolute magnetization    =     0.02 Bohr mag/cell

     iteration #  2     ecut=   120.00 Ry     beta= 0.70
     Davidson diagonalization with overlap
     ethr =  2.48E-05,  avg # of iterations =  2.0

     negative rho (up, down):  9.082E-01 9.082E-01

     total cpu time spent up to now is      770.8 secs

     total energy              =   -2943.13067759 Ry
     estimated scf accuracy    <       0.02604244 Ry

     total magnetization       =     0.01 Bohr mag/cell
     absolute magnetization    =     0.02 Bohr mag/cell

     iteration #  3     ecut=   120.00 Ry     beta= 0.70
     Davidson diagonalization with overlap
     ethr =  9.40E-06,  avg # of iterations =  1.0

     negative rho (up, down):  9.081E-01 9.081E-01

     total cpu time spent up to now is      807.2 secs

     total energy              =   -2943.13214293 Ry
     estimated scf accuracy    <       0.00327491 Ry

     total magnetization       =     0.01 Bohr mag/cell
     absolute magnetization    =     0.02 Bohr mag/cell

     iteration #  4     ecut=   120.00 Ry     beta= 0.70
     Davidson diagonalization with overlap
     ethr =  1.18E-06,  avg # of iterations =  2.0

     negative rho (up, down):  9.080E-01 9.080E-01

     Magnetic moment per site  (integrated on atomic sphere of radius R)
     atom   1 (R=0.098)  charge=  7.4811   -0.0000
     atom   2 (R=0.098)  charge=  7.3387    0.0000
     atom   3 (R=0.098)  charge=  7.3383    0.0000
     atom   4 (R=0.098)  charge=  7.3380    0.0000
     atom   5 (R=0.098)  charge=  7.3420    0.0000
     atom   6 (R=0.123)  charge= 10.3502   -0.0001
     atom   7 (R=0.123)  charge= 10.3490    0.0000
     atom   8 (R=0.095)  charge=  7.7248   -0.0000
     atom   9 (R=0.095)  charge=  7.7247    0.0000
     atom  10 (R=0.095)  charge=  7.7063   -0.0000
     atom  11 (R=0.095)  charge=  7.7063    0.0002
     atom  12 (R=0.095)  charge=  7.7059    0.0003
     atom  13 (R=0.095)  charge=  7.7078    0.0001
     atom  14 (R=0.095)  charge=  7.7075    0.0002
     atom  15 (R=0.095)  charge=  7.7060    0.0003
     atom  16 (R=0.095)  charge=  7.7095    0.0004
     atom  17 (R=0.095)  charge=  7.7093    0.0001
     atom  18 (R=0.125)  charge=  9.4567   -0.0000
     atom  19 (R=0.125)  charge=  8.9943    0.0001
     atom  20 (R=0.125)  charge=  8.9951    0.0006
     atom  21 (R=0.125)  charge=  8.9987    0.0002
     atom  22 (R=0.125)  charge=  8.9975    0.0008
     atom  23 (R=0.095)  charge=  1.0792    0.0000

     total cpu time spent up to now is      849.8 secs

     End of self-consistent calculation

 ------ SPIN UP ------------


          k = 0.0000 0.0000 0.0000 ( 55051 PWs)   bands (ev):

   -59.4907 -59.4896 -59.4452 -59.4450 -59.4137 -59.4107 -59.3699 -59.3667
   -59.2657 -59.1163 -53.0730 -52.9780 -52.9381 -52.7891 -51.3782 -44.9519
   -44.9441 -40.3474 -40.3400 -40.2556 -40.2467 -38.5203 -26.4967 -26.4911
   -26.4111 -26.4043 -26.3146 -26.3036 -26.1886 -26.1765 -26.1162 -26.0370
   -26.0191 -25.9727 -25.9688 -25.9471 -25.9284 -25.8936 -25.8694 -25.8617
   -25.8191 -25.7622 -25.7222 -25.6828 -25.6728 -25.6683 -25.6628 -25.6466
   -25.6037 -25.5982 -25.5729 -25.5710 -22.8443 -22.6121 -22.3321 -22.2204
   -21.9891 -21.8585 -21.8081 -21.7096 -21.6057 -21.4998 -21.4817 -21.2383
   -21.1971 -21.1411 -21.0788 -21.0197 -20.9616 -20.9019 -20.4422 -20.3734
   -20.3156 -18.9059 -18.6342 -18.5607 -18.5460 -18.3243 -18.3145 -18.3085
   -18.2972 -18.2820 -18.2431 -18.0707 -18.0628 -16.8674 -16.6701 -16.5285
     2.5842   3.7665   4.2112   4.4400   4.6273   4.7718   4.8368   4.9303
     4.9806   5.1736   5.2235   5.3849   5.4771   5.7958   5.8661   5.9844
     6.0596   6.1619   6.3302   6.3914   6.4837   6.5545   6.5749   6.6479
     6.7179   6.8452   6.8929   6.9944   7.0263   7.0449   7.0532   7.1535
     7.2657   7.3410   7.4565   7.5072   7.5638   7.5733   7.6401   7.6716
     7.7211   7.8844   7.9971   8.0200   8.1917   8.2380   8.2698   8.3934
     8.4466   8.5204   8.5875   8.5987   8.6042   8.7325   8.8059   8.8688
     8.9020   9.0931   9.1646   9.2414   9.3520   9.3706   9.5788   9.5921
     9.6207   9.6354   9.6502   9.6853   9.8199   9.9458   9.9999  10.0028
    10.2223  10.2509  10.4046  10.4202  10.4481  10.5143  10.5665

 ------ SPIN DOWN ----------


          k = 0.0000 0.0000 0.0000 ( 55051 PWs)   bands (ev):

   -59.4906 -59.4893 -59.4451 -59.4448 -59.4133 -59.4105 -59.3696 -59.3666
   -59.2657 -59.1164 -53.0730 -52.9780 -52.9381 -52.7891 -51.3782 -44.9519
   -44.9442 -40.3473 -40.3393 -40.2550 -40.2465 -38.5203 -26.4964 -26.4908
   -26.4107 -26.4041 -26.3144 -26.3034 -26.1882 -26.1761 -26.1162 -26.0368
   -26.0189 -25.9725 -25.9686 -25.9469 -25.9280 -25.8935 -25.8690 -25.8615
   -25.8191 -25.7622 -25.7221 -25.6827 -25.6726 -25.6680 -25.6625 -25.6463
   -25.6034 -25.5978 -25.5726 -25.5706 -22.8443 -22.6121 -22.3321 -22.2204
   -21.9892 -21.8585 -21.8081 -21.7096 -21.6057 -21.4999 -21.4817 -21.2383
   -21.1972 -21.1411 -21.0788 -21.0197 -20.9616 -20.9019 -20.4422 -20.3734
   -20.3157 -18.9058 -18.6332 -18.5606 -18.5459 -18.3237 -18.3142 -18.3080
   -18.2968 -18.2814 -18.2425 -18.0706 -18.0619 -16.8674 -16.6701 -16.5285
     2.5844   3.7666   4.2117   4.4401   4.6274   4.7722   4.8370   4.9305
     4.9807   5.1738   5.2240   5.3851   5.4775   5.7960   5.8663   5.9848
     6.0598   6.1622   6.3306   6.3916   6.4839   6.5548   6.5752   6.6484
     6.7182   6.8454   6.8930   6.9948   7.0267   7.0452   7.0533   7.1537
     7.2659   7.3415   7.4567   7.5075   7.5640   7.5736   7.6407   7.6718
     7.7214   7.8847   7.9974   8.0202   8.1921   8.2384   8.2706   8.3940
     8.4475   8.5216   8.5880   8.6000   8.6050   8.7337   8.8067   8.8695
     8.9025   9.0937   9.1651   9.2418   9.3525   9.3714   9.5793   9.5924
     9.6216   9.6360   9.6508   9.6856   9.8204   9.9464  10.0003  10.0032
    10.2226  10.2516  10.4054  10.4208  10.4485  10.5144  10.5672

     the Fermi energy is     8.5529 ev

!    total energy              =   -2943.13203590 Ry
     estimated scf accuracy    <       0.00056371 Ry
     smearing contrib. (-TS)   =      -0.10478420 Ry
     internal energy E=F+TS    =   -2943.02725170 Ry

     total magnetization       =     0.01 Bohr mag/cell
     absolute magnetization    =     0.02 Bohr mag/cell

     convergence has been achieved in   4 iterations

     negative rho (up, down):  9.080E-01 9.080E-01

     Forces acting on atoms (cartesian axes, Ry/au):

     atom    1 type  1   force =    -0.00564219   -0.02668688    0.01147871
     atom    2 type  1   force =    -0.12285019   -0.01878440    0.00061123
     atom    3 type  1   force =    -0.12144283    0.01622620    0.00773580
     atom    4 type  1   force =     0.12771208   -0.00066275    0.00055725
     atom    5 type  1   force =     0.12257785   -0.01260098    0.01113889
     atom    6 type  2   force =    -0.00348164   -0.01662669    0.00826055
     atom    7 type  2   force =    -0.01373728    0.00955859   -0.00810857
     atom    8 type  3   force =    -0.10947806    0.00391828   -0.00335267
     atom    9 type  3   force =     0.13339431    0.03049860   -0.00291793
     atom   10 type  3   force =    -0.02431385   -0.02607838   -0.06009062
     atom   11 type  3   force =    -0.02371605   -0.03246980    0.05381008
     atom   12 type  3   force =    -0.01185579    0.03279202   -0.05752611
     atom   13 type  3   force =    -0.01476257    0.02816702    0.05830127
     atom   14 type  3   force =     0.01975869   -0.03134556   -0.06436199
     atom   15 type  3   force =     0.02059376   -0.03778140    0.05911878
     atom   16 type  3   force =     0.01659086    0.04282875   -0.05910711
     atom   17 type  3   force =     0.01663472    0.03653061    0.05930013
     atom   18 type  4   force =    -0.01228381    0.01782225   -0.00719969
     atom   19 type  4   force =    -0.13232726   -0.00692897   -0.11737817
     atom   20 type  4   force =    -0.13718460    0.00371492    0.11529696
     atom   21 type  4   force =     0.12655637   -0.00920922   -0.11934314
     atom   22 type  4   force =     0.13299445    0.00148865    0.11651359
     atom   23 type  5   force =     0.01626304   -0.00437085   -0.00273726
     The non-local contrib.  to forces
     atom    1 type  1   force =     0.00095969   -0.00943964    0.03012317
     atom    2 type  1   force =    -0.25404601   -0.15929084    0.01820470
     atom    3 type  1   force =    -0.24009185    0.15433849   -0.02483416
     atom    4 type  1   force =     0.24549872   -0.17687140    0.01860982
     atom    5 type  1   force =     0.16962223    0.20224208   -0.02362188
     atom    6 type  2   force =     0.00893574   -0.06046855   -0.07190180
     atom    7 type  2   force =    -0.01268714    0.07791455    0.06012074
     atom    8 type  3   force =    -0.25471874    0.00599477   -0.00274632
     atom    9 type  3   force =     0.17072927   -0.04945669   -0.00912938
     atom   10 type  3   force =    -0.22285405    0.00866817   -0.21431634
     atom   11 type  3   force =    -0.22770907    0.00803975    0.20495870
     atom   12 type  3   force =    -0.21051855   -0.02594420   -0.18404836
     atom   13 type  3   force =    -0.21940431   -0.00728187    0.21218576
     atom   14 type  3   force =     0.21674690    0.00408991   -0.22249075
     atom   15 type  3   force =     0.22446050    0.00710002    0.20963682
     atom   16 type  3   force =     0.22692118   -0.02959951   -0.17764606
     atom   17 type  3   force =     0.23113396   -0.01245357    0.20668343
     atom   18 type  4   force =    -0.01425290    0.06991480   -0.06154783
     atom   19 type  4   force =     0.06864941    0.00382415    0.07059965
     atom   20 type  4   force =     0.06343767   -0.01217389   -0.06682130
     atom   21 type  4   force =    -0.06866538    0.00578537    0.06287346
     atom   22 type  4   force =    -0.06369343   -0.01153735   -0.05413520
     atom   23 type  5   force =    -0.04649814   -0.00687724   -0.00041818
     The ionic contribution  to forces
     atom    1 type  1   force =    -0.13526530   -4.72588348   14.37299972
     atom    2 type  1   force =   -34.53138663   -6.11025140    0.77915870
     atom    3 type  1   force =   -34.53448413    6.26480245   -0.71181456
     atom    4 type  1   force =    34.41368618   -6.07021719    0.77846830
     atom    5 type  1   force =    33.49637847    7.39184670   -0.70016767
     atom    6 type  2   force =    -0.14296440   -3.68834098  -14.30099026
     atom    7 type  2   force =    -0.49865866    3.57470967   14.57051894
     atom    8 type  3   force =   -46.30354183   -0.08499153   -0.06582472
     atom    9 type  3   force =    45.10950616   -1.42002261   -0.06677730
     atom   10 type  3   force =   -31.11590590   -2.07383232  -23.62979052
     atom   11 type  3   force =   -30.18446983   -0.82132618   22.63192862
     atom   12 type  3   force =   -30.30856704    0.85428290  -22.73988425
     atom   13 type  3   force =   -31.10124361    2.24474711   23.67262604
     atom   14 type  3   force =    31.05293366   -2.06385967  -23.68218523
     atom   15 type  3   force =    30.12202787   -0.81109432   22.68429841
     atom   16 type  3   force =    30.14136711    0.96708861  -22.96264825
     atom   17 type  3   force =    30.93114282    2.35861504   23.89822537
     atom   18 type  4   force =    -0.46541465    4.34825640  -14.45021188
     atom   19 type  4   force =   -31.13709882    0.89578091  -26.11660910
     atom   20 type  4   force =   -31.10865597   -1.02342346   26.09586169
     atom   21 type  4   force =    30.99598181    0.79326435  -26.32384122
     atom   22 type  4   force =    30.96690281   -1.12515465   26.30602004
     atom   23 type  5   force =     4.33772987    0.32500366   -0.03936084
     The local contribution  to forces
     atom    1 type  1   force =     0.13001625    4.69959308  -14.38370445
     atom    2 type  1   force =    34.67877855    6.24903587   -0.78423345
     atom    3 type  1   force =    34.66998655   -6.39905982    0.76143354
     atom    4 type  1   force =   -34.54865451    6.25646823   -0.78628433
     atom    5 type  1   force =   -33.54949624   -7.62749293    0.75074469
     atom    6 type  2   force =     0.13535870    3.72446890   14.38959870
     atom    7 type  2   force =     0.50119176   -3.63592256  -14.62612056
     atom    8 type  3   force =    46.49302677    0.07843956    0.08016937
     atom    9 type  3   force =   -45.17621105    1.51707904    0.08714958
     atom   10 type  3   force =    31.34470313    2.03496778   23.80186289
     atom   11 type  3   force =    30.41757633    0.76754471  -22.80729220
     atom   12 type  3   force =    30.53347164   -0.78278435   22.88037329
     atom   13 type  3   force =    31.33194542   -2.19304700  -23.84828496
     atom   14 type  3   force =   -31.27603985    2.02184202   23.85548606
     atom   15 type  3   force =   -30.35357940    0.75029394  -22.85470264
     atom   16 type  3   force =   -30.37574297   -0.88164788   23.09028771
     atom   17 type  3   force =   -31.17091730   -2.29597795  -24.06220390
     atom   18 type  4   force =     0.47159682   -4.39915998   14.51421644
     atom   19 type  4   force =    30.95050346   -0.91162758   25.93902222
     atom   20 type  4   force =    30.91871462    1.03727572  -25.92836015
     atom   21 type  4   force =   -30.81208506   -0.81184806   26.15281649
     atom   22 type  4   force =   -30.77926439    1.13926122  -26.14947835
     atom   23 type  5   force =    -4.28074469   -0.32249204    0.03919603
     The core correction contribution to forces
     atom    1 type  1   force =    -0.00055395    0.00356430   -0.00185200
     atom    2 type  1   force =    -0.01056028   -0.00063187    0.00118223
     atom    3 type  1   force =    -0.01034566    0.00274896   -0.00162234
     atom    4 type  1   force =     0.01057626   -0.00369430    0.00112503
     atom    5 type  1   force =    -0.00078058    0.01188379   -0.00159419
     atom    6 type  2   force =    -0.00040599    0.00288605    0.00296934
     atom    7 type  2   force =     0.00052187   -0.00384306   -0.00225817
     atom    8 type  3   force =    -0.02940615    0.00080473   -0.00052548
     atom    9 type  3   force =     0.01667915   -0.00997862   -0.00145237
     atom   10 type  3   force =    -0.02382059    0.00822448   -0.01734888
     atom   11 type  3   force =    -0.02585061    0.00854909    0.01793525
     atom   12 type  3   force =    -0.02259621   -0.00992410   -0.01499689
     atom   13 type  3   force =    -0.02296450   -0.00879236    0.01617186
     atom   14 type  3   force =     0.02258953    0.00864176   -0.01727240
     atom   15 type  3   force =     0.02398483    0.00955191    0.01770983
     atom   16 type  3   force =     0.02474616   -0.01039000   -0.01329706
     atom   17 type  3   force =     0.02407369   -0.00889608    0.01453468
     atom   18 type  4   force =     0.00082425   -0.00384249    0.00306447
     atom   19 type  4   force =    -0.01011893    0.00029651   -0.00952237
     atom   20 type  4   force =    -0.01000311    0.00023419    0.00936700
     atom   21 type  4   force =     0.01024774    0.00037577   -0.00889750
     atom   22 type  4   force =     0.01008706    0.00031100    0.00844882
     atom   23 type  5   force =     0.00000000    0.00000000    0.00000000
     The Hubbard contrib.    to forces
     atom    1 type  1   force =     0.00000000    0.00000000    0.00000000
     atom    2 type  1   force =     0.00000000    0.00000000    0.00000000
     atom    3 type  1   force =     0.00000000    0.00000000    0.00000000
     atom    4 type  1   force =     0.00000000    0.00000000    0.00000000
     atom    5 type  1   force =     0.00000000    0.00000000    0.00000000
     atom    6 type  2   force =     0.00000000    0.00000000    0.00000000
     atom    7 type  2   force =     0.00000000    0.00000000    0.00000000
     atom    8 type  3   force =     0.00000000    0.00000000    0.00000000
     atom    9 type  3   force =     0.00000000    0.00000000    0.00000000
     atom   10 type  3   force =     0.00000000    0.00000000    0.00000000
     atom   11 type  3   force =     0.00000000    0.00000000    0.00000000
     atom   12 type  3   force =     0.00000000    0.00000000    0.00000000
     atom   13 type  3   force =     0.00000000    0.00000000    0.00000000
     atom   14 type  3   force =     0.00000000    0.00000000    0.00000000
     atom   15 type  3   force =     0.00000000    0.00000000    0.00000000
     atom   16 type  3   force =     0.00000000    0.00000000    0.00000000
     atom   17 type  3   force =     0.00000000    0.00000000    0.00000000
     atom   18 type  4   force =     0.00000000    0.00000000    0.00000000
     atom   19 type  4   force =     0.00000000    0.00000000    0.00000000
     atom   20 type  4   force =     0.00000000    0.00000000    0.00000000
     atom   21 type  4   force =     0.00000000    0.00000000    0.00000000
     atom   22 type  4   force =     0.00000000    0.00000000    0.00000000
     atom   23 type  5   force =     0.00000000    0.00000000    0.00000000
     The SCF correction term to forces
     atom    1 type  1   force =    -0.00000000    0.00000000   -0.00000000
     atom    2 type  1   force =    -0.00000000    0.00000000   -0.00000000
     atom    3 type  1   force =    -0.00000000   -0.00000000   -0.00000000
     atom    4 type  1   force =     0.00000000   -0.00000000   -0.00000000
     atom    5 type  1   force =     0.00000000    0.00000000   -0.00000000
     atom    6 type  2   force =    -0.00000000    0.00000000   -0.00000000
     atom    7 type  2   force =    -0.00000000   -0.00000000   -0.00000000
     atom    8 type  3   force =    -0.00000000    0.00000000   -0.00000000
     atom    9 type  3   force =     0.00000000   -0.00000000   -0.00000000
     atom   10 type  3   force =    -0.00000000   -0.00000000    0.00000000
     atom   11 type  3   force =    -0.00000000    0.00000000    0.00000000
     atom   12 type  3   force =    -0.00000000   -0.00000000    0.00000000
     atom   13 type  3   force =    -0.00000000   -0.00000000    0.00000000
     atom   14 type  3   force =     0.00364920   -0.00200162    0.00296069
     atom   15 type  3   force =     0.00382071    0.00642502    0.00303673
     atom   16 type  3   force =    -0.00057986   -0.00256450    0.00505692
     atom   17 type  3   force =     0.00132231   -0.00469886    0.00292090
     atom   18 type  4   force =    -0.00491656    0.00271149   -0.01186051
     atom   19 type  4   force =    -0.00414163    0.00485500   -0.00000820
     atom   20 type  4   force =    -0.00055705    0.00186033    0.00611009
     atom   21 type  4   force =     0.00119803    0.00327131   -0.00143401
     atom   22 type  4   force =    -0.00091683   -0.00133360    0.00651865
     atom   23 type  5   force =     0.00589677    0.00005273   -0.00129389

     Total force =     0.384027     Total SCF correction =     0.022490

     Entering Dynamics:    iteration =     2
                           time      =   0.0004 pico-seconds


ATOMIC_POSITIONS (angstrom)
Hf            2.6699999570        2.8271230292        6.6039642186    0   0   0
Hf            1.2529906802        1.2862841814        5.0584662261    0   0   0
Hf            1.2554868986        7.3898042948        5.0880677674    0   0   0
Hf            4.0870092338        1.2862841814        5.0584662261    0   0   0
Hf            4.0845130154        7.3898042948        5.0880677674    0   0   0
Nb            2.6699999570        2.7969306055        3.5155832167    0   0   0
Nb            2.6699999570        5.8763786763        6.6349979432    0   0   0
Ta            1.2093730560        4.3409278516        5.0711258323    0   0   0
Ta            4.1306268580        4.3409278516        5.0711258323    0   0   0
Ta            1.3072526841        1.3141225894        2.0587791101    0   0   0
Ta            1.3027883142        1.3083911360        8.0945792024    0   0   0
Ta            1.3040096221        7.3758261241        2.0462371798    0   0   0
Ta            1.3077107984        7.3650829484        8.0860022208    0   0   0
Ta            4.0327496257        1.3141189441        2.0587719954
Ta            4.0372140877        1.3083869622        8.0945859282
Ta            4.0359922195        7.3758309318        2.0462306702
Ta            4.0322911306        7.3650870392        8.0860090166
Zr            2.6699970689        5.8662900912        3.5273819952
Zr            1.2438046100        4.3220766332        1.9999735467
Zr            1.2403544455        4.3541242810        8.1497820600
Zr            4.0961941396        4.3220759702        1.9999730501
Zr            4.0996446854        4.3541235375        8.1497823517
H             5.0016158238        5.8399413371        5.0721643195


     kinetic energy (Ekin) =          18.37873519 Ry
     temperature           =      193451.51864618 K 
     Ekin + Etot (const)   =       -2924.75330072 Ry

     Writing config-only to output data dir outdir/pwscf.save/
     NEW-OLD atomic charge density approx. for the potential

     Check: negative core charge=   -0.000002

     negative rho (up, down):  9.079E-01 9.079E-01
     Generating pointlists ...
     new r_m :   0.0891 (alat units)  1.4039 (a.u.) for type    1
     new r_m :   0.0857 (alat units)  1.3514 (a.u.) for type    3
     new r_m :   0.0857 (alat units)  1.3514 (a.u.) for type    5

     total cpu time spent up to now is      874.8 secs

     Self-consistent Calculation

     iteration #  1     ecut=   120.00 Ry     beta= 0.70
     Davidson diagonalization with overlap
     ethr =  1.00E-06,  avg # of iterations = 11.5

     negative rho (up, down):  9.079E-01 9.079E-01

     total cpu time spent up to now is      959.2 secs

     total energy              =   -2943.09585008 Ry
     estimated scf accuracy    <       0.08502993 Ry

     total magnetization       =     0.01 Bohr mag/cell
     absolute magnetization    =     0.01 Bohr mag/cell

     iteration #  2     ecut=   120.00 Ry     beta= 0.70
     Davidson diagonalization with overlap
     ethr =  3.07E-05,  avg # of iterations =  2.0

     negative rho (up, down):  9.080E-01 9.080E-01

     total cpu time spent up to now is     1004.2 secs

     total energy              =   -2943.10005801 Ry
     estimated scf accuracy    <       0.04120998 Ry

     total magnetization       =     0.01 Bohr mag/cell
     absolute magnetization    =     0.01 Bohr mag/cell

     iteration #  3     ecut=   120.00 Ry     beta= 0.70
     Davidson diagonalization with overlap
     ethr =  1.49E-05,  avg # of iterations =  1.0

     negative rho (up, down):  9.080E-01 9.080E-01

     total cpu time spent up to now is     1040.7 secs

     total energy              =   -2943.10211446 Ry
     estimated scf accuracy    <       0.00302599 Ry

     total magnetization       =     0.01 Bohr mag/cell
     absolute magnetization    =     0.01 Bohr mag/cell

     iteration #  4     ecut=   120.00 Ry     beta= 0.70
     Davidson diagonalization with overlap
     ethr =  1.09E-06,  avg # of iterations =  2.0

     negative rho (up, down):  9.080E-01 9.080E-01

     Magnetic moment per site  (integrated on atomic sphere of radius R)
     atom   1 (R=0.089)  charge=  6.6116   -0.0000
     atom   2 (R=0.089)  charge=  6.5170    0.0000
     atom   3 (R=0.089)  charge=  6.5167    0.0000
     atom   4 (R=0.089)  charge=  6.5169    0.0000
     atom   5 (R=0.089)  charge=  6.5266    0.0000
     atom   6 (R=0.123)  charge= 10.3476    0.0000
     atom   7 (R=0.123)  charge= 10.3489   -0.0000
     atom   8 (R=0.086)  charge=  6.7904    0.0000
     atom   9 (R=0.086)  charge=  6.8001    0.0000
     atom  10 (R=0.086)  charge=  6.7742    0.0000
     atom  11 (R=0.086)  charge=  6.7709    0.0001
     atom  12 (R=0.086)  charge=  6.7755    0.0002
     atom  13 (R=0.086)  charge=  6.7723    0.0001
     atom  14 (R=0.086)  charge=  6.7731    0.0001
     atom  15 (R=0.086)  charge=  6.7718    0.0002
     atom  16 (R=0.086)  charge=  6.7743    0.0003
     atom  17 (R=0.086)  charge=  6.7727    0.0001
     atom  18 (R=0.125)  charge=  9.4559    0.0000
     atom  19 (R=0.125)  charge=  9.0001    0.0001
     atom  20 (R=0.125)  charge=  8.9914    0.0004
     atom  21 (R=0.125)  charge=  9.0040    0.0003
     atom  22 (R=0.125)  charge=  8.9930    0.0006
     atom  23 (R=0.086)  charge=  1.0725    0.0000

     total cpu time spent up to now is     1088.0 secs

     End of self-consistent calculation

 ------ SPIN UP ------------


          k = 0.0000 0.0000 0.0000 ( 55051 PWs)   bands (ev):

   -59.4857 -59.4796 -59.4379 -59.4346 -59.4131 -59.3960 -59.3664 -59.3522
   -59.2636 -59.0518 -53.0627 -52.9632 -52.9300 -52.7491 -51.3948 -44.9726
   -44.9313 -40.3555 -40.3328 -40.2552 -40.2493 -38.5209 -26.4924 -26.4824
   -26.4073 -26.3939 -26.3033 -26.2946 -26.1794 -26.1695 -26.1025 -26.0288
   -26.0098 -25.9636 -25.9578 -25.9408 -25.9206 -25.8913 -25.8641 -25.8476
   -25.8138 -25.7308 -25.6812 -25.6684 -25.6591 -25.6573 -25.6548 -25.6376
   -25.5948 -25.5915 -25.5682 -25.5587 -22.8367 -22.6030 -22.3246 -22.2167
   -21.9811 -21.8461 -21.7945 -21.6982 -21.5974 -21.4903 -21.4699 -21.2370
   -21.2042 -21.1381 -21.0788 -21.0123 -20.9559 -20.8954 -20.4505 -20.3829
   -20.3274 -18.9128 -18.6261 -18.5650 -18.5558 -18.3220 -18.3160 -18.3095
   -18.2986 -18.2795 -18.2401 -18.0786 -18.0533 -16.8676 -16.6722 -16.5285
     2.3013   3.4022   4.2165   4.4454   4.6361   4.7746   4.8411   4.9209
     4.9811   5.1821   5.2273   5.4298   5.4818   5.7944   5.8586   5.9887
     6.0583   6.1937   6.3347   6.3970   6.4974   6.5582   6.5806   6.6540
     6.7236   6.8468   6.8724   6.9992   7.0311   7.0435   7.0527   7.1786
     7.3080   7.3386   7.4607   7.5249   7.5698   7.5943   7.6388   7.6721
     7.7234   7.8905   7.9962   8.0182   8.1999   8.2282   8.2721   8.3945
     8.4675   8.5398   8.5867   8.5970   8.6101   8.7266   8.8076   8.8693
     8.9079   9.1114   9.1691   9.2458   9.3569   9.3752   9.5839   9.5998
     9.6268   9.6393   9.6527   9.6966   9.8298   9.9443   9.9953  10.0083
    10.2282  10.2567  10.4084  10.4272  10.4314  10.5145  10.5695

 ------ SPIN DOWN ----------


          k = 0.0000 0.0000 0.0000 ( 55051 PWs)   bands (ev):

   -59.4855 -59.4795 -59.4377 -59.4344 -59.4129 -59.3958 -59.3661 -59.3520
   -59.2636 -59.0518 -53.0627 -52.9631 -52.9300 -52.7490 -51.3948 -44.9726
   -44.9313 -40.3553 -40.3323 -40.2550 -40.2489 -38.5209 -26.4921 -26.4821
   -26.4070 -26.3936 -26.3030 -26.2944 -26.1790 -26.1691 -26.1025 -26.0286
   -26.0096 -25.9634 -25.9576 -25.9406 -25.9204 -25.8912 -25.8638 -25.8474
   -25.8138 -25.7308 -25.6810 -25.6681 -25.6589 -25.6572 -25.6545 -25.6373
   -25.5945 -25.5913 -25.5679 -25.5584 -22.8367 -22.6030 -22.3246 -22.2167
   -21.9810 -21.8460 -21.7944 -21.6981 -21.5974 -21.4902 -21.4698 -21.2370
   -21.2042 -21.1381 -21.0788 -21.0123 -20.9559 -20.8954 -20.4505 -20.3829
   -20.3274 -18.9127 -18.6254 -18.5649 -18.5557 -18.3217 -18.3157 -18.3093
   -18.2983 -18.2790 -18.2397 -18.0785 -18.0527 -16.8676 -16.6722 -16.5285
     2.3014   3.4024   4.2169   4.4456   4.6363   4.7750   4.8412   4.9210
     4.9813   5.1822   5.2277   5.4300   5.4821   5.7945   5.8589   5.9891
     6.0585   6.1939   6.3351   6.3972   6.4976   6.5585   6.5810   6.6545
     6.7240   6.8470   6.8725   6.9996   7.0315   7.0435   7.0530   7.1788
     7.3083   7.3390   7.4610   7.5253   7.5700   7.5946   7.6393   7.6723
     7.7238   7.8908   7.9965   8.0184   8.2002   8.2286   8.2729   8.3950
     8.4685   8.5409   8.5878   8.5977   8.6108   8.7277   8.8084   8.8700
     8.9084   9.1119   9.1695   9.2462   9.3574   9.3759   9.5843   9.6001
     9.6276   9.6398   9.6532   9.6969   9.8302   9.9449   9.9957  10.0087
    10.2285  10.2574  10.4089  10.4276  10.4318  10.5147  10.5702

     the Fermi energy is     8.5577 ev

!    total energy              =   -2943.10178659 Ry
     estimated scf accuracy    <       0.00072788 Ry
     smearing contrib. (-TS)   =      -0.10529108 Ry
     internal energy E=F+TS    =   -2942.99649551 Ry

     total magnetization       =     0.01 Bohr mag/cell
     absolute magnetization    =     0.01 Bohr mag/cell

     convergence has been achieved in   4 iterations

     negative rho (up, down):  9.080E-01 9.080E-01

     Forces acting on atoms (cartesian axes, Ry/au):

     atom    1 type  1   force =    -0.00373186   -0.02433805    0.00599302
     atom    2 type  1   force =    -0.12752925   -0.01681463   -0.01015603
     atom    3 type  1   force =    -0.12523474    0.01330654   -0.00461784
     atom    4 type  1   force =     0.13983866   -0.00055290   -0.00859687
     atom    5 type  1   force =     0.09341806    0.02232586    0.00226688
     atom    6 type  2   force =    -0.00066931   -0.01748178    0.01214070
     atom    7 type  2   force =    -0.01447483    0.00839773   -0.00461396
     atom    8 type  3   force =    -0.11203641    0.00407413   -0.00666400
     atom    9 type  3   force =     0.09280633   -0.01504776   -0.00624915
     atom   10 type  3   force =    -0.02837532   -0.02690429   -0.05596523
     atom   11 type  3   force =    -0.02625950   -0.02982660    0.05856547
     atom   12 type  3   force =    -0.01142090    0.03164484   -0.05426838
     atom   13 type  3   force =    -0.01470776    0.02522162    0.06378592
     atom   14 type  3   force =     0.02089763   -0.03121967   -0.06096978
     atom   15 type  3   force =     0.02207486   -0.03551505    0.06345951
     atom   16 type  3   force =     0.01645800    0.04146284   -0.05600260
     atom   17 type  3   force =     0.01833297    0.03551910    0.06486011
     atom   18 type  4   force =    -0.01471909    0.01613383   -0.01075099
     atom   19 type  4   force =    -0.13160527   -0.00515287   -0.11529769
     atom   20 type  4   force =    -0.13627424    0.00419540    0.11997018
     atom   21 type  4   force =     0.12564488   -0.00675490   -0.11643425
     atom   22 type  4   force =     0.13312706    0.00130163    0.12139297
     atom   23 type  5   force =     0.08444000    0.00602497   -0.00184798
     The non-local contrib.  to forces
     atom    1 type  1   force =     0.00109312   -0.00624969    0.02499951
     atom    2 type  1   force =    -0.25468124   -0.15828741    0.01117076
     atom    3 type  1   force =    -0.24064555    0.15198936   -0.03197676
     atom    4 type  1   force =     0.24907593   -0.18984120    0.01290025
     atom    5 type  1   force =     0.16733363    0.20672289   -0.02845715
     atom    6 type  2   force =     0.00771664   -0.05830118   -0.07257178
     atom    7 type  2   force =    -0.00621941    0.07682424    0.06285046
     atom    8 type  3   force =    -0.25568717    0.00621286   -0.00828127
     atom    9 type  3   force =     0.16741613   -0.04523443   -0.01259646
     atom   10 type  3   force =    -0.22775605    0.00875208   -0.21327430
     atom   11 type  3   force =    -0.23441572    0.01167580    0.20849198
     atom   12 type  3   force =    -0.20830168   -0.02761150   -0.18393165
     atom   13 type  3   force =    -0.21947753   -0.01086006    0.21557822
     atom   14 type  3   force =     0.21969836    0.00437739   -0.22046662
     atom   15 type  3   force =     0.22967357    0.00985929    0.21060703
     atom   16 type  3   force =     0.22239918   -0.02834650   -0.17778887
     atom   17 type  3   force =     0.22979957   -0.01194049    0.21013806
     atom   18 type  4   force =    -0.00956634    0.06736026   -0.07029134
     atom   19 type  4   force =     0.06631442    0.00535418    0.07152206
     atom   20 type  4   force =     0.06252781   -0.01155222   -0.06576197
     atom   21 type  4   force =    -0.06888486    0.00889253    0.06211194
     atom   22 type  4   force =    -0.06385201   -0.01008237   -0.05163162
     atom   23 type  5   force =    -0.04924508   -0.00996168   -0.00077070
     The ionic contribution  to forces
     atom    1 type  1   force =    -0.15216647   -4.75087663   14.38880629
     atom    2 type  1   force =   -34.55782596   -6.10931828    0.77914744
     atom    3 type  1   force =   -34.62157671    6.27491942   -0.71168434
     atom    4 type  1   force =    34.43401468   -6.06422391    0.77838167
     atom    5 type  1   force =    33.49197797    7.82929609   -0.69565157
     atom    6 type  2   force =    -0.16060569   -3.71432763  -14.31771424
     atom    7 type  2   force =    -0.62815672    3.57696965   14.68555285
     atom    8 type  3   force =   -46.39954083   -0.09405615   -0.06583583
     atom    9 type  3   force =    45.11140548   -1.94779236   -0.06715672
     atom   10 type  3   force =   -31.13013784   -2.07348421  -23.63133880
     atom   11 type  3   force =   -30.19866584   -0.82096783   22.63344871
     atom   12 type  3   force =   -30.33977924    0.85716381  -22.74548744
     atom   13 type  3   force =   -31.13273918    2.24767259   23.67832908
     atom   14 type  3   force =    31.06286773   -2.06235856  -23.68849246
     atom   15 type  3   force =    30.13197939   -0.80956338   22.69057165
     atom   16 type  3   force =    30.16488924    0.98521414  -22.99849764
     atom   17 type  3   force =    30.95476165    2.37705608   23.93478963
     atom   18 type  4   force =    -0.58722430    4.34963568  -14.55699541
     atom   19 type  4   force =   -31.16503559    0.89368371  -26.12015301
     atom   20 type  4   force =   -31.13676848   -1.02543910   26.09938120
     atom   21 type  4   force =    31.01871722    0.77776368  -26.35451257
     atom   22 type  4   force =    30.98990915   -1.14050213   26.33710112
     atom   23 type  5   force =     4.84970034    0.44353532   -0.05198961
     The local contribution  to forces
     atom    1 type  1   force =     0.14561052    4.73482996  -14.42231360
     atom    2 type  1   force =    34.68834595    6.25412855   -0.82368525
     atom    3 type  1   force =    34.73698534   -6.42038471    0.71465988
     atom    4 type  1   force =   -34.55326612    6.26794709   -0.81904027
     atom    5 type  1   force =   -33.57178781   -8.02449088    0.70571620
     atom    6 type  2   force =     0.14602655    3.76478142   14.37959666
     atom    7 type  2   force =     0.60888321   -3.65279878  -14.76613010
     atom    8 type  3   force =    46.56555422    0.09162682    0.04110204
     atom    9 type  3   force =   -45.21149387    1.98115341    0.04839256
     atom   10 type  3   force =    31.34123135    2.02900300   23.81133511
     atom   11 type  3   force =    30.42821118    0.78101751  -22.79847718
     atom   12 type  3   force =    30.54709000   -0.79676200   22.89436502
     atom   13 type  3   force =    31.35157584   -2.21526034  -23.83937105
     atom   14 type  3   force =   -31.28509884    2.02609451   23.87075479
     atom   15 type  3   force =   -30.36289871    0.76637227  -22.85412508
     atom   16 type  3   force =   -30.40017852   -0.91749532   23.13478672
     atom   17 type  3   force =   -31.18962897   -2.32880348  -24.08622286
     atom   18 type  4   force =     0.56857512   -4.40611176   14.58552117
     atom   19 type  4   force =    30.97397162   -0.89751033   25.94422872
     atom   20 type  4   force =    30.94284888    1.04272332  -25.91659441
     atom   21 type  4   force =   -30.83890844   -0.78971350   26.18703043
     atom   22 type  4   force =   -30.80340727    1.14934245  -26.16615443
     atom   23 type  5   force =    -4.71979784   -0.42829490    0.04713552
     The core correction contribution to forces
     atom    1 type  1   force =    -0.00033393    0.00326330   -0.00169539
     atom    2 type  1   force =    -0.01037154   -0.00035943    0.00106972
     atom    3 type  1   force =    -0.00978490    0.00356309   -0.00166807
     atom    4 type  1   force =     0.01125845   -0.00517358    0.00110091
     atom    5 type  1   force =    -0.00113985    0.00982327   -0.00145151
     atom    6 type  2   force =    -0.00036452    0.00286681    0.00304449
     atom    7 type  2   force =     0.00032980   -0.00379964   -0.00244591
     atom    8 type  3   force =    -0.02900572    0.00047210   -0.00046990
     atom    9 type  3   force =     0.01519629   -0.01008808   -0.00135284
     atom   10 type  3   force =    -0.02418136    0.00847370   -0.01703788
     atom   11 type  3   force =    -0.02635264    0.00882575    0.01792783
     atom   12 type  3   force =    -0.02218626   -0.01002398   -0.01500699
     atom   13 type  3   force =    -0.02283141   -0.00893956    0.01632075
     atom   14 type  3   force =     0.02270840    0.00845151   -0.01773868
     atom   15 type  3   force =     0.02439605    0.00945970    0.01824666
     atom   16 type  3   force =     0.02425085   -0.00978961   -0.01338171
     atom   17 type  3   force =     0.02389335   -0.00848777    0.01477096
     atom   18 type  4   force =     0.00056566   -0.00377098    0.00334115
     atom   19 type  4   force =    -0.01000889    0.00027720   -0.00955884
     atom   20 type  4   force =    -0.00994585    0.00022025    0.00939861
     atom   21 type  4   force =     0.01019160    0.00022485   -0.00884032
     atom   22 type  4   force =     0.01002806    0.00017263    0.00839831
     atom   23 type  5   force =     0.00000000    0.00000000    0.00000000
     The Hubbard contrib.    to forces
     atom    1 type  1   force =     0.00000000    0.00000000    0.00000000
     atom    2 type  1   force =     0.00000000    0.00000000    0.00000000
     atom    3 type  1   force =     0.00000000    0.00000000    0.00000000
     atom    4 type  1   force =     0.00000000    0.00000000    0.00000000
     atom    5 type  1   force =     0.00000000    0.00000000    0.00000000
     atom    6 type  2   force =     0.00000000    0.00000000    0.00000000
     atom    7 type  2   force =     0.00000000    0.00000000    0.00000000
     atom    8 type  3   force =     0.00000000    0.00000000    0.00000000
     atom    9 type  3   force =     0.00000000    0.00000000    0.00000000
     atom   10 type  3   force =     0.00000000    0.00000000    0.00000000
     atom   11 type  3   force =     0.00000000    0.00000000    0.00000000
     atom   12 type  3   force =     0.00000000    0.00000000    0.00000000
     atom   13 type  3   force =     0.00000000    0.00000000    0.00000000
     atom   14 type  3   force =     0.00000000    0.00000000    0.00000000
     atom   15 type  3   force =     0.00000000    0.00000000    0.00000000
     atom   16 type  3   force =     0.00000000    0.00000000    0.00000000
     atom   17 type  3   force =     0.00000000    0.00000000    0.00000000
     atom   18 type  4   force =     0.00000000    0.00000000    0.00000000
     atom   19 type  4   force =     0.00000000    0.00000000    0.00000000
     atom   20 type  4   force =     0.00000000    0.00000000    0.00000000
     atom   21 type  4   force =     0.00000000    0.00000000    0.00000000
     atom   22 type  4   force =     0.00000000    0.00000000    0.00000000
     atom   23 type  5   force =     0.00000000    0.00000000    0.00000000
     The SCF correction term to forces
     atom    1 type  1   force =     0.00000000   -0.00000000    0.00000000
     atom    2 type  1   force =     0.00000000   -0.00000000    0.00000000
     atom    3 type  1   force =     0.00000000    0.00000000    0.00000000
     atom    4 type  1   force =    -0.00000000   -0.00000000    0.00000000
     atom    5 type  1   force =     0.00000000    0.00000000    0.00000000
     atom    6 type  2   force =     0.00000000   -0.00000000    0.00000000
     atom    7 type  2   force =     0.00000000    0.00000000    0.00000000
     atom    8 type  3   force =     0.00000000   -0.00000000    0.00000000
     atom    9 type  3   force =     0.00000000    0.00000000    0.00000000
     atom   10 type  3   force =     0.00000000    0.00000000   -0.00000000
     atom   11 type  3   force =     0.00000000   -0.00000000   -0.00000000
     atom   12 type  3   force =     0.00000000    0.00000000   -0.00000000
     atom   13 type  3   force =     0.00000000    0.00000000   -0.00000000
     atom   14 type  3   force =    -0.00002928   -0.00766795   -0.00659817
     atom   15 type  3   force =    -0.00182670   -0.01152636   -0.00341210
     atom   16 type  3   force =     0.00434600    0.01199670   -0.00269244
     atom   17 type  3   force =    -0.00124390    0.00781133   -0.01018702
     atom   18 type  4   force =     0.01217951    0.00913721    0.02610210
     atom   19 type  4   force =     0.00240190   -0.00684105   -0.00290798
     atom   20 type  4   force =     0.00431215   -0.00164028   -0.00802461
     atom   21 type  4   force =     0.00377810   -0.00380588   -0.00379507
     atom   22 type  4   force =    -0.00030213    0.00248763   -0.00789177
     atom   23 type  5   force =     0.00303132    0.00086280    0.00220547

     Total force =     0.393788     Total SCF correction =     0.042106
     SCF correction compared to forces is large: reduce conv_thr to get better values

     Entering Dynamics:    iteration =     3
                           time      =   0.0006 pico-seconds


ATOMIC_POSITIONS (angstrom)
Hf            2.6699999570        2.8271230292        6.6039642186    0   0   0
Hf            1.2529906802        1.2862841814        5.0584662261    0   0   0
Hf            1.2554868986        7.3898042948        5.0880677674    0   0   0
Hf            4.0870092338        1.2862841814        5.0584662261    0   0   0
Hf            4.0845130154        7.3898042948        5.0880677674    0   0   0
Nb            2.6699999570        2.7969306055        3.5155832167    0   0   0
Nb            2.6699999570        5.8763786763        6.6349979432    0   0   0
Ta            1.2093730560        4.3409278516        5.0711258323    0   0   0
Ta            4.1306268580        4.3409278516        5.0711258323    0   0   0
Ta            1.3072526841        1.3141225894        2.0587791101    0   0   0
Ta            1.3027883142        1.3083911360        8.0945792024    0   0   0
Ta            1.3040096221        7.3758261241        2.0462371798    0   0   0
Ta            1.3077107984        7.3650829484        8.0860022208    0   0   0
Ta            4.0327525655        1.3141144674        2.0587631657
Ta            4.0372171638        1.3083817959        8.0945945560
Ta            4.0359945844        7.3758368945        2.0462225729
Ta            4.0322936465        7.3650921288        8.0860177638
Zr            2.6699932828        5.8662950269        3.5273794164
Zr            1.2437674022        4.3220750002        1.9999407867
Zr            1.2403159616        4.3541254588        8.1498152564
Zr            4.0962297722        4.3220736977        1.9999398039
Zr            4.0996821891        4.3541238936        8.1498159221
H             4.6875810537        5.8399315554        5.0721402248


     kinetic energy (Ekin) =          18.34886580 Ry
     temperature           =      193137.11847648 K 
     Ekin + Etot (const)   =       -2924.75292079 Ry

     Writing config-only to output data dir outdir/pwscf.save/
     NEW-OLD atomic charge density approx. for the potential

     Check: negative core charge=   -0.000002

     negative rho (up, down):  9.079E-01 9.079E-01
     Generating pointlists ...
     new r_m :   0.0823 (alat units)  1.2964 (a.u.) for type    1
     new r_m :   0.0791 (alat units)  1.2465 (a.u.) for type    3
[...]
   -26.4110 -26.3974 -26.3056 -26.2944 -26.1982 -26.1655 -26.1509 -26.1113
   -26.0340 -26.0188 -25.9665 -25.9611 -25.9421 -25.9225 -25.8946 -25.8674
   -25.8420 -25.8321 -25.7421 -25.7392 -25.6649 -25.6602 -25.6563 -25.6529
   -25.5961 -25.5926 -25.5708 -25.5541 -22.9924 -22.7468 -22.3942 -22.2866
   -22.0233 -21.9010 -21.8356 -21.7785 -21.6949 -21.6083 -21.5362 -21.3456
   -21.2782 -21.1691 -21.1115 -21.0812 -21.0048 -20.9637 -20.4575 -20.3892
   -20.3196 -18.8978 -18.6226 -18.5509 -18.5313 -18.3346 -18.3169 -18.2987
   -18.2902 -18.2792 -18.2365 -18.0646 -18.0529 -16.9323 -16.7127 -16.5599
     0.5783   3.0322   4.2174   4.4389   4.6412   4.7742   4.8229   4.8760
     4.9090   5.1629   5.2181   5.4500   5.5488   5.7472   5.8663   5.9633
     6.0254   6.1928   6.3075   6.3942   6.4232   6.5511   6.6023   6.6209
     6.6651   6.8333   6.8551   6.9379   6.9967   7.0297   7.0501   7.1916
     7.2801   7.4221   7.4545   7.5420   7.5563   7.5716   7.6336   7.6419
     7.8787   7.8988   7.9872   8.0475   8.2018   8.2150   8.2588   8.3784
     8.5046   8.5530   8.5745   8.6030   8.6851   8.8074   8.8183   8.8860
     8.9105   9.1310   9.1891   9.3183   9.3552   9.3856   9.5602   9.5876
     9.6236   9.6388   9.6554   9.7049   9.8431   9.8462   9.9777  10.0076
    10.1209  10.2003  10.2627  10.4055  10.4171  10.4333  10.4580

     the Fermi energy is     8.5764 ev

!    total energy              =   -2942.93758285 Ry
     estimated scf accuracy    <       0.00062478 Ry
     smearing contrib. (-TS)   =      -0.09988765 Ry
     internal energy E=F+TS    =   -2942.83769520 Ry

     total magnetization       =     0.00 Bohr mag/cell
     absolute magnetization    =     0.00 Bohr mag/cell

     convergence has been achieved in   5 iterations

     negative rho (up, down):  9.082E-01 9.082E-01

     Forces acting on atoms (cartesian axes, Ry/au):

     atom    1 type  1   force =    -0.00174401   -0.02849493    0.00770341
     atom    2 type  1   force =    -0.12453952   -0.01577839   -0.01466585
     atom    3 type  1   force =    -0.12862986    0.21612896    0.00413124
     atom    4 type  1   force =     0.12138962   -0.01285169   -0.00994532
     atom    5 type  1   force =     0.11741600    0.01026536   -0.00319746
     atom    6 type  2   force =    -0.00783995   -0.02104219    0.01566606
     atom    7 type  2   force =     0.01424248    0.01138862    0.01477291
     atom    8 type  3   force =    -0.12200052   -0.22182022   -0.00738886
     atom    9 type  3   force =     0.11418604    0.00219249   -0.00465710
     atom   10 type  3   force =    -0.02252107   -0.03394994   -0.05620532
     atom   11 type  3   force =    -0.02205668   -0.03467076    0.05756579
     atom   12 type  3   force =    -0.01543262    0.04361053   -0.05671306
     atom   13 type  3   force =    -0.01582109    0.03530389    0.06541947
     atom   14 type  3   force =     0.02717926   -0.03211362   -0.05790375
     atom   15 type  3   force =     0.02532623   -0.03318405    0.05873891
     atom   16 type  3   force =     0.01514005    0.03748212   -0.05491015
     atom   17 type  3   force =     0.01617138    0.02767951    0.06445004
     atom   18 type  4   force =     0.01486378    0.02224624   -0.03061563
     atom   19 type  4   force =    -0.12985693   -0.00700691   -0.11747676
     atom   20 type  4   force =    -0.13184478    0.00226865    0.12173189
     atom   21 type  4   force =     0.13069739   -0.00430510   -0.11531342
     atom   22 type  4   force =     0.13166060    0.00755010    0.11967952
     atom   23 type  5   force =    -0.00598580    0.02910134   -0.00086656
     The non-local contrib.  to forces
     atom    1 type  1   force =     0.00301375   -0.01188626    0.03279147
     atom    2 type  1   force =    -0.24297598   -0.21892936    0.00854022
     atom    3 type  1   force =    -0.22044456    0.14899309   -0.02268000
     atom    4 type  1   force =     0.24517554   -0.16467539    0.00998260
     atom    5 type  1   force =     0.24555399    0.15591300   -0.02904245
     atom    6 type  2   force =    -0.00096649   -0.05349169   -0.05956090
     atom    7 type  2   force =     0.00541385    0.05963363    0.06751486
     atom    8 type  3   force =    -0.21062702    0.07374130   -0.00403785
     atom    9 type  3   force =     0.26652541    0.00666745   -0.00717493
     atom   10 type  3   force =    -0.22574060    0.00140746   -0.20437308
     atom   11 type  3   force =    -0.23447622    0.01069089    0.19650373
     atom   12 type  3   force =    -0.20989491   -0.01960296   -0.18043077
     atom   13 type  3   force =    -0.21710899   -0.00730297    0.20993316
     atom   14 type  3   force =     0.22053804    0.00929971   -0.21168610
     atom   15 type  3   force =     0.23217498    0.01368268    0.20637167
     atom   16 type  3   force =     0.20228711   -0.02810860   -0.18701965
     atom   17 type  3   force =     0.21410485   -0.01094952    0.21738948
     atom   18 type  4   force =     0.00555246    0.05122071   -0.07092772
     atom   19 type  4   force =     0.06753018    0.00872448    0.06938112
     atom   20 type  4   force =     0.06496134   -0.01091321   -0.06150982
     atom   21 type  4   force =    -0.06300189    0.00752814    0.07463970
     atom   22 type  4   force =    -0.06128411   -0.00780837   -0.06865862
     atom   23 type  5   force =     0.01503586   -0.00967877   -0.00283473
     The ionic contribution  to forces
     atom    1 type  1   force =     0.15871442   -4.81708468   14.45164218
     atom    2 type  1   force =   -34.51506316   -6.04862269    0.77838415
     atom    3 type  1   force =   -34.47433807    8.85387515   -0.69164447
     atom    4 type  1   force =    34.61725269   -6.09506437    0.77912432
     atom    5 type  1   force =    34.89479293    6.37948367   -0.71140680
     atom    6 type  2   force =     0.16677071   -3.78031619  -14.38182451
     atom    7 type  2   force =     1.02730136    3.56180405   15.36442558
     atom    8 type  3   force =   -46.33455835   -3.05922158   -0.07779482
     atom    9 type  3   force =    46.68728537   -0.20505289   -0.06900035
     atom   10 type  3   force =   -31.09752093   -2.05681896  -23.68628738
     atom   11 type  3   force =   -30.16616241   -0.80358242   22.68846935
     atom   12 type  3   force =   -30.28057406    1.01497966  -23.04663012
     atom   13 type  3   force =   -31.06663120    2.40474516   23.98320979
     atom   14 type  3   force =    31.15247467   -2.05938601  -23.62703612
     atom   15 type  3   force =    30.22113433   -0.80682770   22.62925298
     atom   16 type  3   force =    30.41291168    0.87328307  -22.77802267
     atom   17 type  3   force =    31.20185817    2.26139613   23.70986833
     atom   18 type  4   force =     0.95582909    4.32576123  -15.18070955
     atom   19 type  4   force =   -31.10013113    0.75207994  -26.35483765
     atom   20 type  4   force =   -31.06953747   -1.16259897   26.33829585
     atom   21 type  4   force =    31.20894392    0.87126110  -26.11550877
     atom   22 type  4   force =    31.17914798   -1.04457407   26.09482816
     atom   23 type  5   force =    -3.77990054    0.64048136   -0.09679747
     The local contribution  to forces
     atom    1 type  1   force =    -0.16299192    4.80610333  -14.49306792
     atom    2 type  1   force =    34.65146547    6.26008582   -0.82709101
     atom    3 type  1   force =    34.57384425   -8.77939783    0.69290224
     atom    4 type  1   force =   -34.75429863    6.25084221   -0.82478924
     atom    5 type  1   force =   -35.03319106   -6.53136188    0.71364743
     atom    6 type  2   force =    -0.17348456    3.80564919   14.43182241
     atom    7 type  2   force =    -1.01491053   -3.61833343  -15.43047156
     atom    8 type  3   force =    46.45207120    2.75709054    0.05353375
     atom    9 type  3   force =   -46.87282124    0.19995461    0.05108893
     atom   10 type  3   force =    31.32431772    2.00364510   23.84854960
     atom   11 type  3   force =    30.40842497    0.75824769  -22.83477029
     atom   12 type  3   force =    30.49712068   -0.93367650   23.18213723
     atom   13 type  3   force =    31.29304673   -2.36168157  -24.13146156
     atom   14 type  3   force =   -31.36805169    2.00138281   23.79510007
     atom   15 type  3   force =   -30.45513811    0.75978766  -22.78438706
     atom   16 type  3   force =   -30.62198761   -0.79000158   22.92452165
     atom   17 type  3   force =   -31.42334061   -2.22251195  -23.86977653
     atom   18 type  4   force =    -0.94458602   -4.34814637   15.19383432
     atom   19 type  4   force =    30.90992890   -0.76815746   26.17487626
     atom   20 type  4   force =    30.89071491    1.17426911  -26.15796677
     atom   21 type  4   force =   -31.02096434   -0.88395845   25.93461950
     atom   22 type  4   force =   -31.00253571    1.05897916  -25.91156847
     atom   23 type  5   force =     3.75905272   -0.60216678    0.09508434
     The core correction contribution to forces
     atom    1 type  1   force =     0.00011837    0.00184002    0.00118178
     atom    2 type  1   force =    -0.01443242   -0.00610864    0.00046190
     atom    3 type  1   force =    -0.00591455   -0.00465390   -0.00041825
     atom    4 type  1   force =     0.01124930   -0.00162337    0.00074512
     atom    5 type  1   force =     0.01050282    0.00436580   -0.00130687
     atom    6 type  2   force =     0.00013293    0.00258218    0.00236162
     atom    7 type  2   force =    -0.00072056   -0.00295360   -0.00314402
     atom    8 type  3   force =    -0.02251964    0.00075780   -0.00038172
     atom    9 type  3   force =     0.03142396   -0.00062860   -0.00022645
     atom   10 type  3   force =    -0.02324365    0.00817407   -0.01570479
     atom   11 type  3   force =    -0.02517620    0.00940378    0.01611874
     atom   12 type  3   force =    -0.02255941   -0.00896388   -0.01452992
     atom   13 type  3   force =    -0.02227907   -0.00860403    0.01533991
     atom   14 type  3   force =     0.02241608    0.00882193   -0.01498521
     atom   15 type  3   force =     0.02414480    0.00920770    0.01593001
     atom   16 type  3   force =     0.02194534   -0.00901053   -0.01593534
     atom   17 type  3   force =     0.02222296   -0.00809346    0.01685695
     atom   18 type  4   force =    -0.00044826   -0.00273792    0.00351123
     atom   19 type  4   force =    -0.01012897    0.00009070   -0.00937446
     atom   20 type  4   force =    -0.01003076    0.00016528    0.00904225
     atom   21 type  4   force =     0.00977493    0.00011629   -0.00971905
     atom   22 type  4   force =     0.00973816    0.00000567    0.00951659
     atom   23 type  5   force =     0.00000000    0.00000000    0.00000000
     The Hubbard contrib.    to forces
     atom    1 type  1   force =     0.00000000    0.00000000    0.00000000
     atom    2 type  1   force =     0.00000000    0.00000000    0.00000000
     atom    3 type  1   force =     0.00000000    0.00000000    0.00000000
     atom    4 type  1   force =     0.00000000    0.00000000    0.00000000
     atom    5 type  1   force =     0.00000000    0.00000000    0.00000000
     atom    6 type  2   force =     0.00000000    0.00000000    0.00000000
     atom    7 type  2   force =     0.00000000    0.00000000    0.00000000
     atom    8 type  3   force =     0.00000000    0.00000000    0.00000000
     atom    9 type  3   force =     0.00000000    0.00000000    0.00000000
     atom   10 type  3   force =     0.00000000    0.00000000    0.00000000
     atom   11 type  3   force =     0.00000000    0.00000000    0.00000000
     atom   12 type  3   force =     0.00000000    0.00000000    0.00000000
     atom   13 type  3   force =     0.00000000    0.00000000    0.00000000
     atom   14 type  3   force =     0.00000000    0.00000000    0.00000000
     atom   15 type  3   force =     0.00000000    0.00000000    0.00000000
     atom   16 type  3   force =     0.00000000    0.00000000    0.00000000
     atom   17 type  3   force =     0.00000000    0.00000000    0.00000000
     atom   18 type  4   force =     0.00000000    0.00000000    0.00000000
     atom   19 type  4   force =     0.00000000    0.00000000    0.00000000
     atom   20 type  4   force =     0.00000000    0.00000000    0.00000000
     atom   21 type  4   force =     0.00000000    0.00000000    0.00000000
     atom   22 type  4   force =     0.00000000    0.00000000    0.00000000
     atom   23 type  5   force =     0.00000000    0.00000000    0.00000000
     The SCF correction term to forces
     atom    1 type  1   force =    -0.00000000   -0.00000000    0.00000000
     atom    2 type  1   force =    -0.00000000   -0.00000000    0.00000000
     atom    3 type  1   force =    -0.00000000   -0.00000000    0.00000000
     atom    4 type  1   force =     0.00000000   -0.00000000    0.00000000
     atom    5 type  1   force =    -0.00000000    0.00000000    0.00000000
     atom    6 type  2   force =    -0.00000000    0.00000000    0.00000000
     atom    7 type  2   force =    -0.00000000    0.00000000    0.00000000
     atom    8 type  3   force =    -0.00000000    0.00000000    0.00000000
     atom    9 type  3   force =     0.00000000    0.00000000    0.00000000
     atom   10 type  3   force =    -0.00000000    0.00000000   -0.00000000
     atom   11 type  3   force =    -0.00000000   -0.00000000   -0.00000000
     atom   12 type  3   force =     0.00000000   -0.00000000    0.00000000
     atom   13 type  3   force =    -0.00000000    0.00000000   -0.00000000
     atom   14 type  3   force =    -0.00003600    0.00785927   -0.00119144
     atom   15 type  3   force =     0.00317207   -0.00894306   -0.01032375
     atom   16 type  3   force =     0.00014537   -0.00858891   -0.00034920
     atom   17 type  3   force =     0.00148785    0.00792963   -0.01178325
     atom   18 type  4   force =    -0.00132167   -0.00376008    0.02178103
     atom   19 type  4   force =     0.00310592    0.00034675    0.00058292
     atom   20 type  4   force =    -0.00779096    0.00143777   -0.00802468
     atom   21 type  4   force =    -0.00389340    0.00083915   -0.00123985
     atom   22 type  4   force =     0.00675610    0.00103904   -0.00633320
     atom   23 type  5   force =    -0.00001201    0.00055686    0.00178625

     Total force =     0.384337     Total SCF correction =     0.035679

     Entering Dynamics:    iteration =    15
                           time      =   0.0030 pico-seconds


ATOMIC_POSITIONS (angstrom)
Hf            2.6699999570        2.8271230292        6.6039642186    0   0   0
Hf            1.2529906802        1.2862841814        5.0584662261    0   0   0
Hf            1.2554868986        7.3898042948        5.0880677674    0   0   0
Hf            4.0870092338        1.2862841814        5.0584662261    0   0   0
Hf            4.0845130154        7.3898042948        5.0880677674    0   0   0
Nb            2.6699999570        2.7969306055        3.5155832167    0   0   0
Nb            2.6699999570        5.8763786763        6.6349979432    0   0   0
Ta            1.2093730560        4.3409278516        5.0711258323    0   0   0
Ta            4.1306268580        4.3409278516        5.0711258323    0   0   0
Ta            1.3072526841        1.3141225894        2.0587791101    0   0   0
Ta            1.3027883142        1.3083911360        8.0945792024    0   0   0
Ta            1.3040096221        7.3758261241        2.0462371798    0   0   0
Ta            1.3077107984        7.3650829484        8.0860022208    0   0   0
Ta            4.0328888622        1.3139216813        2.0583915447
Ta            4.0373524384        1.3081590630        8.0949468124
Ta            4.0361020612        7.3760824783        2.0458767378
Ta            4.0324046147        7.3653044191        8.0863869768
Zr            2.6698337446        5.8665527554        3.5265410288
Zr            1.2421592697        4.3220040514        1.9985214167
Zr            1.2386548387        4.3541861840        8.1512497540
Zr            4.0978094312        4.3219904333        1.9985078543
Zr            4.1013258296        4.3541596287        8.1512608985
H             0.9300766382        5.8464956134        5.0776463523


     kinetic energy (Ekin) =          18.19600552 Ry
     temperature           =      191528.13650986 K 
     Ekin + Etot (const)   =       -2924.74157732 Ry

     The maximum number of steps has been reached.

     End of molecular dynamics calculation

     diffusion coefficients :
     atom     1   D =       0.00000000 cm^2/s
     atom     2   D =       0.00000000 cm^2/s
     atom     3   D =       0.00000000 cm^2/s
     atom     4   D =       0.00000000 cm^2/s
     atom     5   D =       0.00000000 cm^2/s
     atom     6   D =       0.00000000 cm^2/s
     atom     7   D =       0.00000000 cm^2/s
     atom     8   D =       0.00000000 cm^2/s
     atom     9   D =       0.00000000 cm^2/s
     atom    10   D =       0.00000000 cm^2/s
     atom    11   D =       0.00000000 cm^2/s
     atom    12   D =       0.00000000 cm^2/s
     atom    13   D =       0.00000000 cm^2/s
     atom    14   D =       0.00000000 cm^2/s
     atom    15   D =       0.00000000 cm^2/s
     atom    16   D =       0.00000000 cm^2/s
     atom    17   D =       0.00000000 cm^2/s
     atom    18   D =       0.00000000 cm^2/s
     atom    19   D =       0.00000003 cm^2/s
     atom    20   D =       0.00000003 cm^2/s
     atom    21   D =       0.00000003 cm^2/s
     atom    22   D =       0.00000003 cm^2/s
     atom    23   D =       0.12082642 cm^2/s

     < D > =       0.01208265 cm^2/s

     Writing all to output data dir outdir/pwscf.save/

     init_run     :     27.60s CPU     28.17s WALL (       1 calls)
     electrons    :   4040.26s CPU   4102.62s WALL (      15 calls)
     update_pot   :     41.45s CPU     41.64s WALL (      14 calls)
     forces       :    294.42s CPU    298.66s WALL (      15 calls)

     Called by init_run:
     wfcinit      :     21.81s CPU     22.02s WALL (       1 calls)
     potinit      :      1.20s CPU      1.24s WALL (       1 calls)
     hinit0       :      2.03s CPU      2.05s WALL (       1 calls)

     Called by electrons:
     c_bands      :   3292.40s CPU   3314.57s WALL (      77 calls)
     sum_band     :    535.00s CPU    557.24s WALL (      77 calls)
     v_of_rho     :     25.83s CPU     26.62s WALL (      92 calls)
     newd         :    224.11s CPU    244.06s WALL (      92 calls)
     mix_rho      :      1.89s CPU      1.92s WALL (      77 calls)

     Called by c_bands:
     init_us_2    :      5.18s CPU      5.22s WALL (     340 calls)
     init_us_2:cp :      5.18s CPU      5.22s WALL (     340 calls)
     regterg      :   3265.58s CPU   3287.58s WALL (     154 calls)

     Called by *egterg:
     rdiaghg      :     57.96s CPU     58.57s WALL (    1104 calls)
     h_psi        :   1340.91s CPU   1355.45s WALL (    1134 calls)
     s_psi        :    483.40s CPU    484.41s WALL (    1134 calls)
     g_psi        :      0.96s CPU      0.96s WALL (     978 calls)

     Called by h_psi:
     h_psi:calbec :    575.79s CPU    577.14s WALL (    1134 calls)
     vloc_psi     :    275.65s CPU    287.86s WALL (    1134 calls)
     add_vuspsi   :    487.45s CPU    488.42s WALL (    1134 calls)

     General routines
     calbec       :    967.86s CPU    970.10s WALL (    1408 calls)
     fft          :     42.19s CPU     43.31s WALL (    1619 calls)
     ffts         :      0.54s CPU      0.58s WALL (      77 calls)
     fftw         :    284.39s CPU    297.00s WALL (   81572 calls)

     Parallel routines

     PWSCF        :      1h14m CPU      1h15m WALL


   This run was terminated on:  18:26:33   6Jun2023            

=------------------------------------------------------------------------------=
   JOB DONE.
=------------------------------------------------------------------------------=
