
     Program PWSCF v.7.2 starts on 16Jun2023 at 15:41:50 

     This program is part of the open-source Quantum ESPRESSO suite
     for quantum simulation of materials; please cite
         "P. Giannozzi et al., J. Phys.:Condens. Matter 21 395502 (2009);
         "P. Giannozzi et al., J. Phys.:Condens. Matter 29 465901 (2017);
         "P. Giannozzi et al., J. Chem. Phys. 152 154105 (2020);
          URL http://www.quantum-espresso.org", 
     in publications or presentations arising from this work. More details at
     http://www.quantum-espresso.org/quote

     Parallel version (MPI), running on    42 processors

     MPI processes distributed on     1 nodes
     172675 MiB available memory on the printing compute node when the environment starts

     Reading input from md_data/md_Hf5Nb2Ta10Zr5H_20steps_50eV_incident30_polar60.in
Warning: card &CELL ignored
Warning: card / ignored

     Current dimensions of program PWSCF are:
     Max number of different atomic species (ntypx) = 10
     Max number of k-points (npk) =  40000
     Max angular momentum in pseudopotentials (lmaxx) =  4

     File outdir/pwscf.md deleted, as requested

     gamma-point specific algorithms are used

     R & G space division:  proc/nbgrp/npool/nimage =      42
     Subspace diagonalization in iterative solution of the eigenvalue problem:
     one sub-group per band group will be used
     custom distributed-memory algorithm (size of sub-group:  2*  2 procs)


     Parallelization info
     --------------------
     sticks:   dense  smooth     PW     G-vecs:    dense   smooth      PW
     Min         262     262     63                23470    23470    2920
     Max         265     265     66                23484    23484    2942
     Sum       11057   11057   2753               986005   986005  123175

     Using Slab Decomposition



     bravais-lattice index     =            0
     lattice parameter (alat)  =      17.6500  a.u.
     unit-cell volume          =    5552.8853 (a.u.)^3
     number of atoms/cell      =           23
     number of atomic types    =            5
     number of electrons       =       277.00
     number of Kohn-Sham states=          167
     kinetic-energy cutoff     =     120.0000  Ry
     charge density cutoff     =     480.0000  Ry
     scf convergence threshold =      1.0E-03
     mixing beta               =       0.7000
     number of iterations used =            8  TF        mixing
     energy convergence thresh.=      0.0E+00
     force convergence thresh. =      0.0E+00
     Exchange-correlation=  SLA  PW   PBX  PBC
                           (   1   4   3   4   0   0   0)
     nstep                     =           20


     celldm(1)=  17.650041  celldm(2)=   0.000000  celldm(3)=   0.000000
     celldm(4)=   0.000000  celldm(5)=   0.000000  celldm(6)=   0.000000

     crystal axes: (cart. coord. in units of alat)
               a(1) = (   1.000000   0.000000   0.000000 )  
               a(2) = (   0.000000   0.929336   0.000000 )  
               a(3) = (   0.000000   0.000000   1.086698 )  

     reciprocal axes: (cart. coord. in units 2 pi/alat)
               b(1) = (  1.000000  0.000000  0.000000 )  
               b(2) = (  0.000000  1.076037  0.000000 )  
               b(3) = (  0.000000  0.000000  0.920219 )  


     PseudoPot. # 1 for Hf read from file:
     q-e/pseudo/hf_pbe_v1.uspp.F.UPF
     MD5 check sum: 8ee9378dfe14276e333edf04c5e4aa26
     Pseudo is Ultrasoft + core correction, Zval = 12.0
     Generated by new atomic code, or converted to UPF format
     Using radial grid of  921 points,  8 beta functions with: 
                l(1) =   0
                l(2) =   0
                l(3) =   0
                l(4) =   1
                l(5) =   1
                l(6) =   2
                l(7) =   2
                l(8) =   3
     Q(r) pseudized with  6 coefficients,  rinner =    1.200   1.200   1.200
                                                       1.200   1.200   1.200
                                                       1.200

     PseudoPot. # 2 for Nb read from file:
     q-e/pseudo/nb_pbe_v1.uspp.F.UPF
     MD5 check sum: 573aab8a2fa660278ed4a62cd769473f
     Pseudo is Ultrasoft + core correction, Zval = 13.0
     Generated by new atomic code, or converted to UPF format
     Using radial grid of  887 points,  6 beta functions with: 
                l(1) =   0
                l(2) =   0
                l(3) =   1
                l(4) =   1
                l(5) =   2
                l(6) =   2
     Q(r) pseudized with  6 coefficients,  rinner =    1.000   1.000   1.000
                                                       1.000   1.000

     PseudoPot. # 3 for Ta read from file:
     q-e/pseudo/ta_pbe_v1.uspp.F.UPF
     MD5 check sum: f8bbe9446314a3b8ea5d9f3e3836c939
     Pseudo is Ultrasoft + core correction, Zval = 13.0
     Generated by new atomic code, or converted to UPF format
     Using radial grid of  921 points,  7 beta functions with: 
                l(1) =   0
                l(2) =   0
                l(3) =   1
                l(4) =   1
                l(5) =   2
                l(6) =   2
                l(7) =   3
     Q(r) pseudized with  6 coefficients,  rinner =    1.300   1.300   1.300
                                                       1.300   1.300   1.300
                                                       1.300

     PseudoPot. # 4 for Zr read from file:
     q-e/pseudo/zr_pbe_v1.uspp.F.UPF
     MD5 check sum: 5db81b1e868ab7776c4564c113de050b
     Pseudo is Ultrasoft + core correction, Zval = 12.0
     Generated by new atomic code, or converted to UPF format
     Using radial grid of  887 points,  6 beta functions with: 
                l(1) =   0
                l(2) =   0
                l(3) =   1
                l(4) =   1
                l(5) =   2
                l(6) =   2
     Q(r) pseudized with  6 coefficients,  rinner =    1.200   1.200   1.200
                                                       1.200   1.200

     PseudoPot. # 5 for H  read from file:
     q-e/pseudo/h_pbe_v1.4.uspp.F.UPF
     MD5 check sum: 761ae9a214b05c3daf00ab9f6b793d6f
     Pseudo is Ultrasoft, Zval =  1.0
     Generated by new atomic code, or converted to UPF format
     Using radial grid of  615 points,  2 beta functions with: 
                l(1) =   0
                l(2) =   0
     Q(r) pseudized with  8 coefficients,  rinner =    0.700

     atomic species   valence    mass     pseudopotential
        Hf            12.00   178.49000     Hf( 1.00)
        Nb            13.00    92.90637     Nb( 1.00)
        Ta            13.00   180.94788     Ta( 1.00)
        Zr            12.00    91.22400     Zr( 1.00)
        H              1.00     2.01400     H ( 1.00)

     Starting magnetic structure 
     atomic species   magnetization
        Hf           0.000
        Nb           0.000
        Ta           0.000
        Zr           0.000
        H            0.000

     No symmetry found



   Cartesian axes

     site n.     atom                  positions (alat units)
         1           Hf  tau(   1) = (   0.2858672   0.3026898   0.7070626  )
         2           Hf  tau(   2) = (   0.1341532   0.1377178   0.5415917  )
         3           Hf  tau(   3) = (   0.1344204   0.7911996   0.5447610  )
         4           Hf  tau(   4) = (   0.4375813   0.1377178   0.5415917  )
         5           Hf  tau(   5) = (   0.4373140   0.7911996   0.5447610  )
         6           Nb  tau(   6) = (   0.2858672   0.2994572   0.3764008  )
         7           Nb  tau(   7) = (   0.2858672   0.6291626   0.7103852  )
         8           Ta  tau(   8) = (   0.1294832   0.4647675   0.5429471  )
         9           Ta  tau(   9) = (   0.4422513   0.4647675   0.5429471  )
        10           Ta  tau(  10) = (   0.1399628   0.1406984   0.2204260  )
        11           Ta  tau(  11) = (   0.1394848   0.1400847   0.8666573  )
        12           Ta  tau(  12) = (   0.1396156   0.7897030   0.2190832  )
        13           Ta  tau(  13) = (   0.1400119   0.7885528   0.8657390  )
        14           Ta  tau(  14) = (   0.4317717   0.1406984   0.2204260  )
        15           Ta  tau(  15) = (   0.4322496   0.1400847   0.8666573  )
        16           Ta  tau(  16) = (   0.4321189   0.7897030   0.2190832  )
        17           Ta  tau(  17) = (   0.4317226   0.7885528   0.8657390  )
        18           Zr  tau(  18) = (   0.2858672   0.6280820   0.3776642  )
        19           Zr  tau(  19) = (   0.1331729   0.4627493   0.2141328  )
        20           Zr  tau(  20) = (   0.1328036   0.4661802   0.8725649  )
        21           Zr  tau(  21) = (   0.4385616   0.4627493   0.2141328  )
        22           Zr  tau(  22) = (   0.4389309   0.4661802   0.8725649  )
        23           H   tau(  23) = (   0.6276957   0.5182013   0.6357822  )

     number of k points=     1  Gaussian smearing, width (Ry)=  0.0220
                       cart. coord. in units 2pi/alat
        k(    1) = (   0.0000000   0.0000000   0.0000000), wk =   1.0000000

     Dense  grid:   493003 G-vectors     FFT dimensions: ( 125, 120, 135)

     Estimated max dynamical RAM per process >     133.03 MB

     Estimated total dynamical RAM >       5.46 GB

     Check: negative core charge=   -0.000002
     Generating pointlists ...
     new r_m :   0.1117 (alat units)  1.9717 (a.u.) for type    1
     new r_m :   0.1098 (alat units)  1.9374 (a.u.) for type    2
     new r_m :   0.0883 (alat units)  1.5592 (a.u.) for type    3
     new r_m :   0.1112 (alat units)  1.9625 (a.u.) for type    4
     new r_m :   0.0883 (alat units)  1.5592 (a.u.) for type    5

     Initial potential from superposition of free atoms

     starting charge     266.9726, renormalised to     277.0000

     negative rho (up, down):  9.217E-01 9.217E-01
     Starting wfcs are  287 randomized atomic wfcs

     total cpu time spent up to now is       14.0 secs

     Self-consistent Calculation

     iteration #  1     ecut=   120.00 Ry     beta= 0.70
     Davidson diagonalization with overlap
     ethr =  1.00E-02,  avg # of iterations =  2.0

     negative rho (up, down):  9.969E-01 9.965E-01

     total cpu time spent up to now is       55.6 secs

     total energy              =   -2930.57936064 Ry
     estimated scf accuracy    <     276.95898303 Ry

     total magnetization       =    -0.00 Bohr mag/cell
     absolute magnetization    =     0.09 Bohr mag/cell

     iteration #  2     ecut=   120.00 Ry     beta= 0.70
     Davidson diagonalization with overlap
     ethr =  1.00E-02,  avg # of iterations =  5.0

     negative rho (up, down):  9.709E-01 9.702E-01

     total cpu time spent up to now is       95.7 secs

     total energy              =   -2942.17602940 Ry
     estimated scf accuracy    <      30.29173144 Ry

     total magnetization       =    -0.02 Bohr mag/cell
     absolute magnetization    =     0.21 Bohr mag/cell

     iteration #  3     ecut=   120.00 Ry     beta= 0.70
     Davidson diagonalization with overlap
     ethr =  1.00E-02,  avg # of iterations =  2.0

     negative rho (up, down):  1.005E+00 1.010E+00

     total cpu time spent up to now is      114.0 secs

     total energy              =   -2942.65523323 Ry
     estimated scf accuracy    <      12.90711412 Ry

     total magnetization       =    -0.01 Bohr mag/cell
     absolute magnetization    =     0.30 Bohr mag/cell

     iteration #  4     ecut=   120.00 Ry     beta= 0.70
     Davidson diagonalization with overlap
     ethr =  4.66E-03,  avg # of iterations =  3.0

     negative rho (up, down):  1.010E+00 1.019E+00

     total cpu time spent up to now is      132.5 secs

     total energy              =   -2942.90034057 Ry
     estimated scf accuracy    <       3.17268238 Ry

     total magnetization       =    -0.00 Bohr mag/cell
     absolute magnetization    =     0.35 Bohr mag/cell

     iteration #  5     ecut=   120.00 Ry     beta= 0.70
     Davidson diagonalization with overlap
     ethr =  1.15E-03,  avg # of iterations =  8.0

     negative rho (up, down):  9.879E-01 9.935E-01

     total cpu time spent up to now is      155.7 secs

     total energy              =   -2943.06937212 Ry
     estimated scf accuracy    <       1.83660414 Ry

     total magnetization       =    -0.01 Bohr mag/cell
     absolute magnetization    =     0.18 Bohr mag/cell

     iteration #  6     ecut=   120.00 Ry     beta= 0.70
     Davidson diagonalization with overlap
     ethr =  6.63E-04,  avg # of iterations =  2.0

     negative rho (up, down):  9.740E-01 9.771E-01

     total cpu time spent up to now is      172.6 secs

     total energy              =   -2943.11173637 Ry
     estimated scf accuracy    <       0.96324845 Ry

     total magnetization       =     0.01 Bohr mag/cell
     absolute magnetization    =     0.14 Bohr mag/cell

     iteration #  7     ecut=   120.00 Ry     beta= 0.70
     Davidson diagonalization with overlap
     ethr =  3.48E-04,  avg # of iterations =  2.0

     negative rho (up, down):  9.476E-01 9.486E-01

     total cpu time spent up to now is      207.1 secs

     total energy              =   -2943.05996705 Ry
     estimated scf accuracy    <       0.40549621 Ry

     total magnetization       =     0.00 Bohr mag/cell
     absolute magnetization    =     0.11 Bohr mag/cell

     iteration #  8     ecut=   120.00 Ry     beta= 0.70
     Davidson diagonalization with overlap
     ethr =  1.46E-04,  avg # of iterations =  6.5

     negative rho (up, down):  9.219E-01 9.216E-01

     total cpu time spent up to now is      244.7 secs

     total energy              =   -2943.06052043 Ry
     estimated scf accuracy    <       0.19439014 Ry

     total magnetization       =    -0.01 Bohr mag/cell
     absolute magnetization    =     0.09 Bohr mag/cell

     iteration #  9     ecut=   120.00 Ry     beta= 0.70
     Davidson diagonalization with overlap
     ethr =  7.02E-05,  avg # of iterations = 11.0

     negative rho (up, down):  9.080E-01 9.078E-01

     total cpu time spent up to now is      267.7 secs

     total energy              =   -2943.05442977 Ry
     estimated scf accuracy    <       0.05874014 Ry

     total magnetization       =    -0.01 Bohr mag/cell
     absolute magnetization    =     0.07 Bohr mag/cell

     iteration # 10     ecut=   120.00 Ry     beta= 0.70
     Davidson diagonalization with overlap
     ethr =  2.12E-05,  avg # of iterations = 14.5

     negative rho (up, down):  9.087E-01 9.087E-01

     total cpu time spent up to now is      291.0 secs

     total energy              =   -2943.05968933 Ry
     estimated scf accuracy    <       0.03619887 Ry

     total magnetization       =    -0.01 Bohr mag/cell
     absolute magnetization    =     0.06 Bohr mag/cell

     iteration # 11     ecut=   120.00 Ry     beta= 0.70
     Davidson diagonalization with overlap
     ethr =  1.31E-05,  avg # of iterations =  2.0

     negative rho (up, down):  9.092E-01 9.092E-01

     total cpu time spent up to now is      308.8 secs

     total energy              =   -2943.06381288 Ry
     estimated scf accuracy    <       0.00551887 Ry

     total magnetization       =    -0.02 Bohr mag/cell
     absolute magnetization    =     0.05 Bohr mag/cell

     iteration # 12     ecut=   120.00 Ry     beta= 0.70
     Davidson diagonalization with overlap
     c_bands:  1 eigenvalues not converged
     ethr =  1.99E-06,  avg # of iterations = 13.5

     negative rho (up, down):  9.092E-01 9.092E-01

     total cpu time spent up to now is      335.1 secs

     total energy              =   -2943.06589061 Ry
     estimated scf accuracy    <       0.00288673 Ry

     total magnetization       =    -0.02 Bohr mag/cell
     absolute magnetization    =     0.04 Bohr mag/cell

     iteration # 13     ecut=   120.00 Ry     beta= 0.70
     Davidson diagonalization with overlap
     ethr =  1.04E-06,  avg # of iterations =  3.0

     negative rho (up, down):  9.089E-01 9.089E-01

     Magnetic moment per site  (integrated on atomic sphere of radius R)
     atom   1 (R=0.112)  charge=  9.4632  magn=  0.0001
     atom   2 (R=0.112)  charge=  9.0594  magn=  0.0004
     atom   3 (R=0.112)  charge=  9.0583  magn=  0.0006
     atom   4 (R=0.112)  charge=  9.0579  magn= -0.0001
     atom   5 (R=0.112)  charge=  9.0568  magn=  0.0001
     atom   6 (R=0.110)  charge= 10.3496  magn=  0.0008
     atom   7 (R=0.110)  charge= 10.3496  magn=  0.0001
     atom   8 (R=0.088)  charge=  8.1283  magn=  0.0000
     atom   9 (R=0.088)  charge=  8.1181  magn=  0.0004
     atom  10 (R=0.088)  charge=  8.1074  magn= -0.0004
     atom  11 (R=0.088)  charge=  8.1049  magn= -0.0000
     atom  12 (R=0.088)  charge=  8.1085  magn= -0.0005
     atom  13 (R=0.088)  charge=  8.1052  magn= -0.0001
     atom  14 (R=0.088)  charge=  8.1064  magn= -0.0004
     atom  15 (R=0.088)  charge=  8.1053  magn= -0.0003
     atom  16 (R=0.088)  charge=  8.1074  magn= -0.0010
     atom  17 (R=0.088)  charge=  8.1092  magn=  0.0002
     atom  18 (R=0.111)  charge=  9.4546  magn=  0.0004
     atom  19 (R=0.111)  charge=  8.9974  magn= -0.0020
     atom  20 (R=0.111)  charge=  8.9969  magn= -0.0003
     atom  21 (R=0.111)  charge=  8.9939  magn= -0.0021
     atom  22 (R=0.111)  charge=  8.9910  magn= -0.0001
     atom  23 (R=0.088)  charge=  0.9713  magn= -0.0000

     total cpu time spent up to now is      372.6 secs

     End of self-consistent calculation

 ------ SPIN UP ------------


          k = 0.0000 0.0000 0.0000 ( 61588 PWs)   bands (ev):

   -60.7905 -60.7860 -60.7458 -60.7384 -60.7131 -60.7082 -60.6682 -60.6643
   -60.5122 -60.4224 -54.4076 -54.3562 -54.2810 -54.2308 -52.7039 -46.2772
   -46.2663 -41.6732 -41.6259 -41.5680 -41.5253 -39.8083 -27.7922 -27.7874
   -27.7063 -27.7010 -27.6034 -27.5981 -27.4795 -27.4685 -27.3758 -27.3434
   -27.3071 -27.2788 -27.2677 -27.2489 -27.2369 -27.1818 -27.1754 -27.1484
   -27.0923 -27.0844 -27.0248 -26.9690 -26.9641 -26.9588 -26.9470 -26.9126
   -26.8986 -26.8915 -26.8667 -26.8652 -24.1901 -23.9799 -23.6748 -23.5906
   -23.3337 -23.2006 -23.1794 -23.0762 -22.9492 -22.8811 -22.8613 -22.6421
   -22.5159 -22.4643 -22.4088 -22.3675 -22.2928 -22.2480 -21.7681 -21.7033
   -21.6347 -20.1966 -19.9741 -19.8284 -19.8249 -19.6494 -19.6217 -19.5997
   -19.5913 -19.5740 -19.5519 -19.3992 -19.3676 -18.1540 -17.9493 -17.8240
     1.4598   2.9175   2.9966   3.1278   3.3007   3.4471   3.4910   3.6751
     3.7355   3.8289   3.9072   4.0489   4.2509   4.4965   4.6448   4.6742
     4.7411   4.8738   5.0406   5.0720   5.1311   5.2547   5.2831   5.2917
     5.3898   5.5473   5.5662   5.7102   5.7295   5.7465   5.7474   5.7828
     5.9236   6.0871   6.1533   6.2145   6.2606   6.3003   6.3532   6.3703
     6.4481   6.6207   6.6541   6.6816   6.8738   6.9233   7.0006   7.0398
     7.0925   7.1390   7.2563   7.3072   7.3137   7.4223   7.5333   7.5809
     7.6128   7.6819   7.8836   7.9296   8.0758   8.0911   8.1113   8.1858
     8.2417   8.3245   8.3429   8.3621   8.4783   8.5255   8.6165   8.7134
     8.7760   8.8951   8.9321   9.0545   9.1747   9.2194   9.2704

 ------ SPIN DOWN ----------


          k = 0.0000 0.0000 0.0000 ( 61588 PWs)   bands (ev):

   -60.7911 -60.7860 -60.7464 -60.7384 -60.7138 -60.7082 -60.6688 -60.6644
   -60.5122 -60.4218 -54.4074 -54.3558 -54.2809 -54.2305 -52.7037 -46.2769
   -46.2652 -41.6733 -41.6280 -41.5683 -41.5275 -39.8077 -27.7925 -27.7877
   -27.7070 -27.7010 -27.6038 -27.5983 -27.4797 -27.4692 -27.3759 -27.3440
   -27.3072 -27.2796 -27.2678 -27.2493 -27.2375 -27.1823 -27.1760 -27.1483
   -27.0917 -27.0844 -27.0243 -26.9696 -26.9641 -26.9589 -26.9477 -26.9122
   -26.8988 -26.8922 -26.8671 -26.8655 -24.1897 -23.9796 -23.6744 -23.5904
   -23.3334 -23.2002 -23.1789 -23.0758 -22.9488 -22.8808 -22.8611 -22.6419
   -22.5152 -22.4634 -22.4085 -22.3670 -22.2923 -22.2475 -21.7679 -21.7031
   -21.6345 -20.1987 -19.9738 -19.8310 -19.8270 -19.6496 -19.6219 -19.6010
   -19.5926 -19.5762 -19.5524 -19.3993 -19.3703 -18.1534 -17.9488 -17.8237
     1.4598   2.9169   2.9969   3.1279   3.3009   3.4468   3.4909   3.6753
     3.7356   3.8289   3.9066   4.0483   4.2509   4.4966   4.6447   4.6740
     4.7409   4.8737   5.0400   5.0717   5.1307   5.2541   5.2829   5.2917
     5.3892   5.5473   5.5661   5.7098   5.7286   5.7464   5.7475   5.7823
     5.9236   6.0865   6.1528   6.2141   6.2605   6.3001   6.3529   6.3695
     6.4474   6.6204   6.6535   6.6810   6.8729   6.9226   6.9989   7.0389
     7.0908   7.1378   7.2553   7.3066   7.3121   7.4209   7.5332   7.5791
     7.6117   7.6814   7.8833   7.9294   8.0744   8.0903   8.1106   8.1847
     8.2406   8.3239   8.3420   8.3613   8.4777   8.5246   8.6157   8.7124
     8.7753   8.8937   8.9312   9.0540   9.1736   9.2191   9.2642

     the Fermi energy is     7.2315 ev

!    total energy              =   -2943.06712482 Ry
     estimated scf accuracy    <       0.00048127 Ry
     smearing contrib. (-TS)   =      -0.09989143 Ry
     internal energy E=F+TS    =   -2942.96723339 Ry

     total magnetization       =    -0.02 Bohr mag/cell
     absolute magnetization    =     0.04 Bohr mag/cell

     convergence has been achieved in  13 iterations

     negative rho (up, down):  9.089E-01 9.089E-01

     Forces acting on atoms (cartesian axes, Ry/au):

     atom    1 type  1   force =    -0.00557851   -0.02525484    0.00891249
     atom    2 type  1   force =    -0.11341216   -0.01700742   -0.00158394
     atom    3 type  1   force =    -0.11354189    0.01463137    0.00259723
     atom    4 type  1   force =     0.11110827   -0.01954124   -0.00594582
     atom    5 type  1   force =     0.12002784    0.01291292    0.00334222
     atom    6 type  2   force =    -0.01149139   -0.01988138    0.00449320
     atom    7 type  2   force =    -0.01909535    0.01143111   -0.00922976
     atom    8 type  3   force =    -0.11730746    0.00414470   -0.00136292
     atom    9 type  3   force =     0.16267906    0.00696420    0.01009488
     atom   10 type  3   force =    -0.02061835   -0.03230666   -0.05915336
     atom   11 type  3   force =    -0.02106711   -0.03587810    0.05695321
     atom   12 type  3   force =    -0.01933996    0.03732801   -0.05468324
     atom   13 type  3   force =    -0.01866605    0.03161829    0.06137893
     atom   14 type  3   force =     0.02422317   -0.02984529   -0.05737658
     atom   15 type  3   force =     0.01806757   -0.03773581    0.05402359
     atom   16 type  3   force =     0.02093523    0.03531667   -0.05108371
     atom   17 type  3   force =     0.01512413    0.03773220    0.05919849
     atom   18 type  4   force =    -0.00457131    0.02872719   -0.00993264
     atom   19 type  4   force =    -0.13032529   -0.00460029   -0.11580939
     atom   20 type  4   force =    -0.13460583    0.00506243    0.11269645
     atom   21 type  4   force =     0.12816989   -0.00710104   -0.11657269
     atom   22 type  4   force =     0.15605193    0.00623665    0.10355131
     atom   23 type  5   force =    -0.02676643   -0.00295367    0.00549205
     The non-local contrib.  to forces
     atom    1 type  1   force =    -0.00503735   -0.01423778    0.03396017
     atom    2 type  1   force =    -0.24456950   -0.16393688    0.01528782
     atom    3 type  1   force =    -0.23919408    0.15867991   -0.02557592
     atom    4 type  1   force =     0.25181109   -0.16394570    0.02571453
     atom    5 type  1   force =     0.26001625    0.14760353   -0.01163824
     atom    6 type  2   force =     0.00668470   -0.05592247   -0.06408222
     atom    7 type  2   force =    -0.02429478    0.05824107    0.05672764
     atom    8 type  3   force =    -0.27114580    0.00288544    0.00104040
     atom    9 type  3   force =     0.09966353   -0.03553585   -0.05385095
     atom   10 type  3   force =    -0.21328489    0.00405867   -0.20638047
     atom   11 type  3   force =    -0.21463713    0.00682236    0.19647113
     atom   12 type  3   force =    -0.20583956   -0.01975960   -0.17695034
     atom   13 type  3   force =    -0.21011905   -0.00453599    0.20572541
     atom   14 type  3   force =     0.20684660    0.00386218   -0.21974745
     atom   15 type  3   force =     0.22088336    0.00369687    0.18717880
     atom   16 type  3   force =     0.19827324   -0.01896356   -0.18698332
     atom   17 type  3   force =     0.23405142   -0.01293818    0.18605591
     atom   18 type  4   force =    -0.00420349    0.05780253   -0.06070343
     atom   19 type  4   force =     0.06123768    0.00887527    0.07377349
     atom   20 type  4   force =     0.05375455   -0.01806828   -0.06065512
     atom   21 type  4   force =    -0.05438851    0.01168735    0.07631470
     atom   22 type  4   force =    -0.05757361   -0.00911356   -0.08511294
     atom   23 type  5   force =    -0.03808241   -0.01021436   -0.01385099
     The ionic contribution  to forces
     atom    1 type  1   force =    -0.26316664   -4.74693388   14.02851364
     atom    2 type  1   force =   -39.66161355   -6.16068848    0.73523893
     atom    3 type  1   force =   -39.63686855    6.18955266   -0.76795655
     atom    4 type  1   force =    39.48992486   -6.27626781    0.68532232
     atom    5 type  1   force =    39.31140391    6.49327933   -0.87966706
     atom    6 type  2   force =    -0.15414886   -3.63047644  -14.01055254
     atom    7 type  2   force =    -0.42641916    3.71596977   13.99708823
     atom    8 type  3   force =   -52.07814508    0.03185351   -0.14983742
     atom    9 type  3   force =    50.56559936   -0.36110887   -0.83684448
     atom   10 type  3   force =   -36.04323933   -2.10365363  -23.07459600
     atom   11 type  3   force =   -35.12089650   -0.87330470   22.10984029
     atom   12 type  3   force =   -35.22837246    0.82434765  -22.13706566
     atom   13 type  3   force =   -36.02416331    2.23999260   23.10561480
     atom   14 type  3   force =    35.97058715   -2.12598097  -23.11398566
     atom   15 type  3   force =    34.98472141   -0.94393157   22.18909249
     atom   16 type  3   force =    35.13674634    0.86697350  -22.19848127
     atom   17 type  3   force =    35.80670452    2.39961398   23.25905087
     atom   18 type  4   force =    -0.19515231    4.40826339  -14.00903083
     atom   19 type  4   force =   -35.88096916    0.94223544  -25.54889019
     atom   20 type  4   force =   -35.86814075   -0.97912799   25.58478083
     atom   21 type  4   force =    35.75875588    0.92364451  -25.66315180
     atom   22 type  4   force =    35.41246419   -1.07579189   26.02843524
     atom   23 type  5   force =     4.14438803    0.24153988    0.66708184
     The local contribution  to forces
     atom    1 type  1   force =     0.26236920    4.73242797  -14.05742699
     atom    2 type  1   force =    39.81660951    6.30487285   -0.75149580
     atom    3 type  1   force =    39.78617118   -6.33035518    0.79543201
     atom    4 type  1   force =   -39.65484522    6.41991953   -0.72154572
     atom    5 type  1   force =   -39.47573342   -6.62684150    0.89045949
     atom    6 type  2   force =     0.13803441    3.65574669   14.08340825
     atom    7 type  2   force =     0.43258509   -3.76163821  -14.07106730
     atom    8 type  3   force =    52.27144775   -0.03195557    0.14735817
     atom    9 type  3   force =   -50.52035984    0.40721089    0.90976186
     atom   10 type  3   force =    36.25964864    2.05293128   23.24158316
     atom   11 type  3   force =    35.34358349    0.82278490  -22.27262668
     atom   12 type  3   force =    35.44093541   -0.75153413   22.27933331
     atom   13 type  3   force =    36.23992356   -2.18853581  -23.27062081
     atom   14 type  3   force =   -36.17729698    2.07550686   23.29624115
     atom   15 type  3   force =   -35.21933775    0.89490377  -22.33987295
     atom   16 type  3   force =   -35.34041867   -0.79331080   22.35465203
     atom   17 type  3   force =   -36.05240446   -2.33550355  -23.40324197
     atom   18 type  4   force =     0.19629503   -4.42838665   14.06213555
     atom   19 type  4   force =    35.69417643   -0.95653800   25.37442611
     atom   20 type  4   force =    35.68804080    0.99654619  -25.42552307
     atom   21 type  4   force =   -35.57992122   -0.94354554   25.48808335
     atom   22 type  4   force =   -35.20760033    1.08564587  -25.85858705
     atom   23 type  5   force =    -4.13375539   -0.23454792   -0.64844304
     The core correction contribution to forces
     atom    1 type  1   force =     0.00163606    0.00028132   -0.00011759
     atom    2 type  1   force =    -0.01227982   -0.00178962   -0.00014654
     atom    3 type  1   force =    -0.01274434    0.00272618   -0.00194067
     atom    4 type  1   force =     0.01307904   -0.00259916    0.00318074
     atom    5 type  1   force =     0.01326144    0.00386926    0.00033832
     atom    6 type  2   force =    -0.00040589    0.00245723    0.00257544
     atom    7 type  2   force =     0.00090438   -0.00287407   -0.00205898
     atom    8 type  3   force =    -0.03314133    0.00074839    0.00014060
     atom    9 type  3   force =     0.01328224   -0.00477440   -0.00755248
     atom   10 type  3   force =    -0.02162187    0.00970152   -0.01615866
     atom   11 type  3   force =    -0.02418410    0.00901964    0.01809935
     atom   12 type  3   force =    -0.02194824   -0.01002789   -0.01541850
     atom   13 type  3   force =    -0.02318447   -0.00905091    0.01672511
     atom   14 type  3   force =     0.02236053    0.01010348   -0.01633432
     atom   15 type  3   force =     0.02428671    0.01027843    0.01392215
     atom   16 type  3   force =     0.02276712   -0.01134945   -0.01575118
     atom   17 type  3   force =     0.02383552   -0.00946649    0.01399311
     atom   18 type  4   force =     0.00017141   -0.00286146    0.00290740
     atom   19 type  4   force =    -0.00982124    0.00005129   -0.00957788
     atom   20 type  4   force =    -0.00951794    0.00059018    0.00887871
     atom   21 type  4   force =     0.00948463   -0.00008494   -0.00984079
     atom   22 type  4   force =     0.01014399    0.00028584    0.00984947
     atom   23 type  5   force =     0.00000000    0.00000000    0.00000000
     The Hubbard contrib.    to forces
     atom    1 type  1   force =     0.00000000    0.00000000    0.00000000
     atom    2 type  1   force =     0.00000000    0.00000000    0.00000000
     atom    3 type  1   force =     0.00000000    0.00000000    0.00000000
     atom    4 type  1   force =     0.00000000    0.00000000    0.00000000
     atom    5 type  1   force =     0.00000000    0.00000000    0.00000000
     atom    6 type  2   force =     0.00000000    0.00000000    0.00000000
     atom    7 type  2   force =     0.00000000    0.00000000    0.00000000
     atom    8 type  3   force =     0.00000000    0.00000000    0.00000000
     atom    9 type  3   force =     0.00000000    0.00000000    0.00000000
     atom   10 type  3   force =     0.00000000    0.00000000    0.00000000
     atom   11 type  3   force =     0.00000000    0.00000000    0.00000000
     atom   12 type  3   force =     0.00000000    0.00000000    0.00000000
     atom   13 type  3   force =     0.00000000    0.00000000    0.00000000
     atom   14 type  3   force =     0.00000000    0.00000000    0.00000000
     atom   15 type  3   force =     0.00000000    0.00000000    0.00000000
     atom   16 type  3   force =     0.00000000    0.00000000    0.00000000
     atom   17 type  3   force =     0.00000000    0.00000000    0.00000000
     atom   18 type  4   force =     0.00000000    0.00000000    0.00000000
     atom   19 type  4   force =     0.00000000    0.00000000    0.00000000
     atom   20 type  4   force =     0.00000000    0.00000000    0.00000000
     atom   21 type  4   force =     0.00000000    0.00000000    0.00000000
     atom   22 type  4   force =     0.00000000    0.00000000    0.00000000
     atom   23 type  5   force =     0.00000000    0.00000000    0.00000000
     The SCF correction term to forces
     atom    1 type  1   force =    -0.00128645    0.00324793    0.00378074
     atom    2 type  1   force =    -0.01146547    0.00457510   -0.00067088
     atom    3 type  1   force =    -0.01081277   -0.00593179    0.00243583
     atom    4 type  1   force =     0.01123183    0.00339230    0.00117977
     atom    5 type  1   force =     0.01117300   -0.00495731    0.00364719
     atom    6 type  2   force =    -0.00156242    0.00835401   -0.00705825
     atom    7 type  2   force =    -0.00177754    0.00177295    0.00987814
     atom    8 type  3   force =    -0.00622967    0.00065333   -0.00026719
     atom    9 type  3   force =     0.00458710    0.00121283   -0.00162160
     atom   10 type  3   force =    -0.00202755    0.00469592   -0.00380392
     atom   11 type  3   force =    -0.00483953   -0.00115991    0.00496660
     atom   12 type  3   force =    -0.00402178   -0.00565762   -0.00478456
     atom   13 type  3   force =    -0.00102944   -0.00621120    0.00373191
     atom   14 type  3   force =     0.00181921    0.00670356   -0.00375281
     atom   15 type  3   force =     0.00760717   -0.00264291    0.00350057
     atom   16 type  3   force =     0.00366054   -0.00799263   -0.00472251
     atom   17 type  3   force =     0.00303046   -0.00393315    0.00313805
     atom   18 type  4   force =    -0.00158861   -0.00605022   -0.00544386
     atom   19 type  4   force =     0.00514434    0.00081612   -0.00574345
     atom   20 type  4   force =     0.00135084    0.00516273    0.00501257
     atom   21 type  4   force =    -0.00566756    0.00123798   -0.00818068
     atom   22 type  4   force =    -0.00128898    0.00525078    0.00876408
     atom   23 type  5   force =     0.00077667    0.00030914    0.00050171

     Total force =     0.512577     Total SCF correction =     0.042518


     Computing stress (Cartesian axis) and pressure


     negative rho (up, down):  9.089E-01 9.089E-01
          total   stress  (Ry/bohr**3)                   (kbar)     P=       82.74
   0.00067322  -0.00000305   0.00000451           99.03       -0.45        0.66
  -0.00000305   0.00064829  -0.00000848           -0.45       95.37       -1.25
   0.00000451  -0.00000848   0.00036593            0.66       -1.25       53.83


     Molecular Dynamics Calculation

     Starting temperature  =   300.00 K

     temperature is set once at start

     mass Hf               =   178.49
     mass Nb               =    92.91
     mass Ta               =   180.95
     mass Zr               =    91.22
     mass H                =     2.01
     Time step             =     4.20 a.u.,  0.2032 femto-seconds

     Entering Dynamics:    iteration =     1
                           time      =   0.0002 pico-seconds


ATOMIC_POSITIONS (angstrom)
Hf            2.6700767755        2.8271445260        6.6040029636
Hf            1.2530644050        1.2863059148        5.0585046700
Hf            1.2555606197        7.3898269359        5.0881063312
Hf            4.0870894001        1.2863058421        5.0585045448
Hf            4.0845934376        7.3898268866        5.0881063526
Nb            2.6700763022        2.7969517310        3.5156219537
Nb            2.6700758831        5.8764015277        6.6350359238
Ta            1.2094467148        4.3409501902        5.0711642830
Ta            4.1307084404        4.3409502700        5.0711646073
Ta            1.3073290792        1.3141438964        2.0588159254
Ta            1.3028646966        1.3084123420        8.0946193035
Ta            1.3040860534        7.3758494018        2.0462741216
Ta            1.3077872487        7.3651060645        8.0860424471
Ta            4.0328248940        1.3141439661        2.0588159756
Ta            4.0372890897        1.3084122894        8.0946192206
Ta            4.0360678630        7.3758493449        2.0462742234
Ta            4.0323665222        7.3651062375        8.0860423854
Zr            2.6700766790        5.8663096773        3.5274218621
Zr            1.2439042818        4.3220999276        2.0000319884
Zr            1.2404548353        4.3541457900        8.1498003648
Zr            4.0962494684        4.3220997872        2.0000319455
Zr            4.0997002398        4.3541458559        8.1497998514
H             5.7348013893        4.8030982009        5.8743150529


     kinetic energy (Ekin) =           4.04925691 Ry
     temperature           =       19373.54852167 K 
     Ekin + Etot (const)   =       -2939.01786791 Ry
     Ions kinetic stress =           71.51 (kbar)
                                    160.91          46.45          80.45
                                     46.45          13.41          23.22
                                     80.45          23.22          40.23



     Linear momentum :    0.0000000000    0.0000000000    0.0000000000

     File outdir/pwscf.msd.dat deleted, as requested

     Writing config-only to output data dir outdir/pwscf.save/
     NEW-OLD atomic charge density approx. for the potential

     Check: negative core charge=   -0.000002

     negative rho (up, down):  9.089E-01 9.089E-01
     Generating pointlists ...
     new r_m :   0.0818 (alat units)  1.4440 (a.u.) for type    3
     new r_m :   0.0818 (alat units)  1.4440 (a.u.) for type    5

     total cpu time spent up to now is      423.3 secs

     Self-consistent Calculation

     iteration #  1     ecut=   120.00 Ry     beta= 0.70
     Davidson diagonalization with overlap
     ethr =  1.00E-06,  avg # of iterations =  8.5

     negative rho (up, down):  9.088E-01 9.088E-01

     total cpu time spent up to now is      454.4 secs

     total energy              =   -2943.06726027 Ry
     estimated scf accuracy    <       0.01545875 Ry

     total magnetization       =    -0.02 Bohr mag/cell
     absolute magnetization    =     0.03 Bohr mag/cell

     iteration #  2     ecut=   120.00 Ry     beta= 0.70
     Davidson diagonalization with overlap
     ethr =  5.58E-06,  avg # of iterations =  2.0

     negative rho (up, down):  9.089E-01 9.089E-01

     total cpu time spent up to now is      472.3 secs

     total energy              =   -2943.06840940 Ry
     estimated scf accuracy    <       0.00499659 Ry

     total magnetization       =    -0.02 Bohr mag/cell
     absolute magnetization    =     0.03 Bohr mag/cell

     iteration #  3     ecut=   120.00 Ry     beta= 0.70
     Davidson diagonalization with overlap
     ethr =  1.80E-06,  avg # of iterations =  1.0

     negative rho (up, down):  9.089E-01 9.089E-01

     Magnetic moment per site  (integrated on atomic sphere of radius R)
     atom   1 (R=0.112)  charge=  9.4638  magn=  0.0000
     atom   2 (R=0.112)  charge=  9.0576  magn=  0.0001
     atom   3 (R=0.112)  charge=  9.0576  magn=  0.0002
     atom   4 (R=0.112)  charge=  9.0571  magn= -0.0001
     atom   5 (R=0.112)  charge=  9.0565  magn=  0.0000
     atom   6 (R=0.110)  charge= 10.3506  magn=  0.0001
     atom   7 (R=0.110)  charge= 10.3508  magn= -0.0001
     atom   8 (R=0.082)  charge=  7.4401  magn= -0.0000
     atom   9 (R=0.082)  charge=  7.4353  magn=  0.0000
     atom  10 (R=0.082)  charge=  7.4189  magn= -0.0002
     atom  11 (R=0.082)  charge=  7.4202  magn= -0.0001
     atom  12 (R=0.082)  charge=  7.4188  magn= -0.0003
     atom  13 (R=0.082)  charge=  7.4208  magn= -0.0000
     atom  14 (R=0.082)  charge=  7.4187  magn= -0.0003
     atom  15 (R=0.082)  charge=  7.4221  magn= -0.0002
     atom  16 (R=0.082)  charge=  7.4183  magn= -0.0006
     atom  17 (R=0.082)  charge=  7.4248  magn=  0.0000
     atom  18 (R=0.111)  charge=  9.4549  magn=  0.0001
     atom  19 (R=0.111)  charge=  8.9967  magn= -0.0013
     atom  20 (R=0.111)  charge=  8.9970  magn=  0.0001
     atom  21 (R=0.111)  charge=  8.9943  magn= -0.0014
     atom  22 (R=0.111)  charge=  8.9921  magn= -0.0001
     atom  23 (R=0.082)  charge=  0.9439  magn= -0.0000

     total cpu time spent up to now is      488.2 secs

     End of self-consistent calculation

 ------ SPIN UP ------------


          k = 0.0000 0.0000 0.0000 ( 61588 PWs)   bands (ev):

   -60.7700 -60.7632 -60.7242 -60.7184 -60.6922 -60.6837 -60.6493 -60.6382
   -60.4842 -60.2975 -54.3919 -54.3420 -54.2659 -54.2171 -52.6909 -46.2581
   -46.2484 -41.6563 -41.6175 -41.5456 -41.5169 -39.7934 -27.7748 -27.7615
   -27.6854 -27.6784 -27.5857 -27.5740 -27.4630 -27.4400 -27.3447 -27.3206
   -27.2747 -27.2541 -27.2502 -27.2279 -27.2118 -27.1616 -27.1482 -27.1178
   -27.0568 -26.9990 -26.9542 -26.9429 -26.9411 -26.9252 -26.9146 -26.8823
   -26.8642 -26.8518 -26.8391 -26.8277 -24.1740 -23.9632 -23.6595 -23.5748
   -23.3186 -23.1836 -23.1632 -23.0596 -22.9333 -22.8667 -22.8445 -22.6270
   -22.4982 -22.4468 -22.3921 -22.3487 -22.2769 -22.2296 -21.7537 -21.6877
   -21.6213 -20.1863 -19.9568 -19.8196 -19.8139 -19.6330 -19.6050 -19.5854
   -19.5720 -19.5641 -19.5315 -19.3794 -19.3586 -18.1384 -17.9336 -17.8107
     1.4601   2.8792   2.9421   3.1492   3.3129   3.4653   3.5059   3.6948
     3.7541   3.8450   3.9269   4.0572   4.2686   4.5164   4.6523   4.6909
     4.7533   4.8779   5.0575   5.0834   5.1462   5.2733   5.2982   5.3117
     5.4067   5.5662   5.5913   5.7332   5.7475   5.7618   5.7771   5.7977
     5.9403   6.1071   6.1738   6.2354   6.2772   6.3222   6.3708   6.3857
     6.4621   6.6431   6.6727   6.6995   6.8951   6.9422   7.0153   7.0526
     7.1040   7.1533   7.2726   7.3160   7.3279   7.4347   7.5507   7.5879
     7.6282   7.6953   7.9008   7.9484   8.0940   8.0975   8.1265   8.2001
     8.2607   8.3464   8.3612   8.3782   8.4990   8.5415   8.6331   8.7305
     8.7952   8.9053   8.9535   9.0703   9.1890   9.2496   9.2926

 ------ SPIN DOWN ----------


          k = 0.0000 0.0000 0.0000 ( 61588 PWs)   bands (ev):

   -60.7700 -60.7637 -60.7243 -60.7189 -60.6923 -60.6843 -60.6494 -60.6387
   -60.4842 -60.2974 -54.3919 -54.3419 -54.2659 -54.2170 -52.6909 -46.2581
   -46.2481 -41.6564 -41.6188 -41.5455 -41.5182 -39.7932 -27.7749 -27.7622
   -27.6856 -27.6791 -27.5858 -27.5746 -27.4631 -27.4408 -27.3449 -27.3210
   -27.2748 -27.2544 -27.2506 -27.2280 -27.2124 -27.1618 -27.1488 -27.1180
   -27.0568 -26.9989 -26.9543 -26.9434 -26.9413 -26.9254 -26.9151 -26.8825
   -26.8648 -26.8518 -26.8397 -26.8277 -24.1738 -23.9631 -23.6595 -23.5747
   -23.3185 -23.1835 -23.1631 -23.0595 -22.9332 -22.8666 -22.8444 -22.6269
   -22.4981 -22.4466 -22.3921 -22.3487 -22.2768 -22.2295 -21.7537 -21.6877
   -21.6213 -20.1877 -19.9566 -19.8212 -19.8150 -19.6331 -19.6051 -19.5865
   -19.5723 -19.5654 -19.5316 -19.3794 -19.3604 -18.1382 -17.9335 -17.8107
     1.4599   2.8791   2.9416   3.1491   3.3129   3.4648   3.5057   3.6947
     3.7539   3.8449   3.9263   4.0567   4.2684   4.5163   4.6520   4.6906
     4.7530   4.8775   5.0569   5.0831   5.1458   5.2728   5.2980   5.3115
     5.4061   5.5660   5.5911   5.7328   5.7469   5.7614   5.7771   5.7971
     5.9402   6.1066   6.1733   6.2350   6.2770   6.3219   6.3705   6.3851
     6.4616   6.6428   6.6723   6.6990   6.8944   6.9416   7.0139   7.0518
     7.1024   7.1522   7.2714   7.3144   7.3275   7.4332   7.5503   7.5861
     7.6273   7.6948   7.9005   7.9481   8.0930   8.0969   8.1260   8.1991
     8.2596   8.3460   8.3603   8.3775   8.4985   8.5407   8.6326   8.7299
     8.7947   8.9040   8.9528   9.0698   9.1884   9.2492   9.2823

     the Fermi energy is     7.2452 ev

!    total energy              =   -2943.06840543 Ry
     estimated scf accuracy    <       0.00062004 Ry
     smearing contrib. (-TS)   =      -0.10038619 Ry
     internal energy E=F+TS    =   -2942.96801924 Ry

     total magnetization       =    -0.02 Bohr mag/cell
     absolute magnetization    =     0.02 Bohr mag/cell

     convergence has been achieved in   3 iterations

     negative rho (up, down):  9.089E-01 9.089E-01

     Forces acting on atoms (cartesian axes, Ry/au):

     atom    1 type  1   force =    -0.00693119   -0.02565006    0.01647339
     atom    2 type  1   force =    -0.12040365   -0.01418694    0.00244953
     atom    3 type  1   force =    -0.11997336    0.01129721    0.00799022
     atom    4 type  1   force =     0.11768206   -0.01859650   -0.00072228
     atom    5 type  1   force =     0.12635207    0.01091046    0.01009178
     atom    6 type  2   force =    -0.01290391   -0.02127837    0.00127077
     atom    7 type  2   force =    -0.01948029    0.01212673   -0.00934152
     atom    8 type  3   force =    -0.12286068    0.00475731    0.00031067
     atom    9 type  3   force =     0.14441313   -0.00042475   -0.00415172
     atom   10 type  3   force =    -0.02195567   -0.02889282   -0.06161253
     atom   11 type  3   force =    -0.02254802   -0.03541599    0.05623962
     atom   12 type  3   force =    -0.02218577    0.03408319   -0.05822724
     atom   13 type  3   force =    -0.01882735    0.03018149    0.06064105
     atom   14 type  3   force =     0.02565075   -0.02620189   -0.06028561
     atom   15 type  3   force =     0.02014562   -0.03810194    0.05309100
     atom   16 type  3   force =     0.02372478    0.03156364   -0.05470932
     atom   17 type  3   force =     0.01555885    0.03672530    0.05778014
     atom   18 type  4   force =    -0.00607714    0.02900574   -0.01249382
     atom   19 type  4   force =    -0.12961449   -0.00432397   -0.11872740
     atom   20 type  4   force =    -0.13345462    0.00572754    0.11211820
     atom   21 type  4   force =     0.12661004   -0.00649507   -0.12198428
     atom   22 type  4   force =     0.15119129    0.00728010    0.10573746
     atom   23 type  5   force =     0.00588756    0.00590958    0.01806187
     The non-local contrib.  to forces
     atom    1 type  1   force =    -0.00619856   -0.01552707    0.03927389
     atom    2 type  1   force =    -0.24794012   -0.16160352    0.01806099
     atom    3 type  1   force =    -0.24285099    0.15605411   -0.02214985
     atom    4 type  1   force =     0.25494997   -0.16288861    0.02894240
     atom    5 type  1   force =     0.26323174    0.14605358   -0.00912973
     atom    6 type  2   force =     0.00758305   -0.05678176   -0.06574796
     atom    7 type  2   force =    -0.02296101    0.05815261    0.05778651
     atom    8 type  3   force =    -0.27052229    0.00262849    0.00221899
     atom    9 type  3   force =     0.07700156   -0.04258863   -0.06688620
     atom   10 type  3   force =    -0.21290691    0.00548928   -0.20868137
     atom   11 type  3   force =    -0.21381803    0.00791367    0.19663920
     atom   12 type  3   force =    -0.20638276   -0.02211491   -0.17918711
     atom   13 type  3   force =    -0.20686366   -0.00702066    0.20583569
     atom   14 type  3   force =     0.20594210    0.00589699   -0.22146395
     atom   15 type  3   force =     0.21993941    0.00324966    0.18718692
     atom   16 type  3   force =     0.19871963   -0.02168749   -0.18867175
     atom   17 type  3   force =     0.22915847   -0.01234845    0.18865971
     atom   18 type  4   force =    -0.00539427    0.05702944   -0.06184514
     atom   19 type  4   force =     0.06222544    0.00912077    0.07148248
     atom   20 type  4   force =     0.05465257   -0.01682323   -0.05985555
     atom   21 type  4   force =    -0.05528708    0.01177883    0.07259849
     atom   22 type  4   force =    -0.05926472   -0.00845285   -0.07939771
     atom   23 type  5   force =    -0.04817218   -0.01338002   -0.01954260
     The ionic contribution  to forces
     atom    1 type  1   force =    -0.28951577   -4.76291329   14.04314294
     atom    2 type  1   force =   -39.67365062   -6.16350581    0.73775918
     atom    3 type  1   force =   -39.65378801    6.19021763   -0.76427008
     atom    4 type  1   force =    39.48847601   -6.29722437    0.68609706
     atom    5 type  1   force =    39.31475442    6.52268791   -0.87588474
     atom    6 type  2   force =    -0.17297540   -3.64152554  -14.02322408
     atom    7 type  2   force =    -0.46150933    3.73600600   14.01880754
     atom    8 type  3   force =   -52.11335784    0.03398208   -0.14515737
     atom    9 type  3   force =    50.29865863   -0.43738893   -0.96855837
     atom   10 type  3   force =   -36.04907676   -2.10514264  -23.07760486
     atom   11 type  3   force =   -35.13031205   -0.87452000   22.11122274
     atom   12 type  3   force =   -35.23532996    0.82496990  -22.13997044
     atom   13 type  3   force =   -36.03646876    2.23865984   23.10608065
     atom   14 type  3   force =    35.97065722   -2.13094908  -23.12218993
     atom   15 type  3   force =    34.98882488   -0.95096077   22.19705044
     atom   16 type  3   force =    35.13759936    0.87193813  -22.20794338
     atom   17 type  3   force =    35.81928475    2.40099316   23.26527817
     atom   18 type  4   force =    -0.21705033    4.41899847  -14.02371701
     atom   19 type  4   force =   -35.88998226    0.94291490  -25.55310769
     atom   20 type  4   force =   -35.88742180   -0.97695864   25.58603769
     atom   21 type  4   force =    35.75657111    0.92328156  -25.68488191
     atom   22 type  4   force =    35.42763086   -1.07073738   26.06481027
     atom   23 type  5   force =     4.60798164    0.30717683    0.77022317
     The local contribution  to forces
     atom    1 type  1   force =     0.28433704    4.74699109  -14.04431463
     atom    2 type  1   force =    39.80270583    6.31627130   -0.73702222
     atom    3 type  1   force =    39.77896585   -6.34131574    0.81447678
     atom    4 type  1   force =   -39.62935576    6.44331105   -0.69994976
     atom    5 type  1   force =   -39.45544114   -6.66234737    0.91623262
     atom    6 type  2   force =     0.14539588    3.67332793   14.08999439
     atom    7 type  2   force =     0.46296003   -3.77183411  -14.05719147
     atom    8 type  3   force =    52.27902241   -0.03189135    0.16031043
     atom    9 type  3   force =   -50.20890820    0.49430575    1.07226815
     atom   10 type  3   force =    36.24856560    2.07595874   23.23391114
     atom   11 type  3   force =    35.34159115    0.82107405  -22.26671369
     atom   12 type  3   force =    35.42613480   -0.77109459   22.26726723
     atom   13 type  3   force =    36.24515229   -2.19308241  -23.26425233
     atom   14 type  3   force =   -36.16186501    2.10255394   23.29100130
     atom   15 type  3   force =   -35.20578189    0.89569678  -22.34206852
     atom   16 type  3   force =   -35.32056070   -0.82016659   22.34744154
     atom   17 type  3   force =   -36.05047013   -2.34219600  -23.40752936
     atom   18 type  4   force =     0.21075946   -4.44673754   14.07590609
     atom   19 type  4   force =    35.70193587   -0.95738486   25.36232224
     atom   20 type  4   force =    35.71071721    1.00049119  -25.41710609
     atom   21 type  4   force =   -35.58052224   -0.94139337   25.48312179
     atom   22 type  4   force =   -35.23271180    1.08836685  -25.87824520
     atom   23 type  5   force =    -4.55631587   -0.28840715   -0.73193455
     The core correction contribution to forces
     atom    1 type  1   force =     0.00168613    0.00009906   -0.00012196
     atom    2 type  1   force =    -0.01225903   -0.00168721   -0.00008014
     atom    3 type  1   force =    -0.01274551    0.00268074   -0.00185432
     atom    4 type  1   force =     0.01305879   -0.00254530    0.00315760
     atom    5 type  1   force =     0.01341268    0.00362576    0.00019644
     atom    6 type  2   force =    -0.00043547    0.00252656    0.00268809
     atom    7 type  2   force =     0.00082993   -0.00282413   -0.00207612
     atom    8 type  3   force =    -0.03266557    0.00071678    0.00006395
     atom    9 type  3   force =     0.01089193   -0.00541148   -0.00935515
     atom   10 type  3   force =    -0.02145736    0.00960251   -0.01611986
     atom   11 type  3   force =    -0.02423980    0.00911223    0.01810745
     atom   12 type  3   force =    -0.02193556   -0.01004045   -0.01533936
     atom   13 type  3   force =    -0.02301929   -0.00916193    0.01667070
     atom   14 type  3   force =     0.02230883    0.00990466   -0.01637650
     atom   15 type  3   force =     0.02410456    0.01037911    0.01394780
     atom   16 type  3   force =     0.02271906   -0.01125285   -0.01572478
     atom   17 type  3   force =     0.02336834   -0.00948135    0.01415563
     atom   18 type  4   force =     0.00019573   -0.00284282    0.00295946
     atom   19 type  4   force =    -0.00983674    0.00004779   -0.00956742
     atom   20 type  4   force =    -0.00953541    0.00056592    0.00890964
     atom   21 type  4   force =     0.00945870   -0.00006687   -0.00982252
     atom   22 type  4   force =     0.01020718    0.00029431    0.00966058
     atom   23 type  5   force =     0.00000000    0.00000000    0.00000000
     The Hubbard contrib.    to forces
     atom    1 type  1   force =     0.00000000    0.00000000    0.00000000
     atom    2 type  1   force =     0.00000000    0.00000000    0.00000000
     atom    3 type  1   force =     0.00000000    0.00000000    0.00000000
     atom    4 type  1   force =     0.00000000    0.00000000    0.00000000
     atom    5 type  1   force =     0.00000000    0.00000000    0.00000000
     atom    6 type  2   force =     0.00000000    0.00000000    0.00000000
     atom    7 type  2   force =     0.00000000    0.00000000    0.00000000
     atom    8 type  3   force =     0.00000000    0.00000000    0.00000000
     atom    9 type  3   force =     0.00000000    0.00000000    0.00000000
     atom   10 type  3   force =     0.00000000    0.00000000    0.00000000
     atom   11 type  3   force =     0.00000000    0.00000000    0.00000000
     atom   12 type  3   force =     0.00000000    0.00000000    0.00000000
     atom   13 type  3   force =     0.00000000    0.00000000    0.00000000
     atom   14 type  3   force =     0.00000000    0.00000000    0.00000000
     atom   15 type  3   force =     0.00000000    0.00000000    0.00000000
     atom   16 type  3   force =     0.00000000    0.00000000    0.00000000
     atom   17 type  3   force =     0.00000000    0.00000000    0.00000000
     atom   18 type  4   force =     0.00000000    0.00000000    0.00000000
     atom   19 type  4   force =     0.00000000    0.00000000    0.00000000
     atom   20 type  4   force =     0.00000000    0.00000000    0.00000000
     atom   21 type  4   force =     0.00000000    0.00000000    0.00000000
     atom   22 type  4   force =     0.00000000    0.00000000    0.00000000
     atom   23 type  5   force =     0.00000000    0.00000000    0.00000000
     The SCF correction term to forces
     atom    1 type  1   force =     0.00278274    0.00569292   -0.02012555
     atom    2 type  1   force =     0.01076307   -0.00366894   -0.01488699
     atom    3 type  1   force =     0.01046808    0.00365323   -0.01683102
     atom    4 type  1   force =    -0.00942417    0.00074349   -0.01758829
     atom    5 type  1   force =    -0.00958284    0.00088333   -0.01994152
     atom    6 type  2   force =     0.00755081    0.00116720   -0.00105838
     atom    7 type  2   force =     0.00122286   -0.00738088   -0.02528668
     atom    8 type  3   force =     0.01468538   -0.00068593   -0.01574404
     atom    9 type  3   force =    -0.03320802   -0.00934870   -0.03023886
     atom   10 type  3   force =     0.01294254   -0.01480797    0.00826371
     atom   11 type  3   force =     0.00425349    0.00099681   -0.00163477
     atom   12 type  3   force =     0.01535048    0.01235600    0.01038371
     atom   13 type  3   force =     0.00239485    0.00077940   -0.00231237
     atom   14 type  3   force =    -0.01136961   -0.01361565    0.01012477
     atom   15 type  3   force =    -0.00691856    0.00352604   -0.00164435
     atom   16 type  3   force =    -0.01472980    0.01272520    0.01157034
     atom   17 type  3   force =    -0.00575980   -0.00024931   -0.00140272
     atom   18 type  4   force =     0.00543506    0.00255094   -0.00441593
     atom   19 type  4   force =     0.00606598    0.00097019    0.01152427
     atom   20 type  4   force =    -0.00184440   -0.00155495   -0.00448619
     atom   21 type  4   force =    -0.00358766   -0.00010247    0.01838116
     atom   22 type  4   force =     0.00535254   -0.00219807   -0.00970918
     atom   23 type  5   force =     0.00241674    0.00051267    0.00069715

     Total force =     0.514624     Total SCF correction =     0.090359
     SCF correction compared to forces is large: reduce conv_thr to get better values


     Computing stress (Cartesian axis) and pressure


     negative rho (up, down):  9.089E-01 9.089E-01
          total   stress  (Ry/bohr**3)                   (kbar)     P=       84.23
   0.00068024   0.00000116   0.00000860          100.07        0.17        1.26
   0.00000116   0.00066817  -0.00000778            0.17       98.29       -1.14
   0.00000860  -0.00000778   0.00036929            1.26       -1.14       54.32


     Entering Dynamics:    iteration =     2
                           time      =   0.0004 pico-seconds


ATOMIC_POSITIONS (angstrom)
Hf            2.6701531964        2.8271645509        6.6040426538
Hf            1.2531312212        1.2863268341        5.0585432544
Hf            1.2556274568        7.3898502252        5.0881453535
Hf            4.0871763188        1.2863264357        5.0585428221
Hf            4.0846811097        7.3898501044        5.0881455168
Nb            2.6701512249        2.7969705108        3.5156608307
Nb            2.6701496618        5.8764257159        6.6350728746
Ta            1.2095134197        4.3409727981        5.0712027513
Ta            4.1307981966        4.3409726644        5.0712031473
Ta            1.3074042316        1.3141635681        2.0588492533
Ta            1.3029398028        1.3084315434        8.0946625877
Ta            1.3041612289        7.3758746086        2.0463077677
Ta            1.3078626335        7.3651308889        8.0860861057
Ta            4.0329040099        1.3141638598        2.0588494290
Ta            4.0373677198        1.3084312862        8.0946622437
Ta            4.0361467768        7.3758743522        2.0463081705
Ta            4.0324448094        7.3651316053        8.0860858204
Zr            2.6701527187        5.8663367677        3.5274583912
Zr            1.2439593930        4.3221214052        2.0000506473
Zr            1.2405092750        4.3541689385        8.1498577676
Zr            4.0963478561        4.3221208807        2.0000501960
Zr            4.0998029524        4.3541692446        8.1498560246
H             5.6069550526        4.7662265031        5.8105167560


     kinetic energy (Ekin) =           4.05027569 Ry
     temperature           =       19378.42283668 K 
     Ekin + Etot (const)   =       -2939.01812974 Ry
     Ions kinetic stress =           71.53 (kbar)
                                    161.04          46.46          80.41
                                     46.46          13.40          23.20
                                     80.41          23.20          40.15



     Linear momentum :    0.0000000000    0.0000000000    0.0000000000

     Writing config-only to output data dir outdir/pwscf.save/
     NEW-OLD atomic charge density approx. for the potential

     Check: negative core charge=   -0.000002

     negative rho (up, down):  9.089E-01 9.089E-01
     Generating pointlists ...
     new r_m :   0.0753 (alat units)  1.3289 (a.u.) for type    3
     new r_m :   0.0753 (alat units)  1.3289 (a.u.) for type    5

     total cpu time spent up to now is      539.5 secs

     Self-consistent Calculation

     iteration #  1     ecut=   120.00 Ry     beta= 0.70
     Davidson diagonalization with overlap
     ethr =  1.00E-06,  avg # of iterations = 11.5

     negative rho (up, down):  9.092E-01 9.092E-01

     total cpu time spent up to now is      593.2 secs

     total energy              =   -2943.04035125 Ry
     estimated scf accuracy    <       0.15507825 Ry

     total magnetization       =    -0.02 Bohr mag/cell
     absolute magnetization    =     0.02 Bohr mag/cell

     iteration #  2     ecut=   120.00 Ry     beta= 0.70
     Davidson diagonalization with overlap
     ethr =  5.60E-05,  avg # of iterations =  2.0

     negative rho (up, down):  9.091E-01 9.091E-01

     total cpu time spent up to now is      610.9 secs

     total energy              =   -2943.05045163 Ry
     estimated scf accuracy    <       0.09999823 Ry

     total magnetization       =    -0.02 Bohr mag/cell
     absolute magnetization    =     0.03 Bohr mag/cell

     iteration #  3     ecut=   120.00 Ry     beta= 0.70
     Davidson diagonalization with overlap
     ethr =  3.61E-05,  avg # of iterations =  1.0

     negative rho (up, down):  9.090E-01 9.090E-01

     total cpu time spent up to now is      626.6 secs

     total energy              =   -2943.05586733 Ry
     estimated scf accuracy    <       0.00232812 Ry

     total magnetization       =    -0.02 Bohr mag/cell
     absolute magnetization    =     0.02 Bohr mag/cell

     iteration #  4     ecut=   120.00 Ry     beta= 0.70
     Davidson diagonalization with overlap
     ethr =  8.40E-07,  avg # of iterations =  2.0

     negative rho (up, down):  9.089E-01 9.089E-01

     total cpu time spent up to now is      644.9 secs

     total energy              =   -2943.05593848 Ry
     estimated scf accuracy    <       0.00104246 Ry

     total magnetization       =    -0.01 Bohr mag/cell
     absolute magnetization    =     0.02 Bohr mag/cell

     iteration #  5     ecut=   120.00 Ry     beta= 0.70
     Davidson diagonalization with overlap
     ethr =  3.76E-07,  avg # of iterations =  5.0

     negative rho (up, down):  9.089E-01 9.089E-01

     Magnetic moment per site  (integrated on atomic sphere of radius R)
     atom   1 (R=0.112)  charge=  9.4640  magn= -0.0000
     atom   2 (R=0.112)  charge=  9.0581  magn= -0.0000
     atom   3 (R=0.112)  charge=  9.0579  magn= -0.0000
     atom   4 (R=0.112)  charge=  9.0579  magn= -0.0001
     atom   5 (R=0.112)  charge=  9.0570  magn= -0.0001
     atom   6 (R=0.110)  charge= 10.3507  magn=  0.0001
     atom   7 (R=0.110)  charge= 10.3492  magn= -0.0001
     atom   8 (R=0.075)  charge=  6.6197  magn= -0.0000
     atom   9 (R=0.075)  charge=  6.6284  magn= -0.0000
     atom  10 (R=0.075)  charge=  6.6031  magn= -0.0001
     atom  11 (R=0.075)  charge=  6.6007  magn= -0.0001
     atom  12 (R=0.075)  charge=  6.6027  magn= -0.0002
     atom  13 (R=0.075)  charge=  6.6020  magn=  0.0000
     atom  14 (R=0.075)  charge=  6.6016  magn= -0.0002
     atom  15 (R=0.075)  charge=  6.6004  magn= -0.0001
     atom  16 (R=0.075)  charge=  6.6019  magn= -0.0004
     atom  17 (R=0.075)  charge=  6.6024  magn= -0.0001
     atom  18 (R=0.111)  charge=  9.4549  magn=  0.0001
     atom  19 (R=0.111)  charge=  8.9991  magn= -0.0008
     atom  20 (R=0.111)  charge=  8.9968  magn=  0.0001
     atom  21 (R=0.111)  charge=  8.9974  magn= -0.0009
     atom  22 (R=0.111)  charge=  8.9912  magn= -0.0001
     atom  23 (R=0.075)  charge=  0.9136  magn= -0.0000

     total cpu time spent up to now is      668.3 secs

     End of self-consistent calculation

 ------ SPIN UP ------------


          k = 0.0000 0.0000 0.0000 ( 61588 PWs)   bands (ev):

   -60.7800 -60.7717 -60.7352 -60.7246 -60.7020 -60.6917 -60.6569 -60.6493
   -60.4919 -60.2352 -54.3906 -54.3418 -54.2637 -54.2160 -52.6906 -46.2588
   -46.2541 -41.6591 -41.6281 -41.5491 -41.5275 -39.7936 -27.7797 -27.7739
   -27.6955 -27.6864 -27.5918 -27.5849 -27.4656 -27.4569 -27.3483 -27.3308
   -27.2760 -27.2685 -27.2530 -27.2334 -27.2226 -27.1680 -27.1618 -27.1260
   -27.0636 -26.9728 -26.9586 -26.9526 -26.9439 -26.9251 -26.8887 -26.8836
   -26.8775 -26.8554 -26.8515 -26.8031 -24.1734 -23.9626 -23.6608 -23.5766
   -23.3185 -23.1840 -23.1642 -23.0599 -22.9330 -22.8683 -22.8451 -22.6278
   -22.5026 -22.4521 -22.3945 -22.3503 -22.2786 -22.2311 -21.7538 -21.6878
   -21.6223 -20.1950 -19.9592 -19.8307 -19.8222 -19.6359 -19.6079 -19.5960
   -19.5782 -19.5735 -19.5353 -19.3816 -19.3685 -18.1420 -17.9348 -17.8123
     1.4264   2.7214   2.9306   3.1408   3.2989   3.4603   3.4950   3.6885
     3.7428   3.8412   3.9196   4.0437   4.2617   4.5023   4.6356   4.6826
     4.7420   4.8612   5.0515   5.0714   5.1421   5.2661   5.2915   5.3076
     5.4009   5.5596   5.5890   5.7275   5.7389   5.7551   5.7738   5.7880
     5.9332   6.1014   6.1672   6.2290   6.2710   6.3205   6.3663   6.3753
     6.4561   6.6409   6.6677   6.6939   6.8938   6.9381   7.0079   7.0471
     7.0998   7.1492   7.2654   7.3018   7.3216   7.4297   7.5502   7.5711
     7.6195   7.6852   7.8958   7.9461   8.0864   8.0912   8.1210   8.1908
     8.2537   8.3403   8.3541   8.3722   8.4977   8.5370   8.6278   8.7247
     8.7926   8.9019   8.9549   9.0646   9.1774   9.2471   9.2894

 ------ SPIN DOWN ----------


          k = 0.0000 0.0000 0.0000 ( 61588 PWs)   bands (ev):

   -60.7804 -60.7717 -60.7356 -60.7247 -60.7025 -60.6919 -60.6573 -60.6494
   -60.4919 -60.2352 -54.3906 -54.3418 -54.2637 -54.2161 -52.6907 -46.2588
   -46.2540 -41.6591 -41.6289 -41.5490 -41.5283 -39.7935 -27.7802 -27.7741
   -27.6960 -27.6866 -27.5922 -27.5851 -27.4659 -27.4574 -27.3485 -27.3311
   -27.2761 -27.2689 -27.2531 -27.2337 -27.2228 -27.1683 -27.1620 -27.1261
   -27.0636 -26.9730 -26.9590 -26.9527 -26.9442 -26.9254 -26.8889 -26.8839
   -26.8778 -26.8559 -26.8517 -26.8032 -24.1734 -23.9626 -23.6608 -23.5766
   -23.3185 -23.1840 -23.1642 -23.0600 -22.9330 -22.8683 -22.8451 -22.6278
   -22.5026 -22.4521 -22.3945 -22.3503 -22.2786 -22.2311 -21.7539 -21.6878
   -21.6224 -20.1958 -19.9591 -19.8317 -19.8229 -19.6360 -19.6080 -19.5966
   -19.5782 -19.5742 -19.5352 -19.3816 -19.3696 -18.1420 -17.9348 -17.8124
     1.4262   2.7213   2.9301   3.1407   3.2988   3.4599   3.4947   3.6884
     3.7425   3.8410   3.9191   4.0433   4.2615   4.5021   4.6354   4.6824
     4.7417   4.8608   5.0510   5.0711   5.1418   5.2657   5.2913   5.3074
     5.4004   5.5594   5.5889   5.7271   5.7385   5.7549   5.7737   5.7876
     5.9330   6.1009   6.1669   6.2287   6.2707   6.3202   6.3661   6.3749
     6.4557   6.6407   6.6674   6.6936   6.8932   6.9376   7.0068   7.0465
     7.0984   7.1483   7.2644   7.3005   7.3212   7.4284   7.5499   7.5698
     7.6188   7.6847   7.8954   7.9458   8.0856   8.0907   8.1206   8.1899
     8.2528   8.3400   8.3533   8.3717   8.4973   8.5364   8.6274   8.7242
     8.7922   8.9004   8.9543   9.0642   9.1771   9.2467   9.2754

     the Fermi energy is     7.2386 ev

!    total energy              =   -2943.05589707 Ry
     estimated scf accuracy    <       0.00014311 Ry
     smearing contrib. (-TS)   =      -0.10101416 Ry
     internal energy E=F+TS    =   -2942.95488291 Ry

     total magnetization       =    -0.01 Bohr mag/cell
     absolute magnetization    =     0.02 Bohr mag/cell

     convergence has been achieved in   5 iterations

     negative rho (up, down):  9.089E-01 9.089E-01

     Forces acting on atoms (cartesian axes, Ry/au):

     atom    1 type  1   force =    -0.00579335   -0.02300984    0.00891884
     atom    2 type  1   force =    -0.11574513   -0.01512819   -0.00377025
     atom    3 type  1   force =    -0.11556116    0.01270276    0.00090099
     atom    4 type  1   force =     0.11287157   -0.01777858   -0.00801824
     atom    5 type  1   force =     0.12080188    0.01222543    0.00226439
     atom    6 type  2   force =    -0.01257413   -0.02166041    0.00347857
     atom    7 type  2   force =    -0.01854325    0.01137637   -0.00837429
     atom    8 type  3   force =    -0.12160711    0.00477549    0.00040130
     atom    9 type  3   force =     0.08365348   -0.01977809   -0.03920972
     atom   10 type  3   force =    -0.01888492   -0.03140456   -0.05710428
     atom   11 type  3   force =    -0.02118580   -0.03508891    0.05784720
     atom   12 type  3   force =    -0.01882984    0.03652342   -0.05382477
     atom   13 type  3   force =    -0.01799393    0.02993288    0.06217171
     atom   14 type  3   force =     0.02321778   -0.02857751   -0.05583849
     atom   15 type  3   force =     0.01869196   -0.03771818    0.05476409
     atom   16 type  3   force =     0.02063100    0.03416755   -0.05003751
     atom   17 type  3   force =     0.01439745    0.03665064    0.05995643
     atom   18 type  4   force =    -0.00471866    0.02897332   -0.01062597
     atom   19 type  4   force =    -0.12857891   -0.00435672   -0.11422516
     atom   20 type  4   force =    -0.13222942    0.00508389    0.11192678
     atom   21 type  4   force =     0.12620484   -0.00687671   -0.11618716
     atom   22 type  4   force =     0.14698120    0.00649776    0.10629792
     atom   23 type  5   force =     0.06479445    0.02246819    0.04828764
     The non-local contrib.  to forces
     atom    1 type  1   force =    -0.00555323   -0.01298615    0.03437982
     atom    2 type  1   force =    -0.24534843   -0.16263696    0.01470586
     atom    3 type  1   force =    -0.24020753    0.15717910   -0.02595285
     atom    4 type  1   force =     0.25201345   -0.16373127    0.02446829
     atom    5 type  1   force =     0.25897532    0.14768147   -0.01467209
     atom    6 type  2   force =     0.00849611   -0.05784203   -0.06642281
     atom    7 type  2   force =    -0.02184551    0.05736825    0.05747945
     atom    8 type  3   force =    -0.26213566    0.00153303   -0.00196216
     atom    9 type  3   force =     0.03359953   -0.05543639   -0.09367675
     atom   10 type  3   force =    -0.21088149    0.00322019   -0.20858589
     atom   11 type  3   force =    -0.21416487    0.00958998    0.19614484
     atom   12 type  3   force =    -0.20360037   -0.02044412   -0.17809576
     atom   13 type  3   force =    -0.20674070   -0.00810059    0.20553813
     atom   14 type  3   force =     0.20377455    0.00441299   -0.22014514
     atom   15 type  3   force =     0.21927189    0.00306136    0.18797851
     atom   16 type  3   force =     0.19599566   -0.01984787   -0.18674983
     atom   17 type  3   force =     0.22596609   -0.00961876    0.19266926
     atom   18 type  4   force =    -0.00534104    0.05720721   -0.06330708
     atom   19 type  4   force =     0.06360502    0.00931862    0.07435295
     atom   20 type  4   force =     0.05506484   -0.01663273   -0.06178281
     atom   21 type  4   force =    -0.05615911    0.01160135    0.07625636
     atom   22 type  4   force =    -0.05994681   -0.00958774   -0.07770232
     atom   23 type  5   force =    -0.06058375   -0.01733023   -0.02644190
     The ionic contribution  to forces
     atom    1 type  1   force =    -0.31617073   -4.78031952   14.05994736
     atom    2 type  1   force =   -39.68592071   -6.16668428    0.74020905
     atom    3 type  1   force =   -39.67031599    6.19153504   -0.76080143
     atom    4 type  1   force =    39.48821768   -6.31979929    0.68743182
     atom    5 type  1   force =    39.32173229    6.55138153   -0.87038400
     atom    6 type  2   force =    -0.19294904   -3.65392254  -14.03744704
     atom    7 type  2   force =    -0.49516468    3.75804922   14.04320926
     atom    8 type  3   force =   -52.14965640    0.03576179   -0.14107403
     atom    9 type  3   force =    49.96089077   -0.53412795   -1.13595846
     atom   10 type  3   force =   -36.05497410   -2.10670225  -23.08061471
     atom   11 type  3   force =   -35.13929428   -0.87582218   22.11265658
     atom   12 type  3   force =   -35.24225435    0.82569386  -22.14288238
     atom   13 type  3   force =   -36.04765918    2.23765697   23.10671921
     atom   14 type  3   force =    35.97106162   -2.13624040  -23.13052956
     atom   15 type  3   force =    34.99379642   -0.95754847   22.20462839
     atom   16 type  3   force =    35.13901071    0.87700135  -22.21721657
     atom   17 type  3   force =    35.83293749    2.40083428   23.26993139
     atom   18 type  4   force =    -0.23977002    4.43123029  -14.03992645
     atom   19 type  4   force =   -35.89915719    0.94355273  -25.55731282
     atom   20 type  4   force =   -35.90535743   -0.97500577   25.58769624
     atom   21 type  4   force =    35.75483724    0.92305852  -25.70776437
     atom   22 type  4   force =    35.44810975   -1.06421237   26.09735198
     atom   23 type  5   force =     5.12805014    0.39462944    0.91213051
     The local contribution  to forces
     atom    1 type  1   force =     0.31251507    4.77227767  -14.09308239
     atom    2 type  1   force =    39.83074786    6.31713786   -0.76738969
     atom    3 type  1   force =    39.81025866   -6.33868824    0.78106041
     atom    4 type  1   force =   -39.64503834    6.46930746   -0.73145045
     atom    5 type  1   force =   -39.47888628   -6.68879276    0.87850230
     atom    6 type  2   force =     0.17033732    3.68733823   14.10122371
     atom    7 type  2   force =     0.49434994   -3.80473781  -14.11704541
     atom    8 type  3   force =    52.32696707   -0.03447761    0.13525764
     atom    9 type  3   force =   -49.93029797    0.57340297    1.19129357
     atom   10 type  3   force =    36.27076876    2.06092535   23.25164357
     atom   11 type  3   force =    35.36142521    0.82437292  -22.26903944
     atom   12 type  3   force =    35.45035124   -0.75535140   22.28550602
     atom   13 type  3   force =    36.26308920   -2.19154790  -23.26638973
     atom   14 type  3   force =   -36.17866964    2.09245080   23.31439037
     atom   15 type  3   force =   -35.22506990    0.90870364  -22.35167452
     atom   16 type  3   force =   -35.34096938   -0.80892884   22.37234397
     atom   17 type  3   force =   -36.07425433   -2.34505156  -23.41646268
     atom   18 type  4   force =     0.23811539   -4.45777691   14.08664001
     atom   19 type  4   force =    35.71787610   -0.95844468   25.38309907
     atom   20 type  4   force =    35.73173898    0.99524159  -25.42521687
     atom   21 type  4   force =   -35.58494723   -0.94281894   25.52986772
     atom   22 type  4   force =   -35.26087537    1.07801471  -25.92241122
     atom   23 type  5   force =    -5.00418515   -0.35505581   -0.83930221
     The core correction contribution to forces
     atom    1 type  1   force =     0.00176240    0.00014527   -0.00035467
     atom    2 type  1   force =    -0.01222181   -0.00184161    0.00002087
     atom    3 type  1   force =    -0.01261372    0.00281829   -0.00180387
     atom    4 type  1   force =     0.01292502   -0.00273510    0.00305632
     atom    5 type  1   force =     0.01333817    0.00357809    0.00013028
     atom    6 type  2   force =    -0.00042188    0.00270798    0.00280622
     atom    7 type  2   force =     0.00079643   -0.00280055   -0.00208143
     atom    8 type  3   force =    -0.03210242    0.00065680    0.00002547
     atom    9 type  3   force =     0.00796513   -0.00613148   -0.01146223
     atom   10 type  3   force =    -0.02126611    0.00966491   -0.01607035
     atom   11 type  3   force =    -0.02441211    0.00918529    0.01814065
     atom   12 type  3   force =    -0.02180774   -0.01013791   -0.01533062
     atom   13 type  3   force =    -0.02313453   -0.00921489    0.01668886
     atom   14 type  3   force =     0.02227779    0.00990020   -0.01637801
     atom   15 type  3   force =     0.02416444    0.01023612    0.01410568
     atom   16 type  3   force =     0.02259204   -0.01124363   -0.01567053
     atom   17 type  3   force =     0.02329687   -0.00930907    0.01460202
     atom   18 type  4   force =     0.00024996   -0.00291106    0.00304859
     atom   19 type  4   force =    -0.00989159    0.00003122   -0.00965407
     atom   20 type  4   force =    -0.00954248    0.00054122    0.00895632
     atom   21 type  4   force =     0.00949264   -0.00007905   -0.00989946
     atom   22 type  4   force =     0.01023150    0.00032883    0.00946578
     atom   23 type  5   force =     0.00000000    0.00000000    0.00000000
     The Hubbard contrib.    to forces
     atom    1 type  1   force =     0.00000000    0.00000000    0.00000000
     atom    2 type  1   force =     0.00000000    0.00000000    0.00000000
     atom    3 type  1   force =     0.00000000    0.00000000    0.00000000
     atom    4 type  1   force =     0.00000000    0.00000000    0.00000000
     atom    5 type  1   force =     0.00000000    0.00000000    0.00000000
     atom    6 type  2   force =     0.00000000    0.00000000    0.00000000
     atom    7 type  2   force =     0.00000000    0.00000000    0.00000000
     atom    8 type  3   force =     0.00000000    0.00000000    0.00000000
     atom    9 type  3   force =     0.00000000    0.00000000    0.00000000
     atom   10 type  3   force =     0.00000000    0.00000000    0.00000000
     atom   11 type  3   force =     0.00000000    0.00000000    0.00000000
     atom   12 type  3   force =     0.00000000    0.00000000    0.00000000
     atom   13 type  3   force =     0.00000000    0.00000000    0.00000000
     atom   14 type  3   force =     0.00000000    0.00000000    0.00000000
     atom   15 type  3   force =     0.00000000    0.00000000    0.00000000
     atom   16 type  3   force =     0.00000000    0.00000000    0.00000000
     atom   17 type  3   force =     0.00000000    0.00000000    0.00000000
     atom   18 type  4   force =     0.00000000    0.00000000    0.00000000
     atom   19 type  4   force =     0.00000000    0.00000000    0.00000000
     atom   20 type  4   force =     0.00000000    0.00000000    0.00000000
     atom   21 type  4   force =     0.00000000    0.00000000    0.00000000
     atom   22 type  4   force =     0.00000000    0.00000000    0.00000000
     atom   23 type  5   force =     0.00000000    0.00000000    0.00000000
     The SCF correction term to forces
     atom    1 type  1   force =     0.00148975   -0.00208200    0.00743845
     atom    2 type  1   force =    -0.00316543   -0.00105809    0.00809339
     atom    3 type  1   force =    -0.00284597   -0.00009632    0.00780846
     atom    4 type  1   force =     0.00459036   -0.00077526    0.00788550
     atom    5 type  1   force =     0.00547899   -0.00157777    0.00809762
     atom    6 type  2   force =     0.00179997    0.00010306    0.00272822
     atom    7 type  2   force =     0.00315717    0.00354237    0.00947357
     atom    8 type  3   force =    -0.00484309    0.00134658    0.00756410
     atom    9 type  3   force =     0.01133263    0.00255987    0.01000388
     atom   10 type  3   force =    -0.00269538    0.00153235   -0.00406717
     atom   11 type  3   force =    -0.00490315   -0.00236981   -0.00064570
     atom   12 type  3   force =    -0.00168200   -0.00319190   -0.00361231
     atom   13 type  3   force =    -0.00371212    0.00118439   -0.00097503
     atom   14 type  3   force =     0.00461006    0.00094403   -0.00376643
     atom   15 type  3   force =     0.00636572   -0.00212571   -0.00086423
     atom   16 type  3   force =     0.00383857   -0.00276834   -0.00333483
     atom   17 type  3   force =     0.00628794   -0.00015914   -0.00137383
     atom   18 type  4   force =     0.00186366    0.00126889    0.00232868
     atom   19 type  4   force =    -0.00117464    0.00123050   -0.00530056
     atom   20 type  4   force =    -0.00429672    0.00098470    0.00168365
     atom   21 type  4   force =     0.00281792    0.00140653   -0.00523767
     atom   22 type  4   force =     0.00929874    0.00199943   -0.00099657
     atom   23 type  5   force =     0.00134982    0.00026990    0.00131096

     Total force =     0.498439     Total SCF correction =     0.035801


     Computing stress (Cartesian axis) and pressure


     negative rho (up, down):  9.089E-01 9.089E-01
          total   stress  (Ry/bohr**3)                   (kbar)     P=       86.36
   0.00072463   0.00001003   0.00002263          106.60        1.48        3.33
   0.00001003   0.00066063  -0.00000328            1.48       97.18       -0.48
   0.00002263  -0.00000328   0.00037599            3.33       -0.48       55.31


[...]
     4.7460   4.8744   5.0571   5.0808   5.1544   5.2741   5.2973   5.3207
     5.4063   5.5654   5.6098   5.7360   5.7475   5.7622   5.7781   5.7973
     5.9383   6.1040   6.1667   6.2393   6.2842   6.3287   6.3774   6.3805
     6.4592   6.6481   6.6778   6.7045   6.9064   6.9516   7.0122   7.0552
     7.1044   7.1546   7.2657   7.3060   7.3267   7.4355   7.5521   7.5639
     7.6275   7.6869   7.9039   7.9652   8.0914   8.0976   8.1285   8.1920
     8.2614   8.3555   8.3620   8.3811   8.5115   8.5473   8.6361   8.7334
     8.7996   8.9052   8.9622   9.0715   9.1958   9.2591   9.2808

     the Fermi energy is     7.2439 ev

!    total energy              =   -2943.03558041 Ry
     estimated scf accuracy    <       0.00034076 Ry
     smearing contrib. (-TS)   =      -0.10201443 Ry
     internal energy E=F+TS    =   -2942.93356598 Ry

     total magnetization       =    -0.00 Bohr mag/cell
     absolute magnetization    =     0.00 Bohr mag/cell

     convergence has been achieved in   4 iterations

     negative rho (up, down):  9.089E-01 9.089E-01

     Forces acting on atoms (cartesian axes, Ry/au):

     atom    1 type  1   force =    -0.00601861   -0.02394118    0.01413753
     atom    2 type  1   force =    -0.11647386   -0.01446834    0.00451879
     atom    3 type  1   force =    -0.11567915    0.01167000    0.00881312
     atom    4 type  1   force =     0.11292247   -0.01610387   -0.00021848
     atom    5 type  1   force =     0.12005376    0.01025287    0.01030366
     atom    6 type  2   force =    -0.01699458   -0.02486427   -0.00352262
     atom    7 type  2   force =    -0.01958461    0.01129140   -0.00766636
     atom    8 type  3   force =    -0.12378609    0.00570189    0.00305103
     atom    9 type  3   force =     0.03575719   -0.03680022   -0.06951686
     atom   10 type  3   force =    -0.01857411   -0.02935202   -0.06107403
     atom   11 type  3   force =    -0.02185241   -0.03518654    0.05614922
     atom   12 type  3   force =    -0.01911866    0.03516683   -0.05856179
     atom   13 type  3   force =    -0.01810557    0.03079762    0.06015781
     atom   14 type  3   force =     0.02306529   -0.02699718   -0.05999203
     atom   15 type  3   force =     0.01873519   -0.03891241    0.05336508
     atom   16 type  3   force =     0.02061302    0.03310474   -0.05452055
     atom   17 type  3   force =     0.01419425    0.03809549    0.05805671
     atom   18 type  4   force =    -0.00604565    0.02934111   -0.01278929
     atom   19 type  4   force =    -0.12655856   -0.00409428   -0.11650417
     atom   20 type  4   force =    -0.13152438    0.00488862    0.10993174
     atom   21 type  4   force =     0.12391227   -0.00684174   -0.11927774
     atom   22 type  4   force =     0.14610720    0.00663496    0.10186773
     atom   23 type  5   force =     0.12495560    0.04061652    0.08329149
     The non-local contrib.  to forces
     atom    1 type  1   force =    -0.00333865   -0.01188201    0.03398697
     atom    2 type  1   force =    -0.24569597   -0.16272611    0.01953418
     atom    3 type  1   force =    -0.24046863    0.15678261   -0.02087592
     atom    4 type  1   force =     0.25202926   -0.16459878    0.02998212
     atom    5 type  1   force =     0.25911754    0.14655626   -0.01022309
     atom    6 type  2   force =     0.01113053   -0.05882736   -0.06353890
     atom    7 type  2   force =    -0.01954818    0.06027398    0.05740214
     atom    8 type  3   force =    -0.25716551    0.00115467    0.00019270
     atom    9 type  3   force =     0.02789077   -0.05613634   -0.10123376
     atom   10 type  3   force =    -0.21192405    0.00286673   -0.21236065
     atom   11 type  3   force =    -0.21389089    0.00938561    0.19546453
     atom   12 type  3   force =    -0.20450490   -0.02093115   -0.18034490
     atom   13 type  3   force =    -0.20492982   -0.00752203    0.20448820
     atom   14 type  3   force =     0.20505445    0.00485955   -0.22280564
     atom   15 type  3   force =     0.21807350    0.00094940    0.18634925
     atom   16 type  3   force =     0.19588955   -0.01993995   -0.18853188
     atom   17 type  3   force =     0.22188672   -0.00592373    0.19354545
     atom   18 type  4   force =    -0.00440772    0.05755769   -0.06053305
     atom   19 type  4   force =     0.06310850    0.00966538    0.07214823
     atom   20 type  4   force =     0.05370476   -0.01694282   -0.06241664
     atom   21 type  4   force =    -0.05674820    0.01188816    0.07629451
     atom   22 type  4   force =    -0.05799187   -0.01031735   -0.07763873
     atom   23 type  5   force =    -0.06888749   -0.02096839   -0.03380010
     The ionic contribution  to forces
     atom    1 type  1   force =    -0.32159034   -4.80679793   14.20247449
     atom    2 type  1   force =   -39.70507210   -6.18338166    0.75492650
     atom    3 type  1   force =   -39.67682609    6.19100266   -0.74549661
     atom    4 type  1   force =    39.53118777   -6.36655624    0.72096737
     atom    5 type  1   force =    39.37550768    6.50584608   -0.83701925
     atom    6 type  2   force =    -0.30493660   -3.79286342  -14.20121877
     atom    7 type  2   force =    -0.44958914    3.77705908   14.12661038
     atom    8 type  3   force =   -52.32750393    0.05706669   -0.10174052
     atom    9 type  3   force =    49.64836378   -0.49326503   -1.20991400
     atom   10 type  3   force =   -36.05072387   -2.10233516  -23.06599207
     atom   11 type  3   force =   -35.12728752   -0.86161731   22.08676379
     atom   12 type  3   force =   -35.23681502    0.81519305  -22.12438792
     atom   13 type  3   force =   -36.03043503    2.21599854   23.07544747
     atom   14 type  3   force =    35.96996977   -2.14401312  -23.12330971
     atom   15 type  3   force =    34.99599185   -0.93735048   22.17186474
     atom   16 type  3   force =    35.14353017    0.86684274  -22.19369956
     atom   17 type  3   force =    35.83750190    2.36109156   23.21904626
     atom   18 type  4   force =    -0.28378764    4.54740471  -14.12872889
     atom   19 type  4   force =   -35.89052042    0.94725442  -25.51760515
     atom   20 type  4   force =   -35.87301922   -0.96712321   25.52283468
     atom   21 type  4   force =    35.76143204    0.93889016  -25.71454630
     atom   22 type  4   force =    35.45868185   -1.04650883   25.98416133
     atom   23 type  5   force =     5.55594012    0.47816268    1.09856175
     The local contribution  to forces
     atom    1 type  1   force =     0.31825862    4.79300371  -14.21457195
     atom    2 type  1   force =    39.84775479    6.33580944   -0.75073693
     atom    3 type  1   force =    39.81575448   -6.34097107    0.79642260
     atom    4 type  1   force =   -39.68479950    6.52120788   -0.73506230
     atom    5 type  1   force =   -39.52974734   -6.64871078    0.87547214
     atom    6 type  2   force =     0.27894078    3.83314899   14.27332980
     atom    7 type  2   force =     0.44903019   -3.82335723  -14.18392080
     atom    8 type  3   force =    52.50055553   -0.05397797    0.12058577
     atom    9 type  3   force =   -49.65967434    0.51518531    1.26561821
     atom   10 type  3   force =    36.26818849    2.06228535   23.21965630
     atom   11 type  3   force =    35.34536574    0.80204251  -22.24215430
     atom   12 type  3   force =    35.44610470   -0.74830551   22.24889646
     atom   13 type  3   force =    36.23980742   -2.15998949  -23.23601970
     atom   14 type  3   force =   -36.17890783    2.10537434   23.29079600
     atom   15 type  3   force =   -35.22242740    0.88412102  -22.31802037
     atom   16 type  3   force =   -35.34537777   -0.80333104   22.33310484
     atom   17 type  3   force =   -36.07077920   -2.29995019  -23.36934007
     atom   18 type  4   force =     0.28334867   -4.58120185   14.18840422
     atom   19 type  4   force =    35.71444291   -0.96292061   25.33203534
     atom   20 type  4   force =    35.69407473    0.98654720  -25.36071051
     atom   21 type  4   force =   -35.59514329   -0.95938996   25.52488826
     atom   22 type  4   force =   -35.25896821    1.06008289  -25.81854686
     atom   23 type  5   force =    -5.36027138   -0.41646230   -0.97841367
     The core correction contribution to forces
     atom    1 type  1   force =     0.00197140    0.00038239   -0.00078348
     atom    2 type  1   force =    -0.01220651   -0.00189817    0.00009280
     atom    3 type  1   force =    -0.01259126    0.00282026   -0.00177956
     atom    4 type  1   force =     0.01284146   -0.00278851    0.00305838
     atom    5 type  1   force =     0.01339652    0.00340114    0.00007057
     atom    6 type  2   force =    -0.00053115    0.00283287    0.00276335
     atom    7 type  2   force =     0.00076189   -0.00296837   -0.00207422
     atom    8 type  3   force =    -0.03161195    0.00060050    0.00003029
     atom    9 type  3   force =     0.00700067   -0.00629522   -0.01295082
     atom   10 type  3   force =    -0.02131887    0.00953646   -0.01618771
     atom   11 type  3   force =    -0.02447477    0.00918494    0.01814981
     atom   12 type  3   force =    -0.02192001   -0.01010941   -0.01538920
     atom   13 type  3   force =    -0.02297759   -0.00926255    0.01658844
     atom   14 type  3   force =     0.02231717    0.00978342   -0.01648437
     atom   15 type  3   force =     0.02403110    0.01007044    0.01406482
     atom   16 type  3   force =     0.02254876   -0.01109887   -0.01577366
     atom   17 type  3   force =     0.02291624   -0.00916245    0.01484610
     atom   18 type  4   force =     0.00025115   -0.00296404    0.00304985
     atom   19 type  4   force =    -0.00982373    0.00000408   -0.00962022
     atom   20 type  4   force =    -0.00949625    0.00055468    0.00898615
     atom   21 type  4   force =     0.00950575   -0.00010065   -0.01000469
     atom   22 type  4   force =     0.01024544    0.00037804    0.00934277
     atom   23 type  5   force =     0.00000000    0.00000000    0.00000000
     The Hubbard contrib.    to forces
     atom    1 type  1   force =     0.00000000    0.00000000    0.00000000
     atom    2 type  1   force =     0.00000000    0.00000000    0.00000000
     atom    3 type  1   force =     0.00000000    0.00000000    0.00000000
     atom    4 type  1   force =     0.00000000    0.00000000    0.00000000
     atom    5 type  1   force =     0.00000000    0.00000000    0.00000000
     atom    6 type  2   force =     0.00000000    0.00000000    0.00000000
     atom    7 type  2   force =     0.00000000    0.00000000    0.00000000
     atom    8 type  3   force =     0.00000000    0.00000000    0.00000000
     atom    9 type  3   force =     0.00000000    0.00000000    0.00000000
     atom   10 type  3   force =     0.00000000    0.00000000    0.00000000
     atom   11 type  3   force =     0.00000000    0.00000000    0.00000000
     atom   12 type  3   force =     0.00000000    0.00000000    0.00000000
     atom   13 type  3   force =     0.00000000    0.00000000    0.00000000
     atom   14 type  3   force =     0.00000000    0.00000000    0.00000000
     atom   15 type  3   force =     0.00000000    0.00000000    0.00000000
     atom   16 type  3   force =     0.00000000    0.00000000    0.00000000
     atom   17 type  3   force =     0.00000000    0.00000000    0.00000000
     atom   18 type  4   force =     0.00000000    0.00000000    0.00000000
     atom   19 type  4   force =     0.00000000    0.00000000    0.00000000
     atom   20 type  4   force =     0.00000000    0.00000000    0.00000000
     atom   21 type  4   force =     0.00000000    0.00000000    0.00000000
     atom   22 type  4   force =     0.00000000    0.00000000    0.00000000
     atom   23 type  5   force =     0.00000000    0.00000000    0.00000000
     The SCF correction term to forces
     atom    1 type  1   force =    -0.00122322    0.00129627   -0.00604205
     atom    2 type  1   force =    -0.00115763   -0.00232822   -0.01837130
     atom    3 type  1   force =    -0.00145122    0.00197915   -0.01853093
     atom    4 type  1   force =     0.00175992   -0.00342460   -0.01823760
     atom    5 type  1   force =     0.00187580    0.00310380   -0.01707026
     atom    6 type  2   force =    -0.00150171   -0.00921173   -0.01393166
     atom    7 type  2   force =    -0.00014293    0.00022756   -0.00475740
     atom    8 type  3   force =    -0.00796378    0.00080162   -0.01509076
     atom    9 type  3   force =     0.01227275    0.00365468   -0.01011004
     atom   10 type  3   force =    -0.00269937   -0.00176178    0.01473655
     atom   11 type  3   force =    -0.00146852    0.00576132   -0.00114815
     atom   12 type  3   force =    -0.00188699   -0.00073655    0.01359022
     atom   13 type  3   force =     0.00052588   -0.00848324    0.00057985
     atom   14 type  3   force =     0.00472817   -0.00305777    0.01273814
     atom   15 type  3   force =     0.00316259    0.00324084    0.00003309
     atom   16 type  3   force =     0.00411875    0.00057549    0.01130616
     atom   17 type  3   force =     0.00276504   -0.00801608    0.00088543
     atom   18 type  4   force =    -0.00135368    0.00848822   -0.01405496
     atom   19 type  4   force =    -0.00366938    0.00184608    0.00746409
     atom   20 type  4   force =     0.00330804    0.00179639    0.00216451
     atom   21 type  4   force =     0.00496240    0.00181416    0.00501694
     atom   22 type  4   force =    -0.00576358    0.00294383    0.00547567
     atom   23 type  5   force =    -0.00172922   -0.00017185   -0.00213004

     Total force =     0.514442     Total SCF correction =     0.060832
     SCF correction compared to forces is large: reduce conv_thr to get better values


     Computing stress (Cartesian axis) and pressure


     negative rho (up, down):  9.089E-01 9.089E-01
          total   stress  (Ry/bohr**3)                   (kbar)     P=       87.71
   0.00074099   0.00001782   0.00003807          109.00        2.62        5.60
   0.00001782   0.00066528   0.00000131            2.62       97.87        0.19
   0.00003807   0.00000131   0.00038239            5.60        0.19       56.25


     Entering Dynamics:    iteration =    20
                           time      =   0.0041 pico-seconds


ATOMIC_POSITIONS (angstrom)
Hf            2.6715617244        2.8273349426        6.6048688169
Hf            1.2531700205        1.2865536254        5.0592239532
Hf            1.2556745894        7.3903841147        5.0888788418
Hf            4.0898721043        1.2865477458        5.0591833962
Hf            4.0874435657        7.3903813779        5.0888902859
Nb            2.6715318166        2.7970302745        3.5165171219
Nb            2.6713294343        5.8770338393        6.6355569059
Ta            1.2094839171        4.3414699253        5.0719779438
Ta            4.1082213538        4.3337824057        5.0582728907
Ta            1.3085464473        1.3142087889        2.0589108847
Ta            1.3040715846        1.3084205224        8.0959875006
Ta            1.3053288128        7.3766713752        2.0463846677
Ta            1.3090275092        7.3658749509        8.0874528542
Ta            4.0345347902        1.3142784290        2.0589172606
Ta            4.0389787264        1.3084209826        8.0959670502
Ta            4.0377673609        7.3766353394        2.0464152226
Ta            4.0340089430        7.3659084914        8.0874268995
Zr            2.6715298709        5.8673425492        3.5279583154
Zr            1.2424651029        4.3224388712        1.9981772786
Zr            1.2389293312        4.3546713476        8.1530380057
Zr            4.1005883406        4.3223907268        1.9981008718
Zr            4.1042995896        4.3546933702        8.1530289041
H             5.5935969582        4.7798454889        5.8744633355


     kinetic energy (Ekin) =           4.01835880 Ry
     temperature           =       19225.71742074 K 
     Ekin + Etot (const)   =       -2939.01722161 Ry
     Ions kinetic stress =           70.97 (kbar)
                                    150.36          45.89          85.22
                                     45.89          14.04          26.05
                                     85.22          26.05          48.51



     Linear momentum :   -0.0000000000    0.0000000000   -0.0000000000

     The maximum number of steps has been reached.

     End of molecular dynamics calculation

     diffusion coefficients :
     atom     1   D =       0.00000001 cm^2/s
     atom     2   D =       0.00000000 cm^2/s
     atom     3   D =       0.00000000 cm^2/s
     atom     4   D =       0.00000004 cm^2/s
     atom     5   D =       0.00000004 cm^2/s
     atom     6   D =       0.00000001 cm^2/s
     atom     7   D =       0.00000001 cm^2/s
     atom     8   D =       0.00000000 cm^2/s
     atom     9   D =       0.00000295 cm^2/s
     atom    10   D =       0.00000001 cm^2/s
     atom    11   D =       0.00000001 cm^2/s
     atom    12   D =       0.00000001 cm^2/s
     atom    13   D =       0.00000002 cm^2/s
     atom    14   D =       0.00000001 cm^2/s
     atom    15   D =       0.00000002 cm^2/s
     atom    16   D =       0.00000002 cm^2/s
     atom    17   D =       0.00000002 cm^2/s
     atom    18   D =       0.00000002 cm^2/s
     atom    19   D =       0.00000002 cm^2/s
     atom    20   D =       0.00000005 cm^2/s
     atom    21   D =       0.00000010 cm^2/s
     atom    22   D =       0.00000014 cm^2/s
     atom    23   D =       0.00032846 cm^2/s

     < D > =       0.00001443 cm^2/s

     Writing all to output data dir outdir/pwscf.save/

     init_run     :      9.62s CPU     13.19s WALL (       1 calls)
     electrons    :   2260.30s CPU   2834.15s WALL (      20 calls)
     update_pot   :     18.50s CPU     20.71s WALL (      19 calls)
     forces       :    268.50s CPU    310.48s WALL (      20 calls)
     stress       :    387.90s CPU    442.07s WALL (      20 calls)

     Called by init_run:
     wfcinit      :      7.15s CPU     10.25s WALL (       1 calls)
     potinit      :      0.46s CPU      0.51s WALL (       1 calls)
     hinit0       :      0.98s CPU      1.11s WALL (       1 calls)

     Called by electrons:
     c_bands      :   1807.09s CPU   2277.34s WALL (      99 calls)
     sum_band     :    302.09s CPU    372.76s WALL (      99 calls)
     v_of_rho     :     10.27s CPU     12.54s WALL (     119 calls)
     newd         :    171.01s CPU    207.19s WALL (     119 calls)
     mix_rho      :      0.83s CPU      1.24s WALL (      99 calls)

     Called by c_bands:
     init_us_2    :      3.56s CPU      3.66s WALL (     478 calls)
     init_us_2:cp :      3.55s CPU      3.66s WALL (     478 calls)
     regterg      :   1793.68s CPU   2260.44s WALL (     198 calls)

     Called by *egterg:
     rdiaghg      :     59.17s CPU     74.66s WALL (    1496 calls)
     h_psi        :    914.26s CPU   1060.90s WALL (    1536 calls)
     s_psi        :    311.62s CPU    312.06s WALL (    1536 calls)
     g_psi        :      0.68s CPU      0.74s WALL (    1336 calls)

     Called by h_psi:
     h_psi:calbec :    443.75s CPU    552.10s WALL (    1536 calls)
     vloc_psi     :     98.31s CPU    135.78s WALL (    1536 calls)
     add_vuspsi   :    370.99s CPU    371.74s WALL (    1536 calls)

     General routines
     calbec       :    809.49s CPU   1010.30s WALL (    1934 calls)
     fft          :     10.09s CPU     30.98s WALL (    2484 calls)
     ffts         :      0.22s CPU      0.29s WALL (      99 calls)
     fftw         :    106.78s CPU    149.10s WALL (  102964 calls)

     Parallel routines

     PWSCF        :  49m36.02s CPU      1h 0m WALL


   This run was terminated on:  16:42:49  16Jun2023            

=------------------------------------------------------------------------------=
   JOB DONE.
=------------------------------------------------------------------------------=
