
     Program PWSCF v.7.2 starts on 12Jun2023 at  4: 5:30 

     This program is part of the open-source Quantum ESPRESSO suite
     for quantum simulation of materials; please cite
         "P. Giannozzi et al., J. Phys.:Condens. Matter 21 395502 (2009);
         "P. Giannozzi et al., J. Phys.:Condens. Matter 29 465901 (2017);
         "P. Giannozzi et al., J. Chem. Phys. 152 154105 (2020);
          URL http://www.quantum-espresso.org", 
     in publications or presentations arising from this work. More details at
     http://www.quantum-espresso.org/quote

     Parallel version (MPI), running on    42 processors

     MPI processes distributed on     1 nodes
     183865 MiB available memory on the printing compute node when the environment starts

     Reading input from md_data/md_Hf5Nb2Ta10Zr5H_12steps_1000eV_incident75_polar0.in
Warning: card &CELL ignored
Warning: card / ignored

     Current dimensions of program PWSCF are:
     Max number of different atomic species (ntypx) = 10
     Max number of k-points (npk) =  40000
     Max angular momentum in pseudopotentials (lmaxx) =  4

     gamma-point specific algorithms are used

     R & G space division:  proc/nbgrp/npool/nimage =      42
     Subspace diagonalization in iterative solution of the eigenvalue problem:
     one sub-group per band group will be used
     custom distributed-memory algorithm (size of sub-group:  2*  2 procs)


     Parallelization info
     --------------------
     sticks:   dense  smooth     PW     G-vecs:    dense   smooth      PW
     Min         262     262     63                23470    23470    2920
     Max         265     265     66                23484    23484    2942
     Sum       11057   11057   2753               986005   986005  123175

     Using Slab Decomposition



     bravais-lattice index     =            0
     lattice parameter (alat)  =      17.6500  a.u.
     unit-cell volume          =    5552.8853 (a.u.)^3
     number of atoms/cell      =           23
     number of atomic types    =            5
     number of electrons       =       277.00
     number of Kohn-Sham states=          167
     kinetic-energy cutoff     =     120.0000  Ry
     charge density cutoff     =     480.0000  Ry
     scf convergence threshold =      1.0E-03
     mixing beta               =       0.7000
     number of iterations used =            8  TF        mixing
     energy convergence thresh.=      0.0E+00
     force convergence thresh. =      0.0E+00
     Exchange-correlation=  SLA  PW   PBX  PBC
                           (   1   4   3   4   0   0   0)
     nstep                     =           12


     celldm(1)=  17.650041  celldm(2)=   0.000000  celldm(3)=   0.000000
     celldm(4)=   0.000000  celldm(5)=   0.000000  celldm(6)=   0.000000

     crystal axes: (cart. coord. in units of alat)
               a(1) = (   1.000000   0.000000   0.000000 )  
               a(2) = (   0.000000   0.929336   0.000000 )  
               a(3) = (   0.000000   0.000000   1.086698 )  

     reciprocal axes: (cart. coord. in units 2 pi/alat)
               b(1) = (  1.000000  0.000000  0.000000 )  
               b(2) = (  0.000000  1.076037  0.000000 )  
               b(3) = (  0.000000  0.000000  0.920219 )  


     PseudoPot. # 1 for Hf read from file:
     q-e/pseudo/hf_pbe_v1.uspp.F.UPF
     MD5 check sum: 8ee9378dfe14276e333edf04c5e4aa26
     Pseudo is Ultrasoft + core correction, Zval = 12.0
     Generated by new atomic code, or converted to UPF format
     Using radial grid of  921 points,  8 beta functions with: 
                l(1) =   0
                l(2) =   0
                l(3) =   0
                l(4) =   1
                l(5) =   1
                l(6) =   2
                l(7) =   2
                l(8) =   3
     Q(r) pseudized with  6 coefficients,  rinner =    1.200   1.200   1.200
                                                       1.200   1.200   1.200
                                                       1.200

     PseudoPot. # 2 for Nb read from file:
     q-e/pseudo/nb_pbe_v1.uspp.F.UPF
     MD5 check sum: 573aab8a2fa660278ed4a62cd769473f
     Pseudo is Ultrasoft + core correction, Zval = 13.0
     Generated by new atomic code, or converted to UPF format
     Using radial grid of  887 points,  6 beta functions with: 
                l(1) =   0
                l(2) =   0
                l(3) =   1
                l(4) =   1
                l(5) =   2
                l(6) =   2
     Q(r) pseudized with  6 coefficients,  rinner =    1.000   1.000   1.000
                                                       1.000   1.000

     PseudoPot. # 3 for Ta read from file:
     q-e/pseudo/ta_pbe_v1.uspp.F.UPF
     MD5 check sum: f8bbe9446314a3b8ea5d9f3e3836c939
     Pseudo is Ultrasoft + core correction, Zval = 13.0
     Generated by new atomic code, or converted to UPF format
     Using radial grid of  921 points,  7 beta functions with: 
                l(1) =   0
                l(2) =   0
                l(3) =   1
                l(4) =   1
                l(5) =   2
                l(6) =   2
                l(7) =   3
     Q(r) pseudized with  6 coefficients,  rinner =    1.300   1.300   1.300
                                                       1.300   1.300   1.300
                                                       1.300

     PseudoPot. # 4 for Zr read from file:
     q-e/pseudo/zr_pbe_v1.uspp.F.UPF
     MD5 check sum: 5db81b1e868ab7776c4564c113de050b
     Pseudo is Ultrasoft + core correction, Zval = 12.0
     Generated by new atomic code, or converted to UPF format
     Using radial grid of  887 points,  6 beta functions with: 
                l(1) =   0
                l(2) =   0
                l(3) =   1
                l(4) =   1
                l(5) =   2
                l(6) =   2
     Q(r) pseudized with  6 coefficients,  rinner =    1.200   1.200   1.200
                                                       1.200   1.200

     PseudoPot. # 5 for H  read from file:
     q-e/pseudo/h_pbe_v1.4.uspp.F.UPF
     MD5 check sum: 761ae9a214b05c3daf00ab9f6b793d6f
     Pseudo is Ultrasoft, Zval =  1.0
     Generated by new atomic code, or converted to UPF format
     Using radial grid of  615 points,  2 beta functions with: 
                l(1) =   0
                l(2) =   0
     Q(r) pseudized with  8 coefficients,  rinner =    0.700

     atomic species   valence    mass     pseudopotential
        Hf            12.00   178.49000     Hf( 1.00)
        Nb            13.00    92.90637     Nb( 1.00)
        Ta            13.00   180.94788     Ta( 1.00)
        Zr            12.00    91.22400     Zr( 1.00)
        H              1.00     2.01400     H ( 1.00)

     Starting magnetic structure 
     atomic species   magnetization
        Hf           0.000
        Nb           0.000
        Ta           0.000
        Zr           0.000
        H            0.000

     No symmetry found



   Cartesian axes

     site n.     atom                  positions (alat units)
         1           Hf  tau(   1) = (   0.2858672   0.3026898   0.7070626  )
         2           Hf  tau(   2) = (   0.1341532   0.1377178   0.5415917  )
         3           Hf  tau(   3) = (   0.1344204   0.7911996   0.5447610  )
         4           Hf  tau(   4) = (   0.4375813   0.1377178   0.5415917  )
         5           Hf  tau(   5) = (   0.4373140   0.7911996   0.5447610  )
         6           Nb  tau(   6) = (   0.2858672   0.2994572   0.3764008  )
         7           Nb  tau(   7) = (   0.2858672   0.6291626   0.7103852  )
         8           Ta  tau(   8) = (   0.1294832   0.4647675   0.5429471  )
         9           Ta  tau(   9) = (   0.4422513   0.4647675   0.5429471  )
        10           Ta  tau(  10) = (   0.1399628   0.1406984   0.2204260  )
        11           Ta  tau(  11) = (   0.1394848   0.1400847   0.8666573  )
        12           Ta  tau(  12) = (   0.1396156   0.7897030   0.2190832  )
        13           Ta  tau(  13) = (   0.1400119   0.7885528   0.8657390  )
        14           Ta  tau(  14) = (   0.4317717   0.1406984   0.2204260  )
        15           Ta  tau(  15) = (   0.4322496   0.1400847   0.8666573  )
        16           Ta  tau(  16) = (   0.4321189   0.7897030   0.2190832  )
        17           Ta  tau(  17) = (   0.4317226   0.7885528   0.8657390  )
        18           Zr  tau(  18) = (   0.2858672   0.6280820   0.3776642  )
        19           Zr  tau(  19) = (   0.1331729   0.4627493   0.2141328  )
        20           Zr  tau(  20) = (   0.1328036   0.4661802   0.8725649  )
        21           Zr  tau(  21) = (   0.4385616   0.4627493   0.2141328  )
        22           Zr  tau(  22) = (   0.4389309   0.4661802   0.8725649  )
        23           H   tau(  23) = (   0.4976729   0.6715045   0.5430600  )

     number of k points=     1  Gaussian smearing, width (Ry)=  0.0220
                       cart. coord. in units 2pi/alat
        k(    1) = (   0.0000000   0.0000000   0.0000000), wk =   1.0000000

     Dense  grid:   493003 G-vectors     FFT dimensions: ( 125, 120, 135)

     Estimated max dynamical RAM per process >     133.03 MB

     Estimated total dynamical RAM >       5.46 GB

     Check: negative core charge=   -0.000002
     Generating pointlists ...
     new r_m :   0.0553 (alat units)  0.9761 (a.u.) for type    1
     new r_m :   0.1098 (alat units)  1.9374 (a.u.) for type    2
     new r_m :   0.0883 (alat units)  1.5583 (a.u.) for type    3
     new r_m :   0.1112 (alat units)  1.9625 (a.u.) for type    4
     new r_m :   0.0553 (alat units)  0.9761 (a.u.) for type    5

     Initial potential from superposition of free atoms

     starting charge     266.9726, renormalised to     277.0000

     negative rho (up, down):  9.211E-01 9.211E-01
     Starting wfcs are  287 randomized atomic wfcs

     total cpu time spent up to now is       12.3 secs

     Self-consistent Calculation

     iteration #  1     ecut=   120.00 Ry     beta= 0.70
     Davidson diagonalization with overlap
     ethr =  1.00E-02,  avg # of iterations =  2.0

     negative rho (up, down):  9.927E-01 9.923E-01

     total cpu time spent up to now is       30.8 secs

     total energy              =   -2930.58431981 Ry
     estimated scf accuracy    <     275.85505655 Ry

     total magnetization       =    -0.00 Bohr mag/cell
     absolute magnetization    =     0.09 Bohr mag/cell

     iteration #  2     ecut=   120.00 Ry     beta= 0.70
     Davidson diagonalization with overlap
     ethr =  1.00E-02,  avg # of iterations =  5.0

     negative rho (up, down):  9.673E-01 9.665E-01

     total cpu time spent up to now is       50.2 secs

     total energy              =   -2941.92298597 Ry
     estimated scf accuracy    <      29.81418509 Ry

     total magnetization       =    -0.02 Bohr mag/cell
     absolute magnetization    =     0.11 Bohr mag/cell

     iteration #  3     ecut=   120.00 Ry     beta= 0.70
     Davidson diagonalization with overlap
     ethr =  1.00E-02,  avg # of iterations =  2.0

     negative rho (up, down):  1.001E+00 9.999E-01

     total cpu time spent up to now is       67.5 secs

     total energy              =   -2942.29453221 Ry
     estimated scf accuracy    <      13.12204740 Ry

     total magnetization       =    -0.02 Bohr mag/cell
     absolute magnetization    =     0.11 Bohr mag/cell

     iteration #  4     ecut=   120.00 Ry     beta= 0.70
     Davidson diagonalization with overlap
     ethr =  4.74E-03,  avg # of iterations =  5.0

     negative rho (up, down):  1.003E+00 1.002E+00

     total cpu time spent up to now is       84.5 secs

     total energy              =   -2942.62701708 Ry
     estimated scf accuracy    <       2.93715729 Ry

     total magnetization       =    -0.07 Bohr mag/cell
     absolute magnetization    =     0.19 Bohr mag/cell

     iteration #  5     ecut=   120.00 Ry     beta= 0.70
     Davidson diagonalization with overlap
     ethr =  1.06E-03,  avg # of iterations =  7.0

     negative rho (up, down):  9.797E-01 9.785E-01

     total cpu time spent up to now is      104.4 secs

     total energy              =   -2942.76049617 Ry
     estimated scf accuracy    <       1.26550550 Ry

     total magnetization       =    -0.01 Bohr mag/cell
     absolute magnetization    =     0.12 Bohr mag/cell

     iteration #  6     ecut=   120.00 Ry     beta= 0.70
     Davidson diagonalization with overlap
     ethr =  4.57E-04,  avg # of iterations =  3.0

     negative rho (up, down):  9.705E-01 9.694E-01

     total cpu time spent up to now is      137.6 secs

     total energy              =   -2942.77546172 Ry
     estimated scf accuracy    <       1.10134664 Ry

     total magnetization       =    -0.02 Bohr mag/cell
     absolute magnetization    =     0.09 Bohr mag/cell

     iteration #  7     ecut=   120.00 Ry     beta= 0.70
     Davidson diagonalization with overlap
     ethr =  3.98E-04,  avg # of iterations =  2.0

     negative rho (up, down):  9.411E-01 9.409E-01

     total cpu time spent up to now is      173.2 secs

     total energy              =   -2942.73884484 Ry
     estimated scf accuracy    <       0.30874565 Ry

     total magnetization       =    -0.02 Bohr mag/cell
     absolute magnetization    =     0.08 Bohr mag/cell

     iteration #  8     ecut=   120.00 Ry     beta= 0.70
     Davidson diagonalization with overlap
     ethr =  1.11E-04,  avg # of iterations =  8.0

     negative rho (up, down):  9.201E-01 9.202E-01

     total cpu time spent up to now is      200.2 secs

     total energy              =   -2942.73037887 Ry
     estimated scf accuracy    <       0.28067786 Ry

     total magnetization       =    -0.02 Bohr mag/cell
     absolute magnetization    =     0.06 Bohr mag/cell

     iteration #  9     ecut=   120.00 Ry     beta= 0.70
     Davidson diagonalization with overlap
     ethr =  1.01E-04,  avg # of iterations =  2.0

     negative rho (up, down):  9.088E-01 9.088E-01

     total cpu time spent up to now is      215.7 secs

     total energy              =   -2942.73325608 Ry
     estimated scf accuracy    <       0.07252185 Ry

     total magnetization       =    -0.01 Bohr mag/cell
     absolute magnetization    =     0.05 Bohr mag/cell

     iteration # 10     ecut=   120.00 Ry     beta= 0.70
     Davidson diagonalization with overlap
     ethr =  2.62E-05,  avg # of iterations = 13.5

     negative rho (up, down):  9.070E-01 9.070E-01

     total cpu time spent up to now is      235.7 secs

     total energy              =   -2942.73556940 Ry
     estimated scf accuracy    <       0.04271114 Ry

     total magnetization       =    -0.01 Bohr mag/cell
     absolute magnetization    =     0.04 Bohr mag/cell

     iteration # 11     ecut=   120.00 Ry     beta= 0.70
     Davidson diagonalization with overlap
     ethr =  1.54E-05,  avg # of iterations =  2.0

     negative rho (up, down):  9.080E-01 9.080E-01

     total cpu time spent up to now is      251.7 secs

     total energy              =   -2942.73935278 Ry
     estimated scf accuracy    <       0.01183771 Ry

     total magnetization       =    -0.01 Bohr mag/cell
     absolute magnetization    =     0.03 Bohr mag/cell

     iteration # 12     ecut=   120.00 Ry     beta= 0.70
     Davidson diagonalization with overlap
     ethr =  4.27E-06,  avg # of iterations =  7.5

     negative rho (up, down):  9.081E-01 9.081E-01

     total cpu time spent up to now is      272.3 secs

     total energy              =   -2942.74252292 Ry
     estimated scf accuracy    <       0.00209314 Ry

     total magnetization       =    -0.01 Bohr mag/cell
     absolute magnetization    =     0.03 Bohr mag/cell

     iteration # 13     ecut=   120.00 Ry     beta= 0.70
     Davidson diagonalization with overlap
     ethr =  7.56E-07,  avg # of iterations =  5.0

     negative rho (up, down):  9.078E-01 9.078E-01

     Magnetic moment per site  (integrated on atomic sphere of radius R)
     atom   1 (R=0.055)  charge=  2.8629    0.0000
     atom   2 (R=0.055)  charge=  2.8460   -0.0000
     atom   3 (R=0.055)  charge=  2.8453    0.0000
     atom   4 (R=0.055)  charge=  2.8470   -0.0000
     atom   5 (R=0.055)  charge=  2.8630   -0.0000
     atom   6 (R=0.110)  charge= 10.3436   -0.0003
     atom   7 (R=0.110)  charge= 10.3481   -0.0001
     atom   8 (R=0.088)  charge=  8.1217    0.0000
     atom   9 (R=0.088)  charge=  8.1184    0.0002
     atom  10 (R=0.088)  charge=  8.1018   -0.0001
     atom  11 (R=0.088)  charge=  8.0980   -0.0008
     atom  12 (R=0.088)  charge=  8.1012   -0.0003
     atom  13 (R=0.088)  charge=  8.1020   -0.0001
     atom  14 (R=0.088)  charge=  8.1021   -0.0003
     atom  15 (R=0.088)  charge=  8.0979   -0.0004
     atom  16 (R=0.088)  charge=  8.1038   -0.0006
     atom  17 (R=0.088)  charge=  8.1015   -0.0003
     atom  18 (R=0.111)  charge=  9.4520   -0.0000
     atom  19 (R=0.111)  charge=  9.0008    0.0002
     atom  20 (R=0.111)  charge=  8.9923    0.0003
     atom  21 (R=0.111)  charge=  9.0060    0.0001
     atom  22 (R=0.111)  charge=  8.9943    0.0003
     atom  23 (R=0.055)  charge=  0.8274   -0.0000

     total cpu time spent up to now is      312.6 secs

     End of self-consistent calculation

 ------ SPIN UP ------------


          k = 0.0000 0.0000 0.0000 ( 61588 PWs)   bands (ev):

   -60.7790 -60.7747 -60.7334 -60.7312 -60.7002 -60.6813 -60.6572 -60.6375
   -60.5822 -60.5531 -54.3879 -54.3452 -54.2522 -53.8434 -52.6875 -46.2860
   -46.2489 -41.6527 -41.6283 -41.5524 -41.5452 -39.8274 -27.7803 -27.7715
   -27.6944 -27.6827 -27.6003 -27.5836 -27.4721 -27.4616 -27.4432 -27.3309
   -27.3161 -27.2652 -27.2618 -27.2497 -27.2172 -27.1990 -27.1858 -27.1611
   -27.1494 -27.1337 -27.1089 -27.0794 -26.9553 -26.9523 -26.9407 -26.9363
   -26.8834 -26.8785 -26.8540 -26.8413 -24.2483 -24.0584 -23.6804 -23.5489
   -23.3074 -23.1739 -23.1125 -23.0477 -22.9246 -22.9197 -22.7252 -22.5713
   -22.5100 -22.4506 -22.3856 -22.3128 -22.2629 -22.1294 -21.7462 -21.6909
   -21.6172 -20.2140 -19.9293 -19.8552 -19.8544 -19.6195 -19.6080 -19.6036
   -19.5905 -19.5752 -19.5365 -19.3862 -19.3561 -18.1770 -17.9768 -17.8265
     0.8704   2.0013   2.9353   3.1362   3.3526   3.4481   3.5308   3.5680
     3.6726   3.9023   3.9157   4.1276   4.1944   4.4805   4.5073   4.6954
     4.7378   4.9590   5.0279   5.1139   5.1752   5.2694   5.2882   5.3458
     5.4083   5.5330   5.5628   5.7032   5.7321   5.7393   5.7661   5.8985
     6.0376   6.0673   6.1876   6.1989   6.2405   6.2970   6.3633   6.3983
     6.5092   6.5967   6.6498   6.7104   6.7947   6.9908   7.0270   7.0742
     7.1139   7.1346   7.2773   7.3121   7.3302   7.4551   7.5431   7.5596
     7.6183   7.7909   7.8715   7.9062   8.0679   8.0919   8.1159   8.2214
     8.2423   8.2536   8.3633   8.3776   8.4048   8.5301   8.6584   8.7033
     8.8611   8.9124   9.0193   9.0800   9.0880   9.2047   9.2498

 ------ SPIN DOWN ----------


          k = 0.0000 0.0000 0.0000 ( 61588 PWs)   bands (ev):

   -60.7792 -60.7751 -60.7337 -60.7316 -60.7005 -60.6819 -60.6575 -60.6381
   -60.5820 -60.5528 -54.3879 -54.3452 -54.2522 -53.8434 -52.6874 -46.2860
   -46.2495 -41.6526 -41.6279 -41.5523 -41.5449 -39.8275 -27.7808 -27.7721
   -27.6949 -27.6833 -27.6007 -27.5840 -27.4724 -27.4619 -27.4437 -27.3312
   -27.3164 -27.2655 -27.2622 -27.2499 -27.2177 -27.1988 -27.1860 -27.1615
   -27.1493 -27.1342 -27.1088 -27.0790 -26.9557 -26.9528 -26.9413 -26.9368
   -26.8839 -26.8793 -26.8545 -26.8420 -24.2484 -24.0585 -23.6805 -23.5489
   -23.3075 -23.1741 -23.1126 -23.0477 -22.9246 -22.9198 -22.7252 -22.5715
   -22.5102 -22.4509 -22.3857 -22.3132 -22.2633 -22.1295 -21.7460 -21.6907
   -21.6172 -20.2139 -19.9287 -19.8549 -19.8542 -19.6196 -19.6078 -19.6034
   -19.5904 -19.5748 -19.5361 -19.3861 -19.3556 -18.1772 -17.9769 -17.8267
     0.8705   2.0011   2.9347   3.1360   3.3524   3.4476   3.5306   3.5679
     3.6725   3.9021   3.9150   4.1274   4.1943   4.4805   4.5071   4.6951
     4.7375   4.9586   5.0274   5.1136   5.1750   5.2690   5.2881   5.3455
     5.4079   5.5329   5.5626   5.7032   5.7318   5.7391   5.7660   5.8982
     6.0373   6.0670   6.1873   6.1987   6.2402   6.2968   6.3632   6.3980
     6.5090   6.5966   6.6494   6.7100   6.7945   6.9904   7.0265   7.0738
     7.1128   7.1338   7.2760   7.3111   7.3294   7.4547   7.5424   7.5599
     7.6176   7.7904   7.8713   7.9059   8.0675   8.0911   8.1156   8.2206
     8.2419   8.2534   8.3624   8.3771   8.4047   8.5303   8.6581   8.7033
     8.8612   8.9112   9.0191   9.0800   9.0875   9.2044   9.2495

     the Fermi energy is     7.2484 ev

!    total energy              =   -2942.74362993 Ry
     estimated scf accuracy    <       0.00061312 Ry
     smearing contrib. (-TS)   =      -0.10067391 Ry
     internal energy E=F+TS    =   -2942.64295601 Ry

     total magnetization       =    -0.01 Bohr mag/cell
     absolute magnetization    =     0.02 Bohr mag/cell

     convergence has been achieved in  13 iterations

     negative rho (up, down):  9.078E-01 9.078E-01

     Forces acting on atoms (cartesian axes, Ry/au):

     atom    1 type  1   force =    -0.00277943   -0.02753841   -0.00173358
     atom    2 type  1   force =    -0.12753954   -0.00894560   -0.00558343
     atom    3 type  1   force =    -0.11788469    0.00893695    0.00262686
     atom    4 type  1   force =     0.13029024   -0.02046020   -0.00677564
     atom    5 type  1   force =    -0.19577969    0.64336477    0.01753175
     atom    6 type  2   force =     0.00260804   -0.01520940    0.02220906
     atom    7 type  2   force =    -0.01787329    0.00726237   -0.00614348
     atom    8 type  3   force =    -0.10684072    0.00285561   -0.00532486
     atom    9 type  3   force =     0.10650854    0.04803316   -0.00873513
     atom   10 type  3   force =    -0.02691485   -0.02905036   -0.05883871
     atom   11 type  3   force =    -0.02478992   -0.03553473    0.05780105
     atom   12 type  3   force =    -0.01178787    0.03550545   -0.05735807
     atom   13 type  3   force =    -0.01380626    0.03027725    0.06280976
     atom   14 type  3   force =     0.01906299   -0.03461032   -0.06446657
     atom   15 type  3   force =     0.01839676   -0.04036796    0.06247659
     atom   16 type  3   force =     0.01633794    0.04511088   -0.05640077
     atom   17 type  3   force =     0.01603731    0.03969607    0.06232580
     atom   18 type  4   force =    -0.01618715    0.01481181   -0.00857044
     atom   19 type  4   force =    -0.12245042   -0.00701829   -0.11576178
     atom   20 type  4   force =    -0.12804880    0.00489821    0.11742615
     atom   21 type  4   force =     0.11941832   -0.00306527   -0.11701550
     atom   22 type  4   force =     0.12653290    0.00717266    0.12031458
     atom   23 type  5   force =     0.35748957   -0.66612465   -0.01281363
     The non-local contrib.  to forces
     atom    1 type  1   force =    -0.00698662   -0.01159578    0.02789577
     atom    2 type  1   force =    -0.24519230   -0.16321721    0.01412376
     atom    3 type  1   force =    -0.22373198    0.16146925   -0.02687942
     atom    4 type  1   force =     0.24491036   -0.22141054    0.01346445
     atom    5 type  1   force =     0.27999798    0.01762450   -0.02535810
     atom    6 type  2   force =     0.00539314   -0.04250603   -0.07160943
     atom    7 type  2   force =     0.00009750    0.05423789    0.06622236
     atom    8 type  3   force =    -0.25749118    0.00693580   -0.00824907
     atom    9 type  3   force =     0.23155772    0.07412185   -0.01275468
     atom   10 type  3   force =    -0.21858774    0.01004510   -0.20712944
     atom   11 type  3   force =    -0.22695939    0.00966480    0.19985829
     atom   12 type  3   force =    -0.19920729   -0.02664750   -0.18030067
     atom   13 type  3   force =    -0.20607580   -0.01030559    0.20931847
     atom   14 type  3   force =     0.21613198    0.00590426   -0.21180317
     atom   15 type  3   force =     0.22477111    0.00758846    0.20061491
     atom   16 type  3   force =     0.20843379   -0.01936811   -0.17427522
     atom   17 type  3   force =     0.21226978   -0.00280003    0.20565768
     atom   18 type  4   force =     0.00132424    0.04511595   -0.07438731
     atom   19 type  4   force =     0.05852960    0.00571217    0.07320537
     atom   20 type  4   force =     0.05523705   -0.01468758   -0.06807207
     atom   21 type  4   force =    -0.06455539    0.01432830    0.06801525
     atom   22 type  4   force =    -0.05828094   -0.00986980   -0.05839293
     atom   23 type  5   force =    -0.06389692    0.09157003   -0.00046788
     The ionic contribution  to forces
     atom    1 type  1   force =    -0.15183538   -4.70290880   14.08754532
     atom    2 type  1   force =   -39.76873304   -6.05119775    0.77956478
     atom    3 type  1   force =   -39.97332288    6.23970586   -0.71218721
     atom    4 type  1   force =    39.58006401   -5.88953230    0.77845846
     atom    5 type  1   force =    37.71646470    9.87332434   -0.66043374
     atom    6 type  2   force =    -0.16123622   -3.66381830  -13.99031155
     atom    7 type  2   force =    -0.79213766    3.39791162   14.52746969
     atom    8 type  3   force =   -52.33158457   -0.10504210   -0.06499728
     atom    9 type  3   force =    51.61631347   -1.58062218   -0.06581536
     atom   10 type  3   force =   -36.10526154   -2.04838780  -23.11452537
     atom   11 type  3   force =   -35.17935331   -0.80135187   22.11874824
     atom   12 type  3   force =   -35.35709191    0.84236906  -22.24258516
     atom   13 type  3   force =   -36.14844192    2.22629776   23.17297774
     atom   14 type  3   force =    35.99835661   -2.00660565  -23.19163876
     atom   15 type  3   force =    35.07311647   -0.75937237   22.19592752
     atom   16 type  3   force =    35.10914673    0.97363771  -22.59992384
     atom   17 type  3   force =    35.89673870    2.35851028   23.53515001
     atom   18 type  4   force =    -0.73997833    4.17999773  -14.41117406
     atom   19 type  4   force =   -35.97186484    0.88799773  -25.59936487
     atom   20 type  4   force =   -35.95546355   -1.02230449   25.57811473
     atom   21 type  4   force =    35.81194034    0.75859488  -25.80799232
     atom   22 type  4   force =    35.79482895   -1.15189306   25.79034750
     atom   23 type  5   force =     6.03933518   -1.95531030   -0.10335450
     The local contribution  to forces
     atom    1 type  1   force =     0.15477972    4.68608858  -14.12392691
     atom    2 type  1   force =    39.90094890    6.20283775   -0.80553201
     atom    3 type  1   force =    40.09084559   -6.39575756    0.74106072
     atom    4 type  1   force =   -39.71223848    6.09307967   -0.80567002
     atom    5 type  1   force =   -38.21546031   -9.22518003    0.70014558
     atom    6 type  2   force =     0.15924009    3.70084110   14.06088341
     atom    7 type  2   force =     0.77214791   -3.43725902  -14.60000723
     atom    8 type  3   force =    52.50638610    0.10203133    0.05636687
     atom    9 type  3   force =   -51.75858967    1.55661332    0.05525497
     atom   10 type  3   force =    36.31680843    2.00824134   23.27973295
     atom   11 type  3   force =    35.40561355    0.74299481  -22.27919568
     atom   12 type  3   force =    35.56685962   -0.77386235   22.37833399
     atom   13 type  3   force =    36.36413658   -2.17871694  -23.33487890
     atom   14 type  3   force =   -36.21253501    1.96349183   23.35576902
     atom   15 type  3   force =   -35.30412487    0.69737068  -22.35117477
     atom   16 type  3   force =   -35.31826290   -0.90912958   22.72921619
     atom   17 type  3   force =   -36.11679314   -2.31233391  -23.69148871
     atom   18 type  4   force =     0.72647753   -4.21784343   14.45607029
     atom   19 type  4   force =    35.80489336   -0.90324814   25.42146525
     atom   20 type  4   force =    35.77593051    1.04554074  -25.40040038
     atom   21 type  4   force =   -35.63785889   -0.77373023   25.63372477
     atom   22 type  4   force =   -35.61372299    1.17404290  -25.61704146
     atom   23 type  5   force =    -5.61778608    1.19728652    0.08962532
     The core correction contribution to forces
     atom    1 type  1   force =    -0.00081491    0.00077724   -0.00095699
     atom    2 type  1   force =    -0.01044071   -0.00031291    0.00097187
     atom    3 type  1   force =    -0.00762831    0.00577552   -0.00155320
     atom    4 type  1   force =     0.01306895   -0.00689584    0.00045097
     atom    5 type  1   force =     0.01943081   -0.01947781   -0.00126950
     atom    6 type  2   force =    -0.00038728    0.00211866    0.00299366
     atom    7 type  2   force =     0.00005988   -0.00276870   -0.00270190
     atom    8 type  3   force =    -0.03062779   -0.00022326   -0.00036114
     atom    9 type  3   force =     0.02416739   -0.00132422   -0.00101179
     atom   10 type  3   force =    -0.02355661    0.00943932   -0.01728141
     atom   11 type  3   force =    -0.02527869    0.00954094    0.01834439
     atom   12 type  3   force =    -0.02168392   -0.01122334   -0.01554173
     atom   13 type  3   force =    -0.02167441   -0.01031752    0.01675585
     atom   14 type  3   force =     0.02204952    0.00906824   -0.01806750
     atom   15 type  3   force =     0.02383239    0.00978761    0.01826882
     atom   16 type  3   force =     0.02247235   -0.00956915   -0.01408669
     atom   17 type  3   force =     0.02217311   -0.00858733    0.01529736
     atom   18 type  4   force =     0.00005409   -0.00259296    0.00368228
     atom   19 type  4   force =    -0.00956564    0.00019047   -0.00958769
     atom   20 type  4   force =    -0.00954256    0.00043624    0.00941312
     atom   21 type  4   force =     0.00996710   -0.00016188   -0.00919579
     atom   22 type  4   force =     0.00975026    0.00020354    0.00873524
     atom   23 type  5   force =     0.00000000    0.00000000    0.00000000
     The Hubbard contrib.    to forces
     atom    1 type  1   force =     0.00000000    0.00000000    0.00000000
     atom    2 type  1   force =     0.00000000    0.00000000    0.00000000
     atom    3 type  1   force =     0.00000000    0.00000000    0.00000000
     atom    4 type  1   force =     0.00000000    0.00000000    0.00000000
     atom    5 type  1   force =     0.00000000    0.00000000    0.00000000
     atom    6 type  2   force =     0.00000000    0.00000000    0.00000000
     atom    7 type  2   force =     0.00000000    0.00000000    0.00000000
     atom    8 type  3   force =     0.00000000    0.00000000    0.00000000
     atom    9 type  3   force =     0.00000000    0.00000000    0.00000000
     atom   10 type  3   force =     0.00000000    0.00000000    0.00000000
     atom   11 type  3   force =     0.00000000    0.00000000    0.00000000
     atom   12 type  3   force =     0.00000000    0.00000000    0.00000000
     atom   13 type  3   force =     0.00000000    0.00000000    0.00000000
     atom   14 type  3   force =     0.00000000    0.00000000    0.00000000
     atom   15 type  3   force =     0.00000000    0.00000000    0.00000000
     atom   16 type  3   force =     0.00000000    0.00000000    0.00000000
     atom   17 type  3   force =     0.00000000    0.00000000    0.00000000
     atom   18 type  4   force =     0.00000000    0.00000000    0.00000000
     atom   19 type  4   force =     0.00000000    0.00000000    0.00000000
     atom   20 type  4   force =     0.00000000    0.00000000    0.00000000
     atom   21 type  4   force =     0.00000000    0.00000000    0.00000000
     atom   22 type  4   force =     0.00000000    0.00000000    0.00000000
     atom   23 type  5   force =     0.00000000    0.00000000    0.00000000
     The SCF correction term to forces
     atom    1 type  1   force =     0.00221120    0.00000284    0.00706147
     atom    2 type  1   force =    -0.00398895    0.00284701    0.00464041
     atom    3 type  1   force =    -0.00391367   -0.00235364    0.00153822
     atom    4 type  1   force =     0.00461885    0.00420128    0.00587274
     atom    5 type  1   force =     0.00392057   -0.00302374    0.00379975
     atom    6 type  2   force =    -0.00026826   -0.01194235    0.01960522
     atom    7 type  2   force =     0.00209253   -0.00495694    0.00222585
     atom    8 type  3   force =     0.00661017   -0.00094368    0.01126800
     atom    9 type  3   force =    -0.00680692   -0.00085313    0.01494396
     atom   10 type  3   force =     0.00381605   -0.00848583   -0.00028321
     atom   11 type  3   force =     0.00132136    0.00351908   -0.00060194
     atom   12 type  3   force =    -0.00053094    0.00477206    0.00208774
     atom   13 type  3   force =    -0.00161725    0.00322203   -0.00201115
     atom   14 type  3   force =    -0.00480666   -0.00656652    0.00062607
     atom   15 type  3   force =     0.00093509    0.00416014   -0.00180765
     atom   16 type  3   force =    -0.00531859    0.00944249    0.00202103
     atom   17 type  3   force =     0.00178231    0.00480954   -0.00293830
     atom   18 type  4   force =    -0.00393123    0.01003701    0.01659061
     atom   19 type  4   force =    -0.00430947    0.00223196   -0.00212762
     atom   20 type  4   force =     0.00592320   -0.00418421   -0.00227702
     atom   21 type  4   force =     0.00005860   -0.00219384   -0.00221517
     atom   22 type  4   force =    -0.00590894   -0.00540844   -0.00398154
     atom   23 type  5   force =    -0.00002917    0.00023157    0.00073566

     Total force =     1.122328     Total SCF correction =     0.046868


     Computing stress (Cartesian axis) and pressure


     negative rho (up, down):  9.078E-01 9.078E-01
          total   stress  (Ry/bohr**3)                   (kbar)     P=      100.32
   0.00072791  -0.00011992  -0.00000194          107.08      -17.64       -0.29
  -0.00011992   0.00091479  -0.00001084          -17.64      134.57       -1.59
  -0.00000194  -0.00001084   0.00040318           -0.29       -1.59       59.31


     Molecular Dynamics Calculation

     Starting temperature  =   300.00 K

     temperature is set once at start

     mass Hf               =   178.49
     mass Nb               =    92.91
     mass Ta               =   180.95
     mass Zr               =    91.22
     mass H                =     2.01
     Time step             =     2.10 a.u.,  0.1016 femto-seconds

     Entering Dynamics:    iteration =     1
                           time      =   0.0001 pico-seconds


ATOMIC_POSITIONS (angstrom)
Hf            2.6700543198        2.8273257868        6.6039642062
Hf            1.2530441481        1.2864870724        5.0584661861
Hf            1.2555404358        7.3900073140        5.0880677862
Hf            4.0870645510        1.2864869898        5.0584661775
Hf            4.0845659939        7.3900118644        5.0880678931
Nb            2.6700543756        2.7971333510        3.5155835227
Nb            2.6700540934        5.8765817315        6.6349978585
Ta            1.2094266828        4.3411308269        5.0711257946
Ta            4.1306819942        4.3411311465        5.0711257705
Ta            1.3073068764        1.3143253390        2.0587786938
Ta            1.3028425215        1.3085938397        8.0945796113
Ta            1.3040639214        7.3760293304        2.0462367740
Ta            1.3077650834        7.3652861177        8.0860026652
Ta            4.0328017475        1.3143252996        2.0587786540
Ta            4.0372661126        1.3085938055        8.0945796444
Ta            4.0360447902        7.3760293984        2.0462367808
Ta            4.0323436118        7.3652861844        8.0860026618
Zr            2.6700541125        5.8664890064        3.5273838101
Zr            1.2438872833        4.3222808211        1.9999983754
Zr            1.2404379984        4.3543263084        8.1497571972
Zr            4.0962213536        4.3222808766        1.9999983578
Zr            4.0996706597        4.3543263403        8.1497572378
H             4.5582001450        5.9344600529        5.0721716498


     kinetic energy (Ekin) =          90.50475658 Ry
     temperature           =      433017.29927838 K 
     Ekin + Etot (const)   =       -2852.23887335 Ry
     Ions kinetic stress =         1598.41 (kbar)
                                    321.23        1198.83           0.00
                                   1198.83        4474.01           0.00
                                      0.00           0.00           0.00



     Linear momentum :    0.0000000000   -0.0000000000    0.0000000000

     File outdir/pwscf.msd.dat deleted, as requested

     Writing config-only to output data dir outdir/pwscf.save/
     NEW-OLD atomic charge density approx. for the potential

     Check: negative core charge=   -0.000002

     negative rho (up, down):  9.081E-01 9.081E-01
     Generating pointlists ...
     new r_m :   0.1083 (alat units)  1.9111 (a.u.) for type    2
     new r_m :   0.0729 (alat units)  1.2860 (a.u.) for type    3
     new r_m :   0.1078 (alat units)  1.9024 (a.u.) for type    4

     total cpu time spent up to now is      359.9 secs

     Self-consistent Calculation

     iteration #  1     ecut=   120.00 Ry     beta= 0.70
     Davidson diagonalization with overlap
     c_bands:  1 eigenvalues not converged
     c_bands:  1 eigenvalues not converged
     ethr =  1.00E-06,  avg # of iterations = 20.0

     negative rho (up, down):  9.087E-01 9.087E-01

     total cpu time spent up to now is      400.9 secs

     total energy              =   -2942.92936409 Ry
     estimated scf accuracy    <       0.18297097 Ry

     total magnetization       =    -0.01 Bohr mag/cell
     absolute magnetization    =     0.02 Bohr mag/cell

     iteration #  2     ecut=   120.00 Ry     beta= 0.70
     Davidson diagonalization with overlap
     ethr =  6.61E-05,  avg # of iterations =  2.0

     negative rho (up, down):  9.086E-01 9.086E-01

     total cpu time spent up to now is      417.0 secs

     total energy              =   -2942.94677559 Ry
     estimated scf accuracy    <       0.04853196 Ry

     total magnetization       =    -0.01 Bohr mag/cell
     absolute magnetization    =     0.01 Bohr mag/cell

     iteration #  3     ecut=   120.00 Ry     beta= 0.70
     Davidson diagonalization with overlap
     ethr =  1.75E-05,  avg # of iterations =  1.0

     negative rho (up, down):  9.087E-01 9.087E-01

     total cpu time spent up to now is      430.9 secs

     total energy              =   -2942.94973594 Ry
     estimated scf accuracy    <       0.00819613 Ry

     total magnetization       =    -0.01 Bohr mag/cell
     absolute magnetization    =     0.01 Bohr mag/cell

     iteration #  4     ecut=   120.00 Ry     beta= 0.70
     Davidson diagonalization with overlap
     c_bands:  1 eigenvalues not converged
     c_bands:  1 eigenvalues not converged
     ethr =  2.96E-06,  avg # of iterations = 20.0

     negative rho (up, down):  9.088E-01 9.088E-01

     total cpu time spent up to now is      470.0 secs

     total energy              =   -2942.95024167 Ry
     estimated scf accuracy    <       0.00115957 Ry

     total magnetization       =    -0.01 Bohr mag/cell
     absolute magnetization    =     0.01 Bohr mag/cell

     iteration #  5     ecut=   120.00 Ry     beta= 0.70
     Davidson diagonalization with overlap
     ethr =  4.19E-07,  avg # of iterations =  6.0

     negative rho (up, down):  9.089E-01 9.089E-01

     Magnetic moment per site  (integrated on atomic sphere of radius R)
     atom   1 (R=0.055)  charge=  2.8628   -0.0000
     atom   2 (R=0.055)  charge=  2.8457   -0.0000
     atom   3 (R=0.055)  charge=  2.8450    0.0000
     atom   4 (R=0.055)  charge=  2.8465   -0.0000
     atom   5 (R=0.055)  charge=  2.8564   -0.0000
     atom   6 (R=0.108)  charge= 10.2274   -0.0001
     atom   7 (R=0.108)  charge= 10.2266   -0.0001
     atom   8 (R=0.073)  charge=  6.2739   -0.0000
     atom   9 (R=0.073)  charge=  6.2867    0.0000
     atom  10 (R=0.073)  charge=  6.2555   -0.0001
     atom  11 (R=0.073)  charge=  6.2562   -0.0002
     atom  12 (R=0.073)  charge=  6.2562   -0.0001
     atom  13 (R=0.073)  charge=  6.2567   -0.0000
     atom  14 (R=0.073)  charge=  6.2583   -0.0001
     atom  15 (R=0.073)  charge=  6.2588   -0.0002
     atom  16 (R=0.073)  charge=  6.2579   -0.0002
     atom  17 (R=0.073)  charge=  6.2604   -0.0001
     atom  18 (R=0.108)  charge=  9.1928   -0.0000
     atom  19 (R=0.108)  charge=  8.7943   -0.0001
     atom  20 (R=0.108)  charge=  8.7921    0.0000
     atom  21 (R=0.108)  charge=  8.7948   -0.0002
     atom  22 (R=0.108)  charge=  8.7919   -0.0000
     atom  23 (R=0.055)  charge=  0.7032   -0.0000

     total cpu time spent up to now is      507.9 secs

     End of self-consistent calculation

 ------ SPIN UP ------------


          k = 0.0000 0.0000 0.0000 ( 61588 PWs)   bands (ev):

   -60.7606 -60.7452 -60.7150 -60.7005 -60.6729 -60.6661 -60.6290 -60.6221
   -60.5680 -60.3995 -54.3557 -54.2734 -54.2255 -54.0325 -52.6740 -46.2922
   -46.2459 -41.6299 -41.6213 -41.5370 -41.5292 -39.8432 -27.7602 -27.7523
   -27.6703 -27.6689 -27.5777 -27.5534 -27.4433 -27.4309 -27.4042 -27.3105
   -27.2886 -27.2457 -27.2332 -27.2284 -27.1966 -27.1771 -27.1545 -27.1351
   -27.1227 -27.1103 -27.0136 -26.9899 -26.9365 -26.9254 -26.9226 -26.9126
   -26.8638 -26.8568 -26.8266 -26.8247 -24.1610 -23.9620 -23.6345 -23.5324
   -23.2797 -23.1454 -23.0863 -23.0023 -22.9100 -22.8403 -22.7630 -22.5835
   -22.5220 -22.4502 -22.3780 -22.3163 -22.2622 -22.2188 -21.7356 -21.6750
   -21.6056 -20.1926 -19.9197 -19.8372 -19.8331 -19.6062 -19.5991 -19.5904
   -19.5768 -19.5675 -19.5253 -19.3608 -19.3449 -18.1898 -17.9920 -17.8364
     0.2263   1.8576   2.9507   3.1506   3.3664   3.4682   3.5444   3.6054
     3.6735   3.8982   3.9268   4.1422   4.2324   4.4848   4.5645   4.7064
     4.7576   4.9462   5.0331   5.1276   5.2070   5.2789   5.3002   5.3903
     5.3996   5.5339   5.5709   5.6958   5.7482   5.7610   5.7826   5.9090
     6.0605   6.0968   6.2030   6.2358   6.2792   6.3370   6.3653   6.3789
     6.5355   6.6093   6.6584   6.7246   6.8085   7.0072   7.0292   7.1068
     7.1414   7.1474   7.2897   7.3284   7.3543   7.4750   7.5532   7.5717
     7.6364   7.8518   7.8879   7.9050   8.0756   8.1093   8.1297   8.2255
     8.2507   8.2706   8.3772   8.3955   8.4513   8.5466   8.6729   8.6964
     8.8709   8.9240   8.9903   9.0509   9.0969   9.2060   9.2508

 ------ SPIN DOWN ----------


          k = 0.0000 0.0000 0.0000 ( 61588 PWs)   bands (ev):

   -60.7608 -60.7454 -60.7152 -60.7008 -60.6731 -60.6664 -60.6292 -60.6225
   -60.5680 -60.3994 -54.3557 -54.2734 -54.2255 -54.0325 -52.6740 -46.2923
   -46.2459 -41.6300 -41.6212 -41.5369 -41.5293 -39.8432 -27.7606 -27.7526
   -27.6706 -27.6693 -27.5779 -27.5537 -27.4436 -27.4312 -27.4043 -27.3107
   -27.2888 -27.2459 -27.2334 -27.2286 -27.1969 -27.1772 -27.1546 -27.1354
   -27.1228 -27.1105 -27.0136 -26.9898 -26.9367 -26.9258 -26.9229 -26.9129
   -26.8643 -26.8571 -26.8268 -26.8251 -24.1610 -23.9620 -23.6345 -23.5325
   -23.2798 -23.1454 -23.0863 -23.0023 -22.9100 -22.8403 -22.7630 -22.5835
   -22.5221 -22.4503 -22.3780 -22.3163 -22.2623 -22.2189 -21.7356 -21.6750
   -21.6056 -20.1928 -19.9195 -19.8374 -19.8332 -19.6063 -19.5993 -19.5904
   -19.5768 -19.5676 -19.5252 -19.3610 -19.3449 -18.1898 -17.9920 -17.8365
     0.2263   1.8574   2.9503   3.1505   3.3662   3.4677   3.5442   3.6053
     3.6734   3.8981   3.9263   4.1420   4.2322   4.4847   4.5643   4.7062
     4.7574   4.9459   5.0327   5.1274   5.2069   5.2786   5.3000   5.3899
     5.3995   5.5338   5.5707   5.6958   5.7480   5.7608   5.7824   5.9088
     6.0602   6.0965   6.2028   6.2356   6.2790   6.3368   6.3651   6.3786
     6.5352   6.6092   6.6581   6.7243   6.8083   7.0068   7.0286   7.1059
     7.1407   7.1470   7.2888   7.3279   7.3533   7.4746   7.5526   7.5717
     7.6359   7.8514   7.8876   7.9048   8.0752   8.1087   8.1294   8.2250
     8.2502   8.2703   8.3764   8.3953   8.4510   8.5464   8.6726   8.6961
     8.8707   8.9232   8.9901   9.0506   9.0965   9.2058   9.2507

     the Fermi energy is     7.2664 ev

!    total energy              =   -2942.95017158 Ry
     estimated scf accuracy    <       0.00030322 Ry
     smearing contrib. (-TS)   =      -0.10071954 Ry
     internal energy E=F+TS    =   -2942.84945205 Ry

     total magnetization       =    -0.01 Bohr mag/cell
     absolute magnetization    =     0.01 Bohr mag/cell

     convergence has been achieved in   5 iterations

     negative rho (up, down):  9.089E-01 9.089E-01

     Forces acting on atoms (cartesian axes, Ry/au):

     atom    1 type  1   force =    -0.00436131   -0.03017455    0.00541580
     atom    2 type  1   force =    -0.12314241   -0.01263276   -0.00040503
     atom    3 type  1   force =    -0.11429912    0.01159636    0.00627300
     atom    4 type  1   force =     0.14021021   -0.01630109   -0.00262207
     atom    5 type  1   force =     0.04388011    0.19901782    0.01617147
     atom    6 type  2   force =     0.00173221   -0.01879250    0.01867408
     atom    7 type  2   force =    -0.01723833    0.00846989   -0.00480525
     atom    8 type  3   force =    -0.10481574    0.00321504   -0.00380159
     atom    9 type  3   force =     0.07315341   -0.05758814   -0.00545862
     atom   10 type  3   force =    -0.02681914   -0.02942703   -0.06123317
     atom   11 type  3   force =    -0.02446301   -0.03513814    0.05521406
     atom   12 type  3   force =    -0.01086569    0.03426963   -0.05944744
     atom   13 type  3   force =    -0.01208463    0.03049323    0.06081762
     atom   14 type  3   force =     0.01862077   -0.03524943   -0.06606486
     atom   15 type  3   force =     0.01814112   -0.04154236    0.05975526
     atom   16 type  3   force =     0.01509954    0.04774363   -0.05883507
     atom   17 type  3   force =     0.01522473    0.04267114    0.06013667
     atom   18 type  4   force =    -0.01491821    0.01777615   -0.00760504
     atom   19 type  4   force =    -0.12175183   -0.00488480   -0.11735856
     atom   20 type  4   force =    -0.12584017    0.00574369    0.11527946
     atom   21 type  4   force =     0.11780822   -0.00658879   -0.11968289
     atom   22 type  4   force =     0.12473353    0.00296534    0.11802713
     atom   23 type  5   force =     0.13199575   -0.11564233   -0.00844494
     The non-local contrib.  to forces
     atom    1 type  1   force =    -0.00361841   -0.00952157    0.02871541
     atom    2 type  1   force =    -0.24746888   -0.15830045    0.01607218
     atom    3 type  1   force =    -0.23134776    0.15324957   -0.02405073
     atom    4 type  1   force =     0.25051388   -0.22087027    0.01664741
     atom    5 type  1   force =     0.18303326    0.18599360   -0.01830373
     atom    6 type  2   force =     0.00403041   -0.04179520   -0.06943856
     atom    7 type  2   force =     0.00227948    0.05680145    0.07193495
     atom    8 type  3   force =    -0.25404573    0.00784630   -0.00499187
     atom    9 type  3   force =     0.19371453    0.03047422   -0.00699192
     atom   10 type  3   force =    -0.21631966    0.00829125   -0.20698622
     atom   11 type  3   force =    -0.22423683    0.00798946    0.19958266
     atom   12 type  3   force =    -0.19570111   -0.02639275   -0.18120922
     atom   13 type  3   force =    -0.20114157   -0.00837113    0.20810825
     atom   14 type  3   force =     0.21531962    0.00204634   -0.20807260
     atom   15 type  3   force =     0.22305392    0.00419735    0.19592211
     atom   16 type  3   force =     0.20763994   -0.01897853   -0.17268965
     atom   17 type  3   force =     0.20936270   -0.00304381    0.20117473
     atom   18 type  4   force =     0.00201967    0.04706784   -0.07436216
     atom   19 type  4   force =     0.05783890    0.00754508    0.07468656
     atom   20 type  4   force =     0.05488820   -0.01334389   -0.07033203
     atom   21 type  4   force =    -0.06574452    0.01455341    0.06629641
     atom   22 type  4   force =    -0.05944034   -0.00991702   -0.05744629
     atom   23 type  5   force =    -0.03766326    0.00806646   -0.00195095
     The ionic contribution  to forces
     atom    1 type  1   force =    -0.17839905   -4.76300473   14.11419342
     atom    2 type  1   force =   -39.76696723   -6.08165601    0.77958498
     atom    3 type  1   force =   -39.95884568    6.27142346   -0.71226913
     atom    4 type  1   force =    39.59956653   -6.00797888    0.77867591
     atom    5 type  1   force =    38.75496315    8.75524100   -0.68500932
     atom    6 type  2   force =    -0.18859481   -3.72799915  -14.01834073
     atom    7 type  2   force =    -0.86186275    3.52989487   14.61363380
     atom    8 type  3   force =   -52.39815141   -0.11303172   -0.06501925
     atom    9 type  3   force =    51.39350076   -2.42621856   -0.06654701
     atom   10 type  3   force =   -36.10577817   -2.06481292  -23.11332721
     atom   11 type  3   force =   -35.17986317   -0.81766745   22.11752122
     atom   12 type  3   force =   -35.35476026    0.85619612  -22.23811191
     atom   13 type  3   force =   -36.14609712    2.24036668   23.16853883
     atom   14 type  3   force =    36.00578023   -2.04600862  -23.18217280
     atom   15 type  3   force =    35.08053367   -0.79856343   22.18635936
     atom   16 type  3   force =    35.13558338    1.00162486  -22.54361945
     atom   17 type  3   force =    35.92359275    2.38727727   23.47834214
     atom   18 type  4   force =    -0.80731669    4.30268056  -14.49255164
     atom   19 type  4   force =   -35.98744905    0.88891114  -25.61430453
     atom   20 type  4   force =   -35.97101737   -1.02095725   25.59300991
     atom   21 type  4   force =    35.81315291    0.75601291  -25.86857009
     atom   22 type  4   force =    35.79622505   -1.15313199   25.85105857
     atom   23 type  5   force =     5.40220433    0.03140184   -0.08107509
     The local contribution  to forces
     atom    1 type  1   force =     0.17346650    4.74020694  -14.12847403
     atom    2 type  1   force =    39.89722618    6.22652461   -0.78410596
     atom    3 type  1   force =    40.09183385   -6.41403986    0.75679817
     atom    4 type  1   force =   -39.72193096    6.20518959   -0.78547280
     atom    5 type  1   force =   -38.90249683   -8.73244100    0.73440094
     atom    6 type  2   force =     0.18078217    3.75537363   14.11247702
     atom    7 type  2   force =     0.84740419   -3.56540223  -14.68248895
     atom    8 type  3   force =    52.57453814    0.10702763    0.07753230
     atom    9 type  3   force =   -51.52757658    2.35861272    0.08133987
     atom   10 type  3   force =    36.31189382    2.02228353   23.27275617
     atom   11 type  3   force =    35.40077424    0.76017594  -22.28133591
     atom   12 type  3   force =    35.55373782   -0.78864787   22.37257138
     atom   13 type  3   force =    36.35499723   -2.18736025  -23.33405880
     atom   14 type  3   force =   -36.21945975    2.00016506   23.33679738
     atom   15 type  3   force =   -35.30483586    0.73322224  -22.33993101
     atom   16 type  3   force =   -35.34272255   -0.92586798   22.67513303
     atom   17 type  3   force =   -36.13448996   -2.32556286  -23.64365882
     atom   18 type  4   force =     0.79325590   -4.32983052   14.57048704
     atom   19 type  4   force =    35.81393811   -0.90208723   25.43092929
     atom   20 type  4   force =    35.79463237    1.03999451  -25.41839941
     atom   21 type  4   force =   -35.64066345   -0.77688347   25.68966264
     atom   22 type  4   force =   -35.61856625    1.16767655  -25.68543064
     atom   23 type  5   force =    -5.23342623   -0.15516456    0.07664313
     The core correction contribution to forces
     atom    1 type  1   force =    -0.00001200    0.00091819   -0.00088838
     atom    2 type  1   force =    -0.01054432   -0.00039710    0.00081837
     atom    3 type  1   force =    -0.00933712    0.00524251   -0.00134441
     atom    4 type  1   force =     0.01464724   -0.00727931    0.00058617
     atom    5 type  1   force =     0.00381765    0.00029198   -0.00073853
     atom    6 type  2   force =    -0.00028784    0.00209587    0.00296862
     atom    7 type  2   force =     0.00016799   -0.00287241   -0.00312734
     atom    8 type  3   force =    -0.03028952   -0.00009587   -0.00031493
     atom    9 type  3   force =     0.01909981   -0.00493008   -0.00095813
     atom   10 type  3   force =    -0.02327202    0.00942056   -0.01629582
     atom   11 type  3   force =    -0.02490238    0.00955740    0.01729057
     atom   12 type  3   force =    -0.02131121   -0.01055767   -0.01584736
     atom   13 type  3   force =    -0.02123307   -0.00971545    0.01679347
     atom   14 type  3   force =     0.02235147    0.00895316   -0.01766898
     atom   15 type  3   force =     0.02387098    0.00967479    0.01778380
     atom   16 type  3   force =     0.02266713   -0.00951528   -0.01406893
     atom   17 type  3   force =     0.02194541   -0.00881110    0.01520997
     atom   18 type  4   force =     0.00013997   -0.00262975    0.00399904
     atom   19 type  4   force =    -0.00949033    0.00009815   -0.00968310
     atom   20 type  4   force =    -0.00948948    0.00034325    0.00951895
     atom   21 type  4   force =     0.00998584   -0.00018359   -0.00909819
     atom   22 type  4   force =     0.00979564    0.00017004    0.00863977
     atom   23 type  5   force =     0.00000000    0.00000000    0.00000000
     The Hubbard contrib.    to forces
     atom    1 type  1   force =     0.00000000    0.00000000    0.00000000
     atom    2 type  1   force =     0.00000000    0.00000000    0.00000000
     atom    3 type  1   force =     0.00000000    0.00000000    0.00000000
     atom    4 type  1   force =     0.00000000    0.00000000    0.00000000
     atom    5 type  1   force =     0.00000000    0.00000000    0.00000000
     atom    6 type  2   force =     0.00000000    0.00000000    0.00000000
     atom    7 type  2   force =     0.00000000    0.00000000    0.00000000
     atom    8 type  3   force =     0.00000000    0.00000000    0.00000000
     atom    9 type  3   force =     0.00000000    0.00000000    0.00000000
     atom   10 type  3   force =     0.00000000    0.00000000    0.00000000
     atom   11 type  3   force =     0.00000000    0.00000000    0.00000000
     atom   12 type  3   force =     0.00000000    0.00000000    0.00000000
     atom   13 type  3   force =     0.00000000    0.00000000    0.00000000
     atom   14 type  3   force =     0.00000000    0.00000000    0.00000000
     atom   15 type  3   force =     0.00000000    0.00000000    0.00000000
     atom   16 type  3   force =     0.00000000    0.00000000    0.00000000
     atom   17 type  3   force =     0.00000000    0.00000000    0.00000000
     atom   18 type  4   force =     0.00000000    0.00000000    0.00000000
     atom   19 type  4   force =     0.00000000    0.00000000    0.00000000
     atom   20 type  4   force =     0.00000000    0.00000000    0.00000000
     atom   21 type  4   force =     0.00000000    0.00000000    0.00000000
     atom   22 type  4   force =     0.00000000    0.00000000    0.00000000
     atom   23 type  5   force =     0.00000000    0.00000000    0.00000000
     The SCF correction term to forces
     atom    1 type  1   force =     0.00429314    0.00126593   -0.00719766
     atom    2 type  1   force =     0.00470333    0.00123551   -0.01184164
     atom    3 type  1   force =    -0.00651091   -0.00424001   -0.01192795
     atom    4 type  1   force =    -0.00249499    0.01467709   -0.01212581
     atom    5 type  1   force =     0.00465437   -0.01002845   -0.01324494
     atom    6 type  2   force =     0.00589377   -0.00642832   -0.00805931
     atom    7 type  2   force =    -0.00513576   -0.00991247   -0.00382475
     atom    8 type  3   force =     0.00322427    0.00150802   -0.01007489
     atom    9 type  3   force =    -0.00549361   -0.01548713   -0.01136847
     atom   10 type  3   force =     0.00674838   -0.00457014    0.00355287
     atom   11 type  3   force =     0.00385661    0.00484582    0.00308848
     atom   12 type  3   force =     0.00726057    0.00371111    0.00408263
     atom   13 type  3   force =     0.00148140   -0.00438732    0.00236882
     atom   14 type  3   force =    -0.00527931   -0.00036604    0.00598509
     atom   15 type  3   force =    -0.00439009    0.00996601    0.00055394
     atom   16 type  3   force =    -0.00797687    0.00051986   -0.00265711
     atom   17 type  3   force =    -0.00509468   -0.00714905    0.01000161
     atom   18 type  4   force =    -0.00292556    0.00052733   -0.01424437
     atom   19 type  4   force =     0.00350203    0.00068737    0.00194618
     atom   20 type  4   force =     0.00523761   -0.00025362    0.00241500
     atom   21 type  4   force =     0.00116893   -0.00004874    0.00295929
     atom   22 type  4   force =    -0.00318909   -0.00179292    0.00213868
     atom   23 type  5   force =     0.00097240    0.00009324   -0.00112907

     Total force =     0.549613     Total SCF correction =     0.053463


     Computing stress (Cartesian axis) and pressure


     negative rho (up, down):  9.089E-01 9.089E-01
          total   stress  (Ry/bohr**3)                   (kbar)     P=       93.76
   0.00064904  -0.00001514  -0.00000262           95.48       -2.23       -0.39
  -0.00001514   0.00085934  -0.00001202           -2.23      126.41       -1.77
  -0.00000262  -0.00001202   0.00040367           -0.39       -1.77       59.38


     Entering Dynamics:    iteration =     2
                           time      =   0.0002 pico-seconds


ATOMIC_POSITIONS (angstrom)
Hf            2.6701086199        2.8275281115        6.6039642714
Hf            1.2530958496        1.2866897821        5.0584661402
Hf            1.2555923333        7.3902104996        5.0880678951
Hf            4.0871218795        1.2866895643        5.0584660913
Hf            4.0846196018        7.3902222889        5.0880682509
Nb            2.6701088420        2.7973355787        3.5155843434
Nb            2.6701077547        5.8767850201        6.6349976415
Ta            1.2094788264        4.3413338477        5.0711257032
Ta            4.1307381656        4.3413336266        5.0711256315
Ta            1.3073606891        1.3145276722        2.0587774111
Ta            1.3028963826        1.3087960462        8.0945808016
Ta            1.3041180669        7.3762330216        2.0462355270
Ta            1.3078191974        7.3654897185        8.0860039701
Ta            4.0328565285        1.3145275111        2.0587772631
Ta            4.0373208822        1.3087958872        8.0945809320
Ta            4.0360995021        7.3762333482        2.0462355492
Ta            4.0323983233        7.3654900241        8.0860039536
Zr            2.6701078493        5.8666926683        3.5273834764
Zr            1.2439365303        4.3224835406        1.9999934569
Zr            1.2404870521        4.3545294934        8.1497620807
Zr            4.0962807187        4.3224836038        1.9999933565
Zr            4.0997303190        4.3545294793        8.1497622389
H             4.4683031488        5.5969214861        5.0721527686


     kinetic energy (Ekin) =          90.71229011 Ry
     temperature           =      434010.23726208 K 
     Ekin + Etot (const)   =       -2852.23788148 Ry
     Ions kinetic stress =         1602.08 (kbar)
                                    319.02        1196.46           0.05
                                   1196.46        4487.21           0.18
                                      0.05           0.18           0.00



     Linear momentum :   -0.0000000000   -0.0000000000    0.0000000000

     Writing config-only to output data dir outdir/pwscf.save/
     NEW-OLD atomic charge density approx. for the potential

     Check: negative core charge=   -0.000002

     negative rho (up, down):  9.087E-01 9.087E-01
     Generating pointlists ...
     new r_m :   0.1059 (alat units)  1.8699 (a.u.) for type    2
     new r_m :   0.0574 (alat units)  1.0135 (a.u.) for type    3
     new r_m :   0.1054 (alat units)  1.8599 (a.u.) for type    4

     total cpu time spent up to now is      535.7 secs

     Self-consistent Calculation

     iteration #  1     ecut=   120.00 Ry     beta= 0.70
     Davidson diagonalization with overlap
     c_bands:  1 eigenvalues not converged
     c_bands:  1 eigenvalues not converged
     ethr =  1.00E-06,  avg # of iterations = 20.0

     negative rho (up, down):  9.093E-01 9.093E-01

     total cpu time spent up to now is      576.7 secs

     total energy              =   -2942.77030012 Ry
     estimated scf accuracy    <       0.26205379 Ry

     total magnetization       =    -0.01 Bohr mag/cell
     absolute magnetization    =     0.01 Bohr mag/cell

     iteration #  2     ecut=   120.00 Ry     beta= 0.70
     Davidson diagonalization with overlap
     ethr =  9.46E-05,  avg # of iterations =  2.0

     negative rho (up, down):  9.090E-01 9.090E-01

     total cpu time spent up to now is      594.9 secs

     total energy              =   -2942.80121988 Ry
     estimated scf accuracy    <       0.09679769 Ry

     total magnetization       =    -0.01 Bohr mag/cell
     absolute magnetization    =     0.01 Bohr mag/cell

     iteration #  3     ecut=   120.00 Ry     beta= 0.70
     Davidson diagonalization with overlap
     ethr =  3.49E-05,  avg # of iterations =  1.0

     negative rho (up, down):  9.088E-01 9.088E-01

     total cpu time spent up to now is      628.2 secs

     total energy              =   -2942.80639893 Ry
     estimated scf accuracy    <       0.01053245 Ry

     total magnetization       =    -0.01 Bohr mag/cell
     absolute magnetization    =     0.01 Bohr mag/cell

     iteration #  4     ecut=   120.00 Ry     beta= 0.70
     Davidson diagonalization with overlap
     ethr =  3.80E-06,  avg # of iterations = 16.0

     negative rho (up, down):  9.087E-01 9.087E-01

     total cpu time spent up to now is      668.6 secs

     total energy              =   -2942.80706263 Ry
     estimated scf accuracy    <       0.00119201 Ry

     total magnetization       =    -0.01 Bohr mag/cell
     absolute magnetization    =     0.01 Bohr mag/cell

     iteration #  5     ecut=   120.00 Ry     beta= 0.70
     Davidson diagonalization with overlap
     ethr =  4.30E-07,  avg # of iterations =  5.0

     negative rho (up, down):  9.087E-01 9.087E-01

     Magnetic moment per site  (integrated on atomic sphere of radius R)
     atom   1 (R=0.055)  charge=  2.8628    0.0000
     atom   2 (R=0.055)  charge=  2.8458   -0.0000
     atom   3 (R=0.055)  charge=  2.8453   -0.0000
     atom   4 (R=0.055)  charge=  2.8470    0.0000
     atom   5 (R=0.055)  charge=  2.8521   -0.0000
     atom   6 (R=0.106)  charge= 10.0381   -0.0000
     atom   7 (R=0.106)  charge= 10.0358   -0.0000
     atom   8 (R=0.057)  charge=  3.6463   -0.0000
     atom   9 (R=0.057)  charge=  3.6681   -0.0000
     atom  10 (R=0.057)  charge=  3.6336   -0.0000
     atom  11 (R=0.057)  charge=  3.6321   -0.0001
     atom  12 (R=0.057)  charge=  3.6336   -0.0000
     atom  13 (R=0.057)  charge=  3.6332   -0.0000
     atom  14 (R=0.057)  charge=  3.6367   -0.0000
     atom  15 (R=0.057)  charge=  3.6362   -0.0001
     atom  16 (R=0.057)  charge=  3.6388   -0.0001
     atom  17 (R=0.057)  charge=  3.6359   -0.0000
     atom  18 (R=0.105)  charge=  9.0044   -0.0000
     atom  19 (R=0.105)  charge=  8.6446   -0.0001
     atom  20 (R=0.105)  charge=  8.6409    0.0000
     atom  21 (R=0.105)  charge=  8.6458   -0.0002
     atom  22 (R=0.105)  charge=  8.6404   -0.0001
     atom  23 (R=0.055)  charge=  0.8179   -0.0000

     total cpu time spent up to now is      688.8 secs

     End of self-consistent calculation

 ------ SPIN UP ------------


          k = 0.0000 0.0000 0.0000 ( 61588 PWs)   bands (ev):

   -60.7591 -60.7556 -60.7139 -60.7108 -60.6834 -60.6660 -60.6393 -60.6218
   -60.5704 -60.1954 -54.3704 -54.3202 -54.2436 -54.1870 -52.7058 -46.2963
   -46.2513 -41.6278 -41.6201 -41.5361 -41.5270 -39.8366 -27.7659 -27.7580
   -27.6812 -27.6698 -27.5756 -27.5665 -27.5105 -27.4381 -27.4204 -27.3545
   -27.3101 -27.2876 -27.2436 -27.2384 -27.2247 -27.2017 -27.1783 -27.1433
   -27.1250 -27.1207 -26.9380 -26.9329 -26.9283 -26.9249 -26.8671 -26.8653
   -26.8384 -26.8261 -26.8193 -26.8028 -24.1757 -23.9703 -23.6541 -23.5688
   -23.2963 -23.1732 -23.1392 -23.0447 -22.9290 -22.8473 -22.8434 -22.6189
   -22.5248 -22.4577 -22.3986 -22.3628 -22.2693 -22.2341 -21.7605 -21.7002
   -21.6290 -20.1932 -19.9186 -19.8344 -19.8314 -19.6058 -19.5963 -19.5911
   -19.5787 -19.5670 -19.5280 -19.3598 -19.3451 -18.1822 -17.9862 -17.8368
     0.1073   1.8259   2.9449   3.1515   3.3662   3.4725   3.5439   3.6234
     3.6586   3.8911   3.9215   4.1460   4.2485   4.4771   4.5718   4.7041
     4.7641   4.9404   5.0292   5.1201   5.2062   5.2711   5.2906   5.3670
     5.3978   5.4994   5.5623   5.6768   5.7439   5.7626   5.7799   5.9066
     6.0581   6.1031   6.2012   6.2352   6.2735   6.3363   6.3603   6.3711
     6.5695   6.6112   6.6555   6.7293   6.8210   7.0016   7.0151   7.0868
     7.1407   7.1571   7.2831   7.3181   7.3449   7.4699   7.5420   7.5683
     7.6345   7.8285   7.8950   7.9126   8.0764   8.1041   8.1267   8.2136
     8.2442   8.2798   8.3706   8.3946   8.4760   8.5398   8.6555   8.6702
     8.8375   8.9206   8.9320   9.0415   9.0878   9.1815   9.2672

 ------ SPIN DOWN ----------


          k = 0.0000 0.0000 0.0000 ( 61588 PWs)   bands (ev):

   -60.7592 -60.7558 -60.7141 -60.7109 -60.6836 -60.6662 -60.6395 -60.6220
   -60.5705 -60.1953 -54.3704 -54.3202 -54.2436 -54.1870 -52.7058 -46.2963
   -46.2513 -41.6280 -41.6202 -41.5361 -41.5272 -39.8366 -27.7662 -27.7583
   -27.6815 -27.6701 -27.5758 -27.5667 -27.5105 -27.4383 -27.4206 -27.3546
   -27.3102 -27.2877 -27.2438 -27.2386 -27.2248 -27.2019 -27.1784 -27.1435
   -27.1252 -27.1208 -26.9382 -26.9332 -26.9285 -26.9251 -26.8673 -26.8657
   -26.8386 -26.8264 -26.8192 -26.8028 -24.1757 -23.9703 -23.6541 -23.5688
   -23.2963 -23.1732 -23.1393 -23.0448 -22.9290 -22.8473 -22.8434 -22.6189
   -22.5248 -22.4577 -22.3986 -22.3628 -22.2693 -22.2341 -21.7605 -21.7002
   -21.6290 -20.1934 -19.9186 -19.8345 -19.8316 -19.6059 -19.5964 -19.5912
   -19.5787 -19.5671 -19.5280 -19.3601 -19.3451 -18.1822 -17.9862 -17.8369
     0.1073   1.8257   2.9446   3.1514   3.3660   3.4721   3.5438   3.6233
     3.6585   3.8910   3.9211   4.1458   4.2484   4.4770   4.5717   4.7039
     4.7639   4.9402   5.0290   5.1200   5.2061   5.2709   5.2904   5.3668
     5.3975   5.4993   5.5621   5.6767   5.7437   5.7625   5.7797   5.9065
     6.0579   6.1028   6.2011   6.2350   6.2734   6.3360   6.3602   6.3709
     6.5693   6.6111   6.6553   6.7291   6.8208   7.0012   7.0145   7.0860
     7.1401   7.1568   7.2825   7.3177   7.3442   7.4695   7.5414   7.5682
     7.6341   7.8282   7.8948   7.9123   8.0760   8.1037   8.1264   8.2133
     8.2437   8.2796   8.3700   8.3944   8.4757   8.5396   8.6553   8.6700
     8.8373   8.9201   8.9318   9.0412   9.0876   9.1813   9.2674

     the Fermi energy is     7.2603 ev

!    total energy              =   -2942.80699618 Ry
     estimated scf accuracy    <       0.00032222 Ry
     smearing contrib. (-TS)   =      -0.10103395 Ry
     internal energy E=F+TS    =   -2942.70596223 Ry

     total magnetization       =    -0.01 Bohr mag/cell
     absolute magnetization    =     0.01 Bohr mag/cell

     convergence has been achieved in   5 iterations

     negative rho (up, down):  9.087E-01 9.087E-01

     Forces acting on atoms (cartesian axes, Ry/au):

     atom    1 type  1   force =    -0.00550687   -0.02699666    0.00725938
     atom    2 type  1   force =    -0.11695859   -0.01344076   -0.00764629
     atom    3 type  1   force =    -0.11372180    0.01274443   -0.00107027
     atom    4 type  1   force =     0.14524671   -0.01191344   -0.01172221
     atom    5 type  1   force =     0.09577469    0.01306260    0.00620712
     atom    6 type  2   force =    -0.00026947   -0.02007882    0.01491154
     atom    7 type  2   force =    -0.01575478    0.01048841   -0.00083224
     atom    8 type  3   force =    -0.10642631    0.00394809   -0.00496350
     atom    9 type  3   force =    -0.06321713   -0.54623439   -0.00262219
     atom   10 type  3   force =    -0.02420527   -0.03056304   -0.05885039
     atom   11 type  3   force =    -0.02272415   -0.03381750    0.05777151
     atom   12 type  3   force =    -0.00887768    0.03470364   -0.05551717
     atom   13 type  3   force =    -0.01171627    0.02858788    0.06311465
     atom   14 type  3   force =     0.01747577   -0.03540257   -0.06242118
     atom   15 type  3   force =     0.01718554   -0.03879164    0.06161678
     atom   16 type  3   force =     0.01322219    0.04587123   -0.05593247
     atom   17 type  3   force =     0.01472639    0.03870465    0.06360028
     atom   18 type  4   force =    -0.01558106    0.02055532   -0.01385604
     atom   19 type  4   force =    -0.12245423   -0.00533838   -0.11397763
     atom   20 type  4   force =    -0.12561189    0.00519270    0.11698787
     atom   21 type  4   force =     0.11940933   -0.00771314   -0.11595292
     atom   22 type  4   force =     0.12489542    0.00159450    0.11851024
     atom   23 type  5   force =     0.20508945    0.55483689   -0.00461488
     The non-local contrib.  to forces
     atom    1 type  1   force =     0.00287241   -0.00609096    0.02022236
     atom    2 type  1   force =    -0.24338083   -0.15991969    0.01098439
     atom    3 type  1   force =    -0.23579730    0.15262043   -0.02839391
     atom    4 type  1   force =     0.25254231   -0.18293277    0.01185417
     atom    5 type  1   force =     0.19310348    0.14063813   -0.02294666
     atom    6 type  2   force =     0.00099448   -0.04332542   -0.06608301
     atom    7 type  2   force =     0.00332985    0.06263373    0.06903207
     atom    8 type  3   force =    -0.25320427    0.00821833   -0.00760522
     atom    9 type  3   force =     0.22365985    0.15456285   -0.00398585
     atom   10 type  3   force =    -0.21429771    0.00482652   -0.20527144
     atom   11 type  3   force =    -0.22419117    0.00722106    0.19989041
     atom   12 type  3   force =    -0.19466445   -0.02417312   -0.18075115
     atom   13 type  3   force =    -0.20280478   -0.00760550    0.20979808
     atom   14 type  3   force =     0.21449477   -0.00182198   -0.20654008
     atom   15 type  3   force =     0.22456600    0.00282797    0.19705587
     atom   16 type  3   force =     0.20451977   -0.01728728   -0.17339915
     atom   17 type  3   force =     0.20972114   -0.00302219    0.20279570
     atom   18 type  4   force =     0.00100404    0.05097325   -0.07390476
     atom   19 type  4   force =     0.05826228    0.00887730    0.07500587
     atom   20 type  4   force =     0.05551431   -0.01337984   -0.06896646
     atom   21 type  4   force =    -0.06394028    0.01720356    0.06554030
     atom   22 type  4   force =    -0.05899819   -0.00712712   -0.05559898
     atom   23 type  5   force =    -0.03649957   -0.07959554   -0.00275187
     The ionic contribution  to forces
     atom    1 type  1   force =    -0.21657369   -4.82775760   14.15350912
     atom    2 type  1   force =   -39.77009653   -6.11598524    0.77957662
     atom    3 type  1   force =   -39.93446667    6.29168010   -0.71239877
     atom    4 type  1   force =    39.61173814   -6.12286795    0.77873083
     atom    5 type  1   force =    39.22051726    7.96193676   -0.69741365
     atom    6 type  2   force =    -0.22807441   -3.79706226  -14.05979170
     atom    7 type  2   force =    -0.88183556    3.69291828   14.66515056
     atom    8 type  3   force =   -52.47576446   -0.10926720   -0.06504591
     atom    9 type  3   force =    50.96650405   -4.02138679   -0.06825023
     atom   10 type  3   force =   -36.10800198   -2.08300607  -23.11439630
     atom   11 type  3   force =   -35.18206206   -0.83575408   22.11854550
     atom   12 type  3   force =   -35.34963589    0.86574159  -22.23127713
     atom   13 type  3   force =   -36.14090179    2.25014046   23.16169002
     atom   14 type  3   force =    36.01144376   -2.08681826  -23.18042604
     atom   15 type  3   force =    35.08620952   -0.83916761   22.18447562
     atom   16 type  3   force =    35.15926075    1.01158642  -22.48290527
     atom   17 type  3   force =    35.94768209    2.39774287   23.41689820
     atom   18 type  4   force =    -0.82810662    4.45540118  -14.54204183
     atom   19 type  4   force =   -36.00359276    0.89435581  -25.63023760
     atom   20 type  4   force =   -35.98705546   -1.01506655   25.60881862
     atom   21 type  4   force =    35.81758505    0.76832916  -25.93217701
     atom   22 type  4   force =    35.80091160   -1.13926941   25.91429013
     atom   23 type  5   force =     5.48431564    2.40357641   -0.06532379
     The local contribution  to forces
     atom    1 type  1   force =     0.20117903    4.81092532  -14.17639356
     atom    2 type  1   force =    39.90490220    6.26559900   -0.81351514
     atom    3 type  1   force =    40.06864410   -6.43366349    0.72590044
     atom    4 type  1   force =   -39.74114585    6.29306720   -0.81849663
     atom    5 type  1   force =   -39.33335940   -8.07658319    0.71243656
     atom    6 type  2   force =     0.22068389    3.81963454   14.12791564
     atom    7 type  2   force =     0.85874522   -3.74638949  -14.74585825
     atom    8 type  3   force =    52.65158530    0.10185250    0.05325031
     atom    9 type  3   force =   -51.27994816    3.32003130    0.05530818
     atom   10 type  3   force =    36.32258449    2.03361762   23.27769149
     atom   11 type  3   force =    35.40855341    0.78890498  -22.27344071
     atom   12 type  3   force =    35.55758890   -0.79285857   22.37153795
     atom   13 type  3   force =    36.35255585   -2.20792718  -23.31860462
     atom   14 type  3   force =   -36.23599363    2.03760761   23.34113497
     atom   15 type  3   force =   -35.32212861    0.78945995  -22.33145985
     atom   16 type  3   force =   -35.37692763   -0.93223880   22.61428841
     atom   17 type  3   force =   -36.16779126   -2.34787589  -23.56623664
     atom   18 type  4   force =     0.80738612   -4.48185804   14.58818168
     atom   19 type  4   force =    35.82987634   -0.90800261   25.45246020
     atom   20 type  4   force =    35.81449246    1.03332979  -25.42955336
     atom   21 type  4   force =   -35.64677541   -0.79277079   25.76066403
     atom   22 type  4   force =   -35.63123967    1.14796047  -25.74539614
     atom   23 type  5   force =    -5.24476645   -1.77165611    0.06124019
     The core correction contribution to forces
     atom    1 type  1   force =     0.00105427    0.00130144   -0.00081486
     atom    2 type  1   force =    -0.01002317   -0.00091374    0.00058124
     atom    3 type  1   force =    -0.01081787    0.00434537   -0.00128020
     atom    4 type  1   force =     0.01624952   -0.00548164    0.00074804
     atom    5 type  1   force =     0.00173741    0.00671312   -0.00057933
     atom    6 type  2   force =    -0.00000543    0.00223426    0.00298372
     atom    7 type  2   force =     0.00006107   -0.00312679   -0.00295100
     atom    8 type  3   force =    -0.03019454    0.00025065   -0.00026339
     atom    9 type  3   force =     0.01848217    0.00025895   -0.00050969
     atom   10 type  3   force =    -0.02289478    0.00932519   -0.01577578
     atom   11 type  3   force =    -0.02458009    0.00952418    0.01674370
     atom   12 type  3   force =    -0.02120050   -0.01004145   -0.01592607
     atom   13 type  3   force =    -0.02130350   -0.00931898    0.01680282
     atom   14 type  3   force =     0.02277273    0.00890558   -0.01780363
     atom   15 type  3   force =     0.02429714    0.00946684    0.01811426
     atom   16 type  3   force =     0.02245157   -0.00906543   -0.01424378
     atom   17 type  3   force =     0.02214318   -0.00836671    0.01528180
     atom   18 type  4   force =     0.00008159   -0.00282621    0.00376130
     atom   19 type  4   force =    -0.00951038    0.00004937   -0.00967906
     atom   20 type  4   force =    -0.00949198    0.00034671    0.00946422
     atom   21 type  4   force =     0.00988468   -0.00037486   -0.00905099
     atom   22 type  4   force =     0.00971420   -0.00004830    0.00854263
     atom   23 type  5   force =     0.00000000    0.00000000    0.00000000
     The Hubbard contrib.    to forces
     atom    1 type  1   force =     0.00000000    0.00000000    0.00000000
     atom    2 type  1   force =     0.00000000    0.00000000    0.00000000
     atom    3 type  1   force =     0.00000000    0.00000000    0.00000000
     atom    4 type  1   force =     0.00000000    0.00000000    0.00000000
     atom    5 type  1   force =     0.00000000    0.00000000    0.00000000
     atom    6 type  2   force =     0.00000000    0.00000000    0.00000000
     atom    7 type  2   force =     0.00000000    0.00000000    0.00000000
     atom    8 type  3   force =     0.00000000    0.00000000    0.00000000
     atom    9 type  3   force =     0.00000000    0.00000000    0.00000000
     atom   10 type  3   force =     0.00000000    0.00000000    0.00000000
     atom   11 type  3   force =     0.00000000    0.00000000    0.00000000
     atom   12 type  3   force =     0.00000000    0.00000000    0.00000000
     atom   13 type  3   force =     0.00000000    0.00000000    0.00000000
     atom   14 type  3   force =     0.00000000    0.00000000    0.00000000
     atom   15 type  3   force =     0.00000000    0.00000000    0.00000000
     atom   16 type  3   force =     0.00000000    0.00000000    0.00000000
     atom   17 type  3   force =     0.00000000    0.00000000    0.00000000
     atom   18 type  4   force =     0.00000000    0.00000000    0.00000000
     atom   19 type  4   force =     0.00000000    0.00000000    0.00000000
     atom   20 type  4   force =     0.00000000    0.00000000    0.00000000
     atom   21 type  4   force =     0.00000000    0.00000000    0.00000000
     atom   22 type  4   force =     0.00000000    0.00000000    0.00000000
     atom   23 type  5   force =     0.00000000    0.00000000    0.00000000
     The SCF correction term to forces
     atom    1 type  1   force =     0.00553034   -0.00515052    0.00970429
     atom    2 type  1   force =     0.00120897   -0.00199676    0.01369457
     atom    3 type  1   force =    -0.00171482   -0.00201364    0.01407015
     atom    4 type  1   force =     0.00543183    0.00652606    0.01440934
     atom    5 type  1   force =     0.01334517   -0.01941788    0.01367816
     atom    6 type  2   force =     0.00570123   -0.00133560    0.00885487
     atom    7 type  2   force =     0.00351388    0.00467701    0.01276235
     atom    8 type  3   force =     0.00072089    0.00311815    0.01366867
     atom    9 type  3   force =     0.00765419    0.00052364    0.01378338
     atom   10 type  3   force =    -0.00202606    0.00489803   -0.00213040
     atom   11 type  3   force =    -0.00087502   -0.00348930   -0.00499941
     atom   12 type  3   force =    -0.00139651   -0.00374047   -0.00013280
     atom   13 type  3   force =     0.00030719    0.00352342   -0.00760369
     atom   14 type  3   force =     0.00432736    0.00694882    0.00018157
     atom   15 type  3   force =     0.00381073   -0.00115446   -0.00760114
     atom   16 type  3   force =     0.00348695   -0.00689935   -0.00070471
     atom   17 type  3   force =     0.00254048    0.00045091   -0.00617081
     atom   18 type  4   force =     0.00362304   -0.00091052    0.00911554
     atom   19 type  4   force =     0.00207954   -0.00039391   -0.00255907
[...]
     3.7000   3.8748   3.8821   4.0852   4.2562   4.4648   4.6357   4.6552
     4.7250   4.9647   5.0079   5.0781   5.2145   5.2319   5.2629   5.3262
     5.5040   5.5194   5.6137   5.6740   5.6869   5.7058   5.7246   5.8000
     5.8898   6.0868   6.1413   6.1930   6.2078   6.2504   6.3253   6.3584
     6.5073   6.5397   6.6432   6.7194   6.7494   6.9030   6.9589   7.0284
     7.0688   7.1052   7.2214   7.2602   7.2776   7.3919   7.5135   7.5808
     7.6027   7.7223   7.8668   7.9126   8.0500   8.0723   8.0902   8.1728
     8.2319   8.2412   8.2938   8.3234   8.3477   8.5391   8.6074   8.6228
     8.7495   8.8331   8.8773   9.0358   9.0640   9.1686   9.2387

     the Fermi energy is     7.2011 ev

!    total energy              =   -2942.96239342 Ry
     estimated scf accuracy    <       0.00059052 Ry
     smearing contrib. (-TS)   =      -0.09774831 Ry
     internal energy E=F+TS    =   -2942.86464511 Ry

     total magnetization       =    -0.00 Bohr mag/cell
     absolute magnetization    =     0.00 Bohr mag/cell

     convergence has been achieved in   6 iterations

     negative rho (up, down):  9.089E-01 9.089E-01

     Forces acting on atoms (cartesian axes, Ry/au):

     atom    1 type  1   force =    -0.02504681   -0.03771041    0.02154964
     atom    2 type  1   force =    -0.12543583   -0.01318247   -0.00041710
     atom    3 type  1   force =    -0.11401863    0.01183415    0.00422232
     atom    4 type  1   force =     0.13693894   -0.01554774   -0.00091376
     atom    5 type  1   force =     0.11552616    0.00409769    0.00379139
     atom    6 type  2   force =    -0.02093455   -0.02805173    0.00157130
     atom    7 type  2   force =     0.00279157    0.00342219   -0.01170401
     atom    8 type  3   force =    -0.12573920    0.00131786   -0.00326676
     atom    9 type  3   force =     0.18160656    0.04082136   -0.00441116
     atom   10 type  3   force =    -0.02225529   -0.02734720   -0.06081221
     atom   11 type  3   force =    -0.01875574   -0.03241883    0.05579282
     atom   12 type  3   force =    -0.01670008    0.03696974   -0.05421979
     atom   13 type  3   force =    -0.01658909    0.03147723    0.05931523
     atom   14 type  3   force =     0.02484176   -0.03299514   -0.05976915
     atom   15 type  3   force =     0.02045908   -0.03778252    0.05517047
     atom   16 type  3   force =     0.01670625    0.03484609   -0.05536742
     atom   17 type  3   force =     0.01651123    0.02958860    0.05972165
     atom   18 type  4   force =     0.00375630    0.01429799   -0.00946659
     atom   19 type  4   force =    -0.12957945   -0.00238407   -0.11574363
     atom   20 type  4   force =    -0.13326158    0.00734270    0.11568543
     atom   21 type  4   force =     0.13105794   -0.00106041   -0.11738278
     atom   22 type  4   force =     0.13727584    0.00976113    0.11858161
     atom   23 type  5   force =    -0.03915538    0.00270379   -0.00192752
     The non-local contrib.  to forces
     atom    1 type  1   force =     0.00018221   -0.00578196    0.02079471
     atom    2 type  1   force =    -0.25991355   -0.16104375    0.01903785
     atom    3 type  1   force =    -0.24617738    0.15552453   -0.02591208
     atom    4 type  1   force =     0.26700880   -0.16753483    0.01886044
     atom    5 type  1   force =     0.25391590    0.14116231   -0.02646447
     atom    6 type  2   force =    -0.00370129   -0.04385448   -0.05846603
     atom    7 type  2   force =    -0.00215149    0.06188948    0.06228437
     atom    8 type  3   force =    -0.29618526   -0.00121156   -0.00450812
     atom    9 type  3   force =     0.23284613   -0.01067203    0.00958328
     atom   10 type  3   force =    -0.22250336    0.00820909   -0.20695018
     atom   11 type  3   force =    -0.23137923    0.00719525    0.19280122
     atom   12 type  3   force =    -0.19065381   -0.01871483   -0.17732696
     atom   13 type  3   force =    -0.19804492   -0.00030443    0.20716303
     atom   14 type  3   force =     0.22571527    0.01034944   -0.20244378
     atom   15 type  3   force =     0.23784655    0.01501005    0.18497530
     atom   16 type  3   force =     0.19040001   -0.01497582   -0.18585089
     atom   17 type  3   force =     0.19741672    0.00143310    0.21374234
     atom   18 type  4   force =    -0.00204857    0.05571083   -0.06387004
     atom   19 type  4   force =     0.06135179    0.01186195    0.06808998
     atom   20 type  4   force =     0.05594162   -0.01245942   -0.06200470
     atom   21 type  4   force =    -0.06319942    0.01295981    0.07294864
     atom   22 type  4   force =    -0.05882249   -0.01162615   -0.07118485
     atom   23 type  5   force =    -0.00870931    0.00208343   -0.00064398
     The ionic contribution  to forces
     atom    1 type  1   force =    -0.61568575   -4.79630554   14.79110606
     atom    2 type  1   force =   -39.65858520   -6.44213038    0.76426881
     atom    3 type  1   force =   -39.45960243    5.99663687   -0.72150265
     atom    4 type  1   force =    39.35722693   -7.18217861    0.75062845
     atom    5 type  1   force =    39.59471533    5.37892476   -0.72507057
     atom    6 type  2   force =    -0.64758005   -3.79577372  -14.75028636
     atom    7 type  2   force =     0.44832522    3.69694109   13.58846922
     atom    8 type  3   force =   -52.09307336    0.56066674   -0.07974952
     atom    9 type  3   force =    51.42333385    2.22014131   -0.00179985
     atom   10 type  3   force =   -36.02390934   -2.21204465  -23.20271935
     atom   11 type  3   force =   -35.08392675   -0.97177136   22.21641328
     atom   12 type  3   force =   -35.15390247    0.73929601  -22.12349801
     atom   13 type  3   force =   -35.93628101    2.12295964   23.05718578
     atom   14 type  3   force =    35.93686002   -2.31224737  -23.33409729
     atom   15 type  3   force =    34.98580793   -1.07659579   22.35367883
     atom   16 type  3   force =    35.18645714    0.64868977  -22.04174168
     atom   17 type  3   force =    35.96749360    2.02934711   22.97392237
     atom   18 type  4   force =     0.41361266    4.47686277  -13.55204670
     atom   19 type  4   force =   -35.83136411    1.09718166  -25.64033920
     atom   20 type  4   force =   -35.79299197   -0.80576546   25.62563877
     atom   21 type  4   force =    35.82191074    1.29673748  -25.65713298
     atom   22 type  4   force =    35.77274512   -0.60131120   25.62831798
     atom   23 type  5   force =     1.38841390   -0.06826113    0.08035461
     The local contribution  to forces
     atom    1 type  1   force =     0.58344051    4.76740802  -14.78146906
     atom    2 type  1   force =    39.80143693    6.59774943   -0.78051631
     atom    3 type  1   force =    39.60302841   -6.14755099    0.75715986
     atom    4 type  1   force =   -39.48892444    7.34354116   -0.76615485
     atom    5 type  1   force =   -39.74737087   -5.52743785    0.75914694
     atom    6 type  2   force =     0.62415596    3.81856920   14.80795498
     atom    7 type  2   force =    -0.44263434   -3.75449840  -13.65600411
     atom    8 type  3   force =    52.28751114   -0.55851879    0.08450110
     atom    9 type  3   force =   -51.50174869   -2.16272990   -0.01007239
     atom   10 type  3   force =    36.24559122    2.17191323   23.36602729
     atom   11 type  3   force =    35.32290371    0.92498070  -22.37247854
     atom   12 type  3   force =    35.35128490   -0.68092082   22.26008894
     atom   13 type  3   force =    36.14234282   -2.08638609  -23.22171589
     atom   14 type  3   force =   -36.16027861    2.26007770   23.48747231
     atom   15 type  3   force =   -35.23053409    1.01367450  -22.49649406
     atom   16 type  3   force =   -35.37995017   -0.59696999   22.18482939
     atom   17 type  3   force =   -36.17166806   -1.99607107  -23.14186107
     atom   18 type  4   force =    -0.40554152   -4.51848484   13.60619371
     atom   19 type  4   force =    35.64854729   -1.11058465   25.46829615
     atom   20 type  4   force =    35.61299582    0.82564832  -25.46014194
     atom   21 type  4   force =   -35.63584650   -1.30658329   25.47582498
     atom   22 type  4   force =   -35.58666575    0.62432177  -25.44814771
     atom   23 type  5   force =    -1.41748684    0.07199726   -0.08119694
     The core correction contribution to forces
     atom    1 type  1   force =     0.00249298    0.00199770   -0.00163063
     atom    2 type  1   force =    -0.01320611   -0.00202277    0.00075264
     atom    3 type  1   force =    -0.01232815    0.00249188   -0.00146973
     atom    4 type  1   force =     0.01031501   -0.00538462    0.00080574
     atom    5 type  1   force =     0.01340305    0.00216595   -0.00124882
     atom    6 type  2   force =    -0.00014017    0.00196158    0.00215628
     atom    7 type  2   force =     0.00015874   -0.00305216   -0.00251608
     atom    8 type  3   force =    -0.03436074    0.00019666   -0.00013775
     atom    9 type  3   force =     0.02609756    0.00182969    0.00035420
     atom   10 type  3   force =    -0.02316305    0.00975483   -0.01607162
     atom   11 type  3   force =    -0.02477089    0.00979411    0.01661645
     atom   12 type  3   force =    -0.02233314   -0.00909695   -0.01552064
     atom   13 type  3   force =    -0.02183949   -0.00841583    0.01694095
     atom   14 type  3   force =     0.02378437    0.01092335   -0.01468398
     atom   15 type  3   force =     0.02542834    0.01132594    0.01475060
     atom   16 type  3   force =     0.02163526   -0.00996219   -0.01508518
     atom   17 type  3   force =     0.02146998   -0.00921361    0.01587463
     atom   18 type  4   force =     0.00017921   -0.00301399    0.00312899
     atom   19 type  4   force =    -0.00988662   -0.00013141   -0.00922505
     atom   20 type  4   force =    -0.00976189    0.00025925    0.00898951
     atom   21 type  4   force =     0.01014560   -0.00016383   -0.00946895
     atom   22 type  4   force =     0.01019723    0.00018856    0.00942355
     atom   23 type  5   force =     0.00000000    0.00000000    0.00000000
     The Hubbard contrib.    to forces
     atom    1 type  1   force =     0.00000000    0.00000000    0.00000000
     atom    2 type  1   force =     0.00000000    0.00000000    0.00000000
     atom    3 type  1   force =     0.00000000    0.00000000    0.00000000
     atom    4 type  1   force =     0.00000000    0.00000000    0.00000000
     atom    5 type  1   force =     0.00000000    0.00000000    0.00000000
     atom    6 type  2   force =     0.00000000    0.00000000    0.00000000
     atom    7 type  2   force =     0.00000000    0.00000000    0.00000000
     atom    8 type  3   force =     0.00000000    0.00000000    0.00000000
     atom    9 type  3   force =     0.00000000    0.00000000    0.00000000
     atom   10 type  3   force =     0.00000000    0.00000000    0.00000000
     atom   11 type  3   force =     0.00000000    0.00000000    0.00000000
     atom   12 type  3   force =     0.00000000    0.00000000    0.00000000
     atom   13 type  3   force =     0.00000000    0.00000000    0.00000000
     atom   14 type  3   force =     0.00000000    0.00000000    0.00000000
     atom   15 type  3   force =     0.00000000    0.00000000    0.00000000
     atom   16 type  3   force =     0.00000000    0.00000000    0.00000000
     atom   17 type  3   force =     0.00000000    0.00000000    0.00000000
     atom   18 type  4   force =     0.00000000    0.00000000    0.00000000
     atom   19 type  4   force =     0.00000000    0.00000000    0.00000000
     atom   20 type  4   force =     0.00000000    0.00000000    0.00000000
     atom   21 type  4   force =     0.00000000    0.00000000    0.00000000
     atom   22 type  4   force =     0.00000000    0.00000000    0.00000000
     atom   23 type  5   force =     0.00000000    0.00000000    0.00000000
     The SCF correction term to forces
     atom    1 type  1   force =     0.00442173   -0.00505329   -0.00696286
     atom    2 type  1   force =     0.00473059   -0.00575966   -0.00367151
     atom    3 type  1   force =     0.00095941    0.00470719   -0.00376450
     atom    4 type  1   force =    -0.00878887   -0.00401549   -0.00476497
     atom    5 type  1   force =     0.00076124    0.00925787   -0.00228311
     atom    6 type  2   force =     0.00622949   -0.00897897    0.00050100
     atom    7 type  2   force =    -0.00100808    0.00211752   -0.00364883
     atom    8 type  3   force =     0.01026751    0.00016015   -0.00308391
     atom    9 type  3   force =     0.00097619   -0.00777237   -0.00218782
     atom   10 type  3   force =     0.00162773   -0.00520436   -0.00080979
     atom   11 type  3   force =    -0.00168410   -0.00264219    0.00272900
     atom   12 type  3   force =    -0.00119707    0.00638167    0.00232546
     atom   13 type  3   force =    -0.00286800    0.00359927    0.00002993
     atom   14 type  3   force =    -0.00134079   -0.00212292    0.00427216
     atom   15 type  3   force =     0.00180883   -0.00122188   -0.00145163
     atom   16 type  3   force =    -0.00193749    0.00803966    0.00276952
     atom   17 type  3   force =     0.00169747    0.00406841   -0.00166804
     atom   18 type  4   force =    -0.00254700    0.00319856   -0.00258397
     atom   19 type  4   force =     0.00167069   -0.00073628   -0.00227693
     atom   20 type  4   force =     0.00045333   -0.00036465    0.00349237
     atom   21 type  4   force =    -0.00205400   -0.00403524    0.00073411
     atom   22 type  4   force =    -0.00027978   -0.00183652    0.00046122
     atom   23 type  5   force =    -0.00147465   -0.00314043   -0.00015264

     Total force =     0.530371     Total SCF correction =     0.032471


     Computing stress (Cartesian axis) and pressure


     negative rho (up, down):  9.089E-01 9.089E-01
          total   stress  (Ry/bohr**3)                   (kbar)     P=       82.31
   0.00062742   0.00001218  -0.00000189           92.30        1.79       -0.28
   0.00001218   0.00065814  -0.00001466            1.79       96.82       -2.16
  -0.00000189  -0.00001466   0.00039311           -0.28       -2.16       57.83


     Entering Dynamics:    iteration =    12
                           time      =   0.0012 pico-seconds


ATOMIC_POSITIONS (angstrom)
Hf            2.6706528200        2.8295347468        6.6039710418
Hf            1.2535188824        1.2887060897        5.0584632848
Hf            1.2560210811        7.3922521258        5.0880719437
Hf            4.0878054414        1.2887102160        5.0584609282
Hf            4.0851741886        7.3923333645        5.0880734688
Nb            2.6706574570        2.7993381631        3.5156093184
Nb            2.6706437550        5.8788293569        6.6349789014
Ta            1.2099182113        4.3433674546        5.0711216926
Ta            4.0891134344        4.2195522892        5.0688278809
Ta            1.3078805381        1.3165267738        2.0587180320
Ta            1.3034183534        1.3107898947        8.0946360375
Ta            1.3046479115        7.3782976225        2.0461802295
Ta            1.3083479808        7.3675496022        8.0860638229
Ta            4.0334189143        1.3165250006        2.0587156516
Ta            4.0378821703        1.3107881413        8.0946385192
Ta            4.0366581770        7.3783028431        2.0461806300
Ta            4.0329568382        7.3675541980        8.0860632662
Zr            2.6706423475        5.8687560676        3.5273688726
Zr            1.2442344319        4.3245017979        1.9997658978
Zr            1.2407778793        4.3565706243        8.1499910738
Zr            4.0970677300        4.3245015323        1.9997697032
Zr            4.1005272288        4.3565673035        8.1499878316
H             7.3724539453       13.3451351392        5.2783947930


     kinetic energy (Ekin) =        1894.21757893 Ry
     temperature           =     9062827.31776435 K 
     Ekin + Etot (const)   =       -1048.74481449 Ry
     Ions kinetic stress =        33453.96 (kbar)
                                  11517.29       31979.10         735.27
                                  31979.10       88797.63        2041.36
                                    735.27        2041.36          46.96



     Linear momentum :   -0.0000000000    0.0000000000    0.0000000000

     The maximum number of steps has been reached.

     End of molecular dynamics calculation

     diffusion coefficients :
     atom     1   D =       0.00000009 cm^2/s
     atom     2   D =       0.00000008 cm^2/s
     atom     3   D =       0.00000009 cm^2/s
     atom     4   D =       0.00000009 cm^2/s
     atom     5   D =       0.00000009 cm^2/s
     atom     6   D =       0.00000009 cm^2/s
     atom     7   D =       0.00000009 cm^2/s
     atom     8   D =       0.00000009 cm^2/s
     atom     9   D =       0.00022504 cm^2/s
     atom    10   D =       0.00000008 cm^2/s
     atom    11   D =       0.00000008 cm^2/s
     atom    12   D =       0.00000009 cm^2/s
     atom    13   D =       0.00000009 cm^2/s
     atom    14   D =       0.00000009 cm^2/s
     atom    15   D =       0.00000008 cm^2/s
     atom    16   D =       0.00000009 cm^2/s
     atom    17   D =       0.00000009 cm^2/s
     atom    18   D =       0.00000009 cm^2/s
     atom    19   D =       0.00000008 cm^2/s
     atom    20   D =       0.00000008 cm^2/s
     atom    21   D =       0.00000009 cm^2/s
     atom    22   D =       0.00000009 cm^2/s
     atom    23   D =       0.78602023 cm^2/s

     < D > =       0.03418466 cm^2/s

     Writing all to output data dir outdir/pwscf.save/

     init_run     :     10.66s CPU     11.52s WALL (       1 calls)
     electrons    :   1660.97s CPU   2011.40s WALL (      12 calls)
     update_pot   :     11.05s CPU     11.70s WALL (      11 calls)
     forces       :    135.75s CPU    155.55s WALL (      12 calls)
     stress       :    176.54s CPU    195.73s WALL (      12 calls)

     Called by init_run:
     wfcinit      :      8.19s CPU      8.65s WALL (       1 calls)
     potinit      :      0.48s CPU      0.49s WALL (       1 calls)
     hinit0       :      0.94s CPU      1.04s WALL (       1 calls)

     Called by electrons:
     c_bands      :   1328.75s CPU   1616.31s WALL (      72 calls)
     sum_band     :    215.07s CPU    257.42s WALL (      72 calls)
     v_of_rho     :      7.28s CPU      8.61s WALL (      84 calls)
     newd         :    121.83s CPU    143.64s WALL (      84 calls)
     mix_rho      :      0.74s CPU      1.01s WALL (      72 calls)

     Called by c_bands:
     init_us_2    :      2.75s CPU      2.90s WALL (     338 calls)
     init_us_2:cp :      2.74s CPU      2.90s WALL (     338 calls)
     regterg      :   1319.35s CPU   1605.33s WALL (     144 calls)

     Called by *egterg:
     rdiaghg      :     40.76s CPU     52.07s WALL (    1185 calls)
     h_psi        :    678.01s CPU    757.70s WALL (    1209 calls)
     s_psi        :    225.87s CPU    226.40s WALL (    1209 calls)
     g_psi        :      0.47s CPU      0.51s WALL (    1063 calls)

     Called by h_psi:
     h_psi:calbec :    330.07s CPU    386.90s WALL (    1209 calls)
     vloc_psi     :     70.24s CPU     92.20s WALL (    1209 calls)
     add_vuspsi   :    276.73s CPU    277.56s WALL (    1209 calls)

     General routines
     calbec       :    549.84s CPU    654.46s WALL (    1473 calls)
     fft          :      6.26s CPU     17.16s WALL (    1679 calls)
     ffts         :      0.16s CPU      0.19s WALL (      72 calls)
     fftw         :     74.74s CPU     98.73s WALL (   79082 calls)

     Parallel routines

     PWSCF        :  33m27.86s CPU  40m 2.60s WALL


   This run was terminated on:   4:45:32  12Jun2023            

=------------------------------------------------------------------------------=
   JOB DONE.
=------------------------------------------------------------------------------=
