
     Program PWSCF v.7.2 starts on 16Jun2023 at 16:42:50 

     This program is part of the open-source Quantum ESPRESSO suite
     for quantum simulation of materials; please cite
         "P. Giannozzi et al., J. Phys.:Condens. Matter 21 395502 (2009);
         "P. Giannozzi et al., J. Phys.:Condens. Matter 29 465901 (2017);
         "P. Giannozzi et al., J. Chem. Phys. 152 154105 (2020);
          URL http://www.quantum-espresso.org", 
     in publications or presentations arising from this work. More details at
     http://www.quantum-espresso.org/quote

     Parallel version (MPI), running on    42 processors

     MPI processes distributed on     1 nodes
     172647 MiB available memory on the printing compute node when the environment starts

     Reading input from md_data/md_Hf5Nb2Ta10Zr5H_20steps_50eV_incident30_polar90.in
Warning: card &CELL ignored
Warning: card / ignored

     Current dimensions of program PWSCF are:
     Max number of different atomic species (ntypx) = 10
     Max number of k-points (npk) =  40000
     Max angular momentum in pseudopotentials (lmaxx) =  4

     File outdir/pwscf.md deleted, as requested

     gamma-point specific algorithms are used

     R & G space division:  proc/nbgrp/npool/nimage =      42
     Subspace diagonalization in iterative solution of the eigenvalue problem:
     one sub-group per band group will be used
     custom distributed-memory algorithm (size of sub-group:  2*  2 procs)


     Parallelization info
     --------------------
     sticks:   dense  smooth     PW     G-vecs:    dense   smooth      PW
     Min         262     262     63                23470    23470    2920
     Max         265     265     66                23484    23484    2942
     Sum       11057   11057   2753               986005   986005  123175

     Using Slab Decomposition



     bravais-lattice index     =            0
     lattice parameter (alat)  =      17.6500  a.u.
     unit-cell volume          =    5552.8853 (a.u.)^3
     number of atoms/cell      =           23
     number of atomic types    =            5
     number of electrons       =       277.00
     number of Kohn-Sham states=          167
     kinetic-energy cutoff     =     120.0000  Ry
     charge density cutoff     =     480.0000  Ry
     scf convergence threshold =      1.0E-03
     mixing beta               =       0.7000
     number of iterations used =            8  TF        mixing
     energy convergence thresh.=      0.0E+00
     force convergence thresh. =      0.0E+00
     Exchange-correlation=  SLA  PW   PBX  PBC
                           (   1   4   3   4   0   0   0)
     nstep                     =           20


     celldm(1)=  17.650041  celldm(2)=   0.000000  celldm(3)=   0.000000
     celldm(4)=   0.000000  celldm(5)=   0.000000  celldm(6)=   0.000000

     crystal axes: (cart. coord. in units of alat)
               a(1) = (   1.000000   0.000000   0.000000 )  
               a(2) = (   0.000000   0.929336   0.000000 )  
               a(3) = (   0.000000   0.000000   1.086698 )  

     reciprocal axes: (cart. coord. in units 2 pi/alat)
               b(1) = (  1.000000  0.000000  0.000000 )  
               b(2) = (  0.000000  1.076037  0.000000 )  
               b(3) = (  0.000000  0.000000  0.920219 )  


     PseudoPot. # 1 for Hf read from file:
     q-e/pseudo/hf_pbe_v1.uspp.F.UPF
     MD5 check sum: 8ee9378dfe14276e333edf04c5e4aa26
     Pseudo is Ultrasoft + core correction, Zval = 12.0
     Generated by new atomic code, or converted to UPF format
     Using radial grid of  921 points,  8 beta functions with: 
                l(1) =   0
                l(2) =   0
                l(3) =   0
                l(4) =   1
                l(5) =   1
                l(6) =   2
                l(7) =   2
                l(8) =   3
     Q(r) pseudized with  6 coefficients,  rinner =    1.200   1.200   1.200
                                                       1.200   1.200   1.200
                                                       1.200

     PseudoPot. # 2 for Nb read from file:
     q-e/pseudo/nb_pbe_v1.uspp.F.UPF
     MD5 check sum: 573aab8a2fa660278ed4a62cd769473f
     Pseudo is Ultrasoft + core correction, Zval = 13.0
     Generated by new atomic code, or converted to UPF format
     Using radial grid of  887 points,  6 beta functions with: 
                l(1) =   0
                l(2) =   0
                l(3) =   1
                l(4) =   1
                l(5) =   2
                l(6) =   2
     Q(r) pseudized with  6 coefficients,  rinner =    1.000   1.000   1.000
                                                       1.000   1.000

     PseudoPot. # 3 for Ta read from file:
     q-e/pseudo/ta_pbe_v1.uspp.F.UPF
     MD5 check sum: f8bbe9446314a3b8ea5d9f3e3836c939
     Pseudo is Ultrasoft + core correction, Zval = 13.0
     Generated by new atomic code, or converted to UPF format
     Using radial grid of  921 points,  7 beta functions with: 
                l(1) =   0
                l(2) =   0
                l(3) =   1
                l(4) =   1
                l(5) =   2
                l(6) =   2
                l(7) =   3
     Q(r) pseudized with  6 coefficients,  rinner =    1.300   1.300   1.300
                                                       1.300   1.300   1.300
                                                       1.300

     PseudoPot. # 4 for Zr read from file:
     q-e/pseudo/zr_pbe_v1.uspp.F.UPF
     MD5 check sum: 5db81b1e868ab7776c4564c113de050b
     Pseudo is Ultrasoft + core correction, Zval = 12.0
     Generated by new atomic code, or converted to UPF format
     Using radial grid of  887 points,  6 beta functions with: 
                l(1) =   0
                l(2) =   0
                l(3) =   1
                l(4) =   1
                l(5) =   2
                l(6) =   2
     Q(r) pseudized with  6 coefficients,  rinner =    1.200   1.200   1.200
                                                       1.200   1.200

     PseudoPot. # 5 for H  read from file:
     q-e/pseudo/h_pbe_v1.4.uspp.F.UPF
     MD5 check sum: 761ae9a214b05c3daf00ab9f6b793d6f
     Pseudo is Ultrasoft, Zval =  1.0
     Generated by new atomic code, or converted to UPF format
     Using radial grid of  615 points,  2 beta functions with: 
                l(1) =   0
                l(2) =   0
     Q(r) pseudized with  8 coefficients,  rinner =    0.700

     atomic species   valence    mass     pseudopotential
        Hf            12.00   178.49000     Hf( 1.00)
        Nb            13.00    92.90637     Nb( 1.00)
        Ta            13.00   180.94788     Ta( 1.00)
        Zr            12.00    91.22400     Zr( 1.00)
        H              1.00     2.01400     H ( 1.00)

     Starting magnetic structure 
     atomic species   magnetization
        Hf           0.000
        Nb           0.000
        Ta           0.000
        Zr           0.000
        H            0.000

     No symmetry found



   Cartesian axes

     site n.     atom                  positions (alat units)
         1           Hf  tau(   1) = (   0.2858672   0.3026898   0.7070626  )
         2           Hf  tau(   2) = (   0.1341532   0.1377178   0.5415917  )
         3           Hf  tau(   3) = (   0.1344204   0.7911996   0.5447610  )
         4           Hf  tau(   4) = (   0.4375813   0.1377178   0.5415917  )
         5           Hf  tau(   5) = (   0.4373140   0.7911996   0.5447610  )
         6           Nb  tau(   6) = (   0.2858672   0.2994572   0.3764008  )
         7           Nb  tau(   7) = (   0.2858672   0.6291626   0.7103852  )
         8           Ta  tau(   8) = (   0.1294832   0.4647675   0.5429471  )
         9           Ta  tau(   9) = (   0.4422513   0.4647675   0.5429471  )
        10           Ta  tau(  10) = (   0.1399628   0.1406984   0.2204260  )
        11           Ta  tau(  11) = (   0.1394848   0.1400847   0.8666573  )
        12           Ta  tau(  12) = (   0.1396156   0.7897030   0.2190832  )
        13           Ta  tau(  13) = (   0.1400119   0.7885528   0.8657390  )
        14           Ta  tau(  14) = (   0.4317717   0.1406984   0.2204260  )
        15           Ta  tau(  15) = (   0.4322496   0.1400847   0.8666573  )
        16           Ta  tau(  16) = (   0.4321189   0.7897030   0.2190832  )
        17           Ta  tau(  17) = (   0.4317226   0.7885528   0.8657390  )
        18           Zr  tau(  18) = (   0.2858672   0.6280820   0.3776642  )
        19           Zr  tau(  19) = (   0.1331729   0.4627493   0.2141328  )
        20           Zr  tau(  20) = (   0.1328036   0.4661802   0.8725649  )
        21           Zr  tau(  21) = (   0.4385616   0.4627493   0.2141328  )
        22           Zr  tau(  22) = (   0.4389309   0.4661802   0.8725649  )
        23           H   tau(  23) = (   0.6276957   0.4646681   0.6501263  )

     number of k points=     1  Gaussian smearing, width (Ry)=  0.0220
                       cart. coord. in units 2pi/alat
        k(    1) = (   0.0000000   0.0000000   0.0000000), wk =   1.0000000

     Dense  grid:   493003 G-vectors     FFT dimensions: ( 125, 120, 135)

     Estimated max dynamical RAM per process >     133.03 MB

     Estimated total dynamical RAM >       5.46 GB

     Check: negative core charge=   -0.000002
     Generating pointlists ...
     new r_m :   0.1117 (alat units)  1.9717 (a.u.) for type    1
     new r_m :   0.1098 (alat units)  1.9374 (a.u.) for type    2
     new r_m :   0.0884 (alat units)  1.5594 (a.u.) for type    3
     new r_m :   0.1112 (alat units)  1.9625 (a.u.) for type    4
     new r_m :   0.0884 (alat units)  1.5594 (a.u.) for type    5

     Initial potential from superposition of free atoms

     starting charge     266.9726, renormalised to     277.0000

     negative rho (up, down):  9.217E-01 9.217E-01
     Starting wfcs are  287 randomized atomic wfcs

     total cpu time spent up to now is       13.3 secs

     Self-consistent Calculation

     iteration #  1     ecut=   120.00 Ry     beta= 0.70
     Davidson diagonalization with overlap
     ethr =  1.00E-02,  avg # of iterations =  2.0

     negative rho (up, down):  9.974E-01 9.971E-01

     total cpu time spent up to now is       33.4 secs

     total energy              =   -2930.56980442 Ry
     estimated scf accuracy    <     277.06023899 Ry

     total magnetization       =    -0.00 Bohr mag/cell
     absolute magnetization    =     0.09 Bohr mag/cell

     iteration #  2     ecut=   120.00 Ry     beta= 0.70
     Davidson diagonalization with overlap
     ethr =  1.00E-02,  avg # of iterations =  5.0

     negative rho (up, down):  9.719E-01 9.682E-01

     total cpu time spent up to now is       55.5 secs

     total energy              =   -2942.27524027 Ry
     estimated scf accuracy    <      29.86359976 Ry

     total magnetization       =    -0.12 Bohr mag/cell
     absolute magnetization    =     0.36 Bohr mag/cell

     iteration #  3     ecut=   120.00 Ry     beta= 0.70
     Davidson diagonalization with overlap
     ethr =  1.00E-02,  avg # of iterations =  2.0

     negative rho (up, down):  1.007E+00 1.007E+00

     total cpu time spent up to now is       85.7 secs

     total energy              =   -2942.65653681 Ry
     estimated scf accuracy    <      13.03972953 Ry

     total magnetization       =    -0.08 Bohr mag/cell
     absolute magnetization    =     0.48 Bohr mag/cell

     iteration #  4     ecut=   120.00 Ry     beta= 0.70
     Davidson diagonalization with overlap
     ethr =  4.71E-03,  avg # of iterations =  3.0

     negative rho (up, down):  1.014E+00 1.015E+00

     total cpu time spent up to now is      123.7 secs

     total energy              =   -2942.91456373 Ry
     estimated scf accuracy    <       3.21496595 Ry

     total magnetization       =     0.02 Bohr mag/cell
     absolute magnetization    =     0.42 Bohr mag/cell

     iteration #  5     ecut=   120.00 Ry     beta= 0.70
     Davidson diagonalization with overlap
     ethr =  1.16E-03,  avg # of iterations =  8.0

     negative rho (up, down):  9.904E-01 9.910E-01

     total cpu time spent up to now is      158.3 secs

     total energy              =   -2943.07485376 Ry
     estimated scf accuracy    <       1.76673206 Ry

     total magnetization       =    -0.01 Bohr mag/cell
     absolute magnetization    =     0.25 Bohr mag/cell

     iteration #  6     ecut=   120.00 Ry     beta= 0.70
     Davidson diagonalization with overlap
     ethr =  6.38E-04,  avg # of iterations =  2.0

     negative rho (up, down):  9.764E-01 9.768E-01

     total cpu time spent up to now is      175.8 secs

     total energy              =   -2943.11404655 Ry
     estimated scf accuracy    <       1.00735984 Ry

     total magnetization       =    -0.02 Bohr mag/cell
     absolute magnetization    =     0.18 Bohr mag/cell

     iteration #  7     ecut=   120.00 Ry     beta= 0.70
     Davidson diagonalization with overlap
     ethr =  3.64E-04,  avg # of iterations =  2.0

     negative rho (up, down):  9.476E-01 9.479E-01

     total cpu time spent up to now is      193.9 secs

     total energy              =   -2943.06431998 Ry
     estimated scf accuracy    <       0.38701470 Ry

     total magnetization       =    -0.00 Bohr mag/cell
     absolute magnetization    =     0.15 Bohr mag/cell

     iteration #  8     ecut=   120.00 Ry     beta= 0.70
     Davidson diagonalization with overlap
     ethr =  1.40E-04,  avg # of iterations =  8.0

     negative rho (up, down):  9.216E-01 9.217E-01

     total cpu time spent up to now is      213.1 secs

     total energy              =   -2943.06254509 Ry
     estimated scf accuracy    <       0.20532332 Ry

     total magnetization       =     0.00 Bohr mag/cell
     absolute magnetization    =     0.12 Bohr mag/cell

     iteration #  9     ecut=   120.00 Ry     beta= 0.70
     Davidson diagonalization with overlap
     ethr =  7.41E-05,  avg # of iterations =  2.0

     negative rho (up, down):  9.079E-01 9.079E-01

     total cpu time spent up to now is      236.8 secs

     total energy              =   -2943.05797870 Ry
     estimated scf accuracy    <       0.06038637 Ry

     total magnetization       =     0.01 Bohr mag/cell
     absolute magnetization    =     0.09 Bohr mag/cell

     iteration # 10     ecut=   120.00 Ry     beta= 0.70
     Davidson diagonalization with overlap
     ethr =  2.18E-05,  avg # of iterations = 13.0

     negative rho (up, down):  9.085E-01 9.085E-01

     total cpu time spent up to now is      286.0 secs

     total energy              =   -2943.06449003 Ry
     estimated scf accuracy    <       0.02919452 Ry

     total magnetization       =     0.01 Bohr mag/cell
     absolute magnetization    =     0.07 Bohr mag/cell

     iteration # 11     ecut=   120.00 Ry     beta= 0.70
     Davidson diagonalization with overlap
     ethr =  1.05E-05,  avg # of iterations =  2.0

     negative rho (up, down):  9.091E-01 9.091E-01

     total cpu time spent up to now is      314.0 secs

     total energy              =   -2943.06776952 Ry
     estimated scf accuracy    <       0.00666322 Ry

     total magnetization       =     0.02 Bohr mag/cell
     absolute magnetization    =     0.05 Bohr mag/cell

     iteration # 12     ecut=   120.00 Ry     beta= 0.70
     Davidson diagonalization with overlap
     ethr =  2.41E-06,  avg # of iterations = 12.5

     negative rho (up, down):  9.092E-01 9.092E-01

     total cpu time spent up to now is      337.2 secs

     total energy              =   -2943.07012351 Ry
     estimated scf accuracy    <       0.00280606 Ry

     total magnetization       =     0.02 Bohr mag/cell
     absolute magnetization    =     0.05 Bohr mag/cell

     iteration # 13     ecut=   120.00 Ry     beta= 0.70
     Davidson diagonalization with overlap
     ethr =  1.01E-06,  avg # of iterations =  4.0

     negative rho (up, down):  9.089E-01 9.089E-01

     Magnetic moment per site  (integrated on atomic sphere of radius R)
     atom   1 (R=0.112)  charge=  9.4641  magn= -0.0001
     atom   2 (R=0.112)  charge=  9.0587  magn= -0.0003
     atom   3 (R=0.112)  charge=  9.0582  magn= -0.0002
     atom   4 (R=0.112)  charge=  9.0594  magn=  0.0002
     atom   5 (R=0.112)  charge=  9.0581  magn=  0.0001
     atom   6 (R=0.110)  charge= 10.3487  magn= -0.0000
     atom   7 (R=0.110)  charge= 10.3488  magn=  0.0000
     atom   8 (R=0.088)  charge=  8.1295  magn=  0.0002
     atom   9 (R=0.088)  charge=  8.1188  magn= -0.0002
     atom  10 (R=0.088)  charge=  8.1085  magn= -0.0000
     atom  11 (R=0.088)  charge=  8.1051  magn=  0.0001
     atom  12 (R=0.088)  charge=  8.1093  magn= -0.0001
     atom  13 (R=0.088)  charge=  8.1064  magn=  0.0002
     atom  14 (R=0.088)  charge=  8.1071  magn=  0.0001
     atom  15 (R=0.088)  charge=  8.1086  magn=  0.0005
     atom  16 (R=0.088)  charge=  8.1081  magn=  0.0012
     atom  17 (R=0.088)  charge=  8.1098  magn=  0.0009
     atom  18 (R=0.111)  charge=  9.4542  magn= -0.0002
     atom  19 (R=0.111)  charge=  8.9990  magn=  0.0012
     atom  20 (R=0.111)  charge=  8.9967  magn= -0.0015
     atom  21 (R=0.111)  charge=  8.9976  magn=  0.0022
     atom  22 (R=0.111)  charge=  8.9886  magn=  0.0000
     atom  23 (R=0.088)  charge=  0.9769  magn=  0.0000

     total cpu time spent up to now is      356.0 secs

     End of self-consistent calculation

 ------ SPIN UP ------------


          k = 0.0000 0.0000 0.0000 ( 61588 PWs)   bands (ev):

   -60.7870 -60.7854 -60.7412 -60.7393 -60.7093 -60.7053 -60.6648 -60.6598
   -60.4982 -60.4275 -54.4048 -54.3537 -54.2806 -54.2297 -52.7046 -46.2693
   -46.2613 -41.6721 -41.6291 -41.5677 -41.5286 -39.7980 -27.7904 -27.7847
   -27.7027 -27.6998 -27.6010 -27.5953 -27.4756 -27.4651 -27.3721 -27.3418
   -27.3036 -27.2745 -27.2680 -27.2456 -27.2336 -27.1775 -27.1710 -27.1396
   -27.0922 -27.0722 -27.0254 -26.9657 -26.9625 -26.9570 -26.9433 -26.9146
   -26.8969 -26.8884 -26.8632 -26.8621 -24.1879 -23.9781 -23.6730 -23.5903
   -23.3312 -23.1975 -23.1730 -23.0739 -22.9466 -22.8768 -22.8617 -22.6428
   -22.5102 -22.4594 -22.4052 -22.3602 -22.2905 -22.2423 -21.7662 -21.7084
   -21.6340 -20.1983 -19.9703 -19.8313 -19.8269 -19.6468 -19.6223 -19.5985
   -19.5894 -19.5759 -19.5530 -19.3979 -19.3719 -18.1460 -17.9407 -17.8139
     1.4658   2.9191   3.0156   3.1307   3.3014   3.4497   3.4871   3.6688
     3.7364   3.8461   3.9103   4.0463   4.2867   4.4955   4.5961   4.6729
     4.7309   4.9186   5.0241   5.0551   5.1089   5.2509   5.2799   5.3094
     5.3935   5.5523   5.5625   5.7129   5.7356   5.7471   5.7567   5.7915
     5.9205   6.0907   6.1458   6.2194   6.2628   6.3120   6.3566   6.3702
     6.4520   6.6452   6.6537   6.6736   6.8342   6.9416   7.0035   7.0430
     7.0930   7.1384   7.2594   7.3107   7.3365   7.4123   7.5232   7.5745
     7.6282   7.6561   7.8851   7.9445   8.0761   8.0913   8.1167   8.1835
     8.2428   8.3380   8.3432   8.3579   8.4886   8.5108   8.6175   8.7404
     8.7683   8.8968   8.9310   9.0549   9.1929   9.2219   9.2736

 ------ SPIN DOWN ----------


          k = 0.0000 0.0000 0.0000 ( 61588 PWs)   bands (ev):

   -60.7868 -60.7849 -60.7411 -60.7387 -60.7088 -60.7050 -60.6645 -60.6594
   -60.4979 -60.4277 -54.4048 -54.3538 -54.2806 -54.2298 -52.7046 -46.2693
   -46.2614 -41.6724 -41.6275 -41.5689 -41.5270 -39.7981 -27.7898 -27.7843
   -27.7024 -27.6991 -27.6004 -27.5949 -27.4752 -27.4645 -27.3718 -27.3414
   -27.3033 -27.2742 -27.2673 -27.2452 -27.2330 -27.1771 -27.1705 -27.1394
   -27.0923 -27.0719 -27.0254 -26.9653 -26.9619 -26.9563 -26.9429 -26.9147
   -26.8962 -26.8881 -26.8628 -26.8616 -24.1878 -23.9781 -23.6730 -23.5904
   -23.3313 -23.1976 -23.1731 -23.0740 -22.9467 -22.8769 -22.8618 -22.6430
   -22.5102 -22.4595 -22.4052 -22.3602 -22.2904 -22.2423 -21.7662 -21.7086
   -21.6341 -20.1968 -19.9718 -19.8290 -19.8256 -19.6468 -19.6223 -19.5982
   -19.5897 -19.5743 -19.5539 -19.3991 -19.3696 -18.1461 -17.9406 -17.8140
     1.4661   2.9196   3.0156   3.1308   3.3016   3.4505   3.4873   3.6689
     3.7366   3.8464   3.9108   4.0468   4.2869   4.4955   4.5964   4.6732
     4.7311   4.9190   5.0242   5.0560   5.1094   5.2511   5.2802   5.3096
     5.3943   5.5526   5.5627   5.7133   5.7363   5.7472   5.7569   5.7920
     5.9206   6.0915   6.1463   6.2197   6.2630   6.3124   6.3569   6.3706
     6.4525   6.6455   6.6540   6.6740   6.8349   6.9424   7.0049   7.0434
     7.0952   7.1398   7.2607   7.3111   7.3392   7.4142   7.5226   7.5757
     7.6291   7.6570   7.8856   7.9448   8.0772   8.0920   8.1173   8.1848
     8.2437   8.3383   8.3442   8.3589   8.4895   8.5113   8.6179   8.7408
     8.7688   8.8987   8.9324   9.0555   9.1940   9.2222   9.2742

     the Fermi energy is     7.2348 ev

!    total energy              =   -2943.07136859 Ry
     estimated scf accuracy    <       0.00044700 Ry
     smearing contrib. (-TS)   =      -0.10010666 Ry
     internal energy E=F+TS    =   -2942.97126193 Ry

     total magnetization       =     0.02 Bohr mag/cell
     absolute magnetization    =     0.04 Bohr mag/cell

     convergence has been achieved in  13 iterations

     negative rho (up, down):  9.089E-01 9.089E-01

     Forces acting on atoms (cartesian axes, Ry/au):

     atom    1 type  1   force =    -0.01037380   -0.02469643    0.00770510
     atom    2 type  1   force =    -0.11413734   -0.01656073   -0.00184054
     atom    3 type  1   force =    -0.11281493    0.01481430    0.00256351
     atom    4 type  1   force =     0.11289255   -0.02207106   -0.00519792
     atom    5 type  1   force =     0.11398331    0.01892224    0.00102007
     atom    6 type  2   force =    -0.00735167   -0.01915610    0.00697328
     atom    7 type  2   force =    -0.01319586    0.01235174   -0.00778673
     atom    8 type  3   force =    -0.11777606    0.00321561   -0.00151014
     atom    9 type  3   force =     0.16281463    0.00406118    0.01450506
     atom   10 type  3   force =    -0.02323637   -0.03224603   -0.06030311
     atom   11 type  3   force =    -0.01948730   -0.03634204    0.05784619
     atom   12 type  3   force =    -0.01808551    0.03718462   -0.05440676
     atom   13 type  3   force =    -0.02004127    0.03022858    0.06158144
     atom   14 type  3   force =     0.02547024   -0.02886652   -0.05650926
     atom   15 type  3   force =     0.01628645   -0.04026465    0.05375616
     atom   16 type  3   force =     0.02074562    0.03326275   -0.05118760
     atom   17 type  3   force =     0.01627096    0.03503270    0.05813454
     atom   18 type  4   force =    -0.00896534    0.02865181   -0.01407576
     atom   19 type  4   force =    -0.12925347   -0.00497366   -0.11698006
     atom   20 type  4   force =    -0.13525064    0.00524026    0.11233479
     atom   21 type  4   force =     0.12699061   -0.00520527   -0.11735699
     atom   22 type  4   force =     0.16396895    0.00763697    0.10009424
     atom   23 type  5   force =    -0.02945375   -0.00022025    0.01064048
     The non-local contrib.  to forces
     atom    1 type  1   force =    -0.00708670   -0.01315940    0.03451439
     atom    2 type  1   force =    -0.24428130   -0.16406012    0.01647086
     atom    3 type  1   force =    -0.23825009    0.16052238   -0.02766629
     atom    4 type  1   force =     0.26143597   -0.16082084    0.03078271
     atom    5 type  1   force =     0.25127219    0.15629241   -0.01429494
     atom    6 type  2   force =     0.00324811   -0.05253805   -0.06323607
     atom    7 type  2   force =    -0.01876504    0.05458840    0.05521148
     atom    8 type  3   force =    -0.27130849    0.00165837    0.00109123
     atom    9 type  3   force =     0.10857848   -0.00053977   -0.05897489
     atom   10 type  3   force =    -0.21581466    0.00575535   -0.20594601
     atom   11 type  3   force =    -0.21663442    0.00789579    0.19531205
     atom   12 type  3   force =    -0.20456531   -0.01962294   -0.17804570
     atom   13 type  3   force =    -0.20698539   -0.00488059    0.20875917
     atom   14 type  3   force =     0.20796012    0.00475254   -0.21953028
     atom   15 type  3   force =     0.23207992    0.00799457    0.17961579
     atom   16 type  3   force =     0.19664526   -0.01999064   -0.18998419
     atom   17 type  3   force =     0.22241403   -0.00469078    0.19149566
     atom   18 type  4   force =     0.00336234    0.05953145   -0.06141789
     atom   19 type  4   force =     0.06163581    0.00907718    0.07391198
     atom   20 type  4   force =     0.05152222   -0.01414511   -0.05850191
     atom   21 type  4   force =    -0.05291377    0.01001774    0.07594851
     atom   22 type  4   force =    -0.05668759   -0.01070943   -0.09331050
     atom   23 type  5   force =    -0.03925946   -0.00000096   -0.01413183
     The ionic contribution  to forces
     atom    1 type  1   force =    -0.33925142   -4.74720957   14.02699793
     atom    2 type  1   force =   -39.66248163   -6.18415836    0.72476069
     atom    3 type  1   force =   -39.63519894    6.17121189   -0.76889681
     atom    4 type  1   force =    39.44291274   -6.37650162    0.64401299
     atom    5 type  1   force =    39.41318384    6.36587510   -0.84814787
     atom    6 type  2   force =    -0.17065393   -3.61832791  -14.03170692
     atom    7 type  2   force =    -0.36203446    3.75439789   13.96127222
     atom    8 type  3   force =   -52.07814131    0.07188752   -0.16241189
     atom    9 type  3   force =    50.56657761    0.07261802   -0.95498199
     atom   10 type  3   force =   -36.04350637   -2.11374533  -23.07260453
     atom   11 type  3   force =   -35.12256741   -0.89557811   22.11554073
     atom   12 type  3   force =   -35.22755961    0.81607498  -22.12566267
     atom   13 type  3   force =   -36.02273631    2.22942334   23.09391164
     atom   14 type  3   force =    35.96610570   -2.14505102  -23.11584314
     atom   15 type  3   force =    34.94591863   -1.02097058   22.22460612
     atom   16 type  3   force =    35.15084800    0.84699997  -22.16826631
     atom   17 type  3   force =    35.84437850    2.35568738   23.20318709
     atom   18 type  4   force =    -0.15928070    4.42256152  -13.98437079
     atom   19 type  4   force =   -35.88084756    0.95669503  -25.54154909
     atom   20 type  4   force =   -35.86879705   -0.95269571   25.58576488
     atom   21 type  4   force =    35.76474304    0.95609777  -25.64354188
     atom   22 type  4   force =    35.33034193   -0.94927204   26.09324942
     atom   23 type  5   force =     4.14804671   -0.01602015    0.74468019
     The local contribution  to forces
     atom    1 type  1   force =     0.33746741    4.73273741  -14.05448543
     atom    2 type  1   force =    39.81730999    6.32829324   -0.74317133
     atom    3 type  1   force =    39.78392617   -6.31440822    0.79950706
     atom    4 type  1   force =   -39.61503914    6.51411368   -0.68440228
     atom    5 type  1   force =   -39.57272583   -6.50196695    0.86097264
     atom    6 type  2   force =     0.16636426    3.64713689   14.09707894
     atom    7 type  2   force =     0.37280240   -3.79359249  -14.02547706
     atom    8 type  3   force =    52.26963278   -0.07040658    0.15788692
     atom    9 type  3   force =   -50.52687089   -0.06835184    1.03462053
     atom   10 type  3   force =    36.26117830    2.06499040   23.23557741
     atom   11 type  3   force =    35.35178550    0.84310159  -22.27276076
     atom   12 type  3   force =    35.44021705   -0.74844758   22.26618342
     atom   13 type  3   force =    36.23790752   -2.18326921  -23.25907452
     atom   14 type  3   force =   -36.17068243    2.10232815   23.29558298
     atom   15 type  3   force =   -35.19121787    0.96299737  -22.36395487
     atom   16 type  3   force =   -35.35002426   -0.78305072   22.32363690
     atom   17 type  3   force =   -36.07495844   -2.30558658  -23.35051005
     atom   18 type  4   force =     0.15220240   -4.44935826   14.02526910
     atom   19 type  4   force =    35.70119381   -0.97123924   25.36106811
     atom   20 type  4   force =    35.69301608    0.96917686  -25.42407929
     atom   21 type  4   force =   -35.59038307   -0.97233659   25.46424006
     atom   22 type  4   force =   -35.11731668    0.96553372  -25.91330749
     atom   23 type  5   force =    -4.13867175    0.01597953   -0.72046956
     The core correction contribution to forces
     atom    1 type  1   force =     0.00252941    0.00061542    0.00013221
     atom    2 type  1   force =    -0.01270522   -0.00192172   -0.00017575
     atom    3 type  1   force =    -0.01252861    0.00288538   -0.00220669
     atom    4 type  1   force =     0.01382055   -0.00315338    0.00339179
     atom    5 type  1   force =     0.01403107    0.00319987    0.00122346
     atom    6 type  2   force =    -0.00025414    0.00219572    0.00249473
     atom    7 type  2   force =     0.00067341   -0.00265899   -0.00196947
     atom    8 type  3   force =    -0.03312908    0.00020479    0.00033851
     atom    9 type  3   force =     0.01414821    0.00035540   -0.00826270
     atom   10 type  3   force =    -0.02180919    0.00992089   -0.01598317
     atom   11 type  3   force =    -0.02433097    0.00927663    0.01752399
     atom   12 type  3   force =    -0.02187362   -0.01003229   -0.01535680
     atom   13 type  3   force =    -0.02297635   -0.00877463    0.01738571
     atom   14 type  3   force =     0.02272387    0.01026433   -0.01649059
     atom   15 type  3   force =     0.02531259    0.01066286    0.01348930
     atom   16 type  3   force =     0.02233885   -0.01070302   -0.01600882
     atom   17 type  3   force =     0.02316028   -0.00931213    0.01403587
     atom   18 type  4   force =    -0.00021603   -0.00303121    0.00289593
     atom   19 type  4   force =    -0.00981373    0.00003496   -0.00964773
     atom   20 type  4   force =    -0.00935640    0.00036873    0.00879539
     atom   21 type  4   force =     0.00938094   -0.00002244   -0.00991747
     atom   22 type  4   force =     0.00998018    0.00018884    0.01047193
     atom   23 type  5   force =     0.00000000    0.00000000    0.00000000
     The Hubbard contrib.    to forces
     atom    1 type  1   force =     0.00000000    0.00000000    0.00000000
     atom    2 type  1   force =     0.00000000    0.00000000    0.00000000
     atom    3 type  1   force =     0.00000000    0.00000000    0.00000000
     atom    4 type  1   force =     0.00000000    0.00000000    0.00000000
     atom    5 type  1   force =     0.00000000    0.00000000    0.00000000
     atom    6 type  2   force =     0.00000000    0.00000000    0.00000000
     atom    7 type  2   force =     0.00000000    0.00000000    0.00000000
     atom    8 type  3   force =     0.00000000    0.00000000    0.00000000
     atom    9 type  3   force =     0.00000000    0.00000000    0.00000000
     atom   10 type  3   force =     0.00000000    0.00000000    0.00000000
     atom   11 type  3   force =     0.00000000    0.00000000    0.00000000
     atom   12 type  3   force =     0.00000000    0.00000000    0.00000000
     atom   13 type  3   force =     0.00000000    0.00000000    0.00000000
     atom   14 type  3   force =     0.00000000    0.00000000    0.00000000
     atom   15 type  3   force =     0.00000000    0.00000000    0.00000000
     atom   16 type  3   force =     0.00000000    0.00000000    0.00000000
     atom   17 type  3   force =     0.00000000    0.00000000    0.00000000
     atom   18 type  4   force =     0.00000000    0.00000000    0.00000000
     atom   19 type  4   force =     0.00000000    0.00000000    0.00000000
     atom   20 type  4   force =     0.00000000    0.00000000    0.00000000
     atom   21 type  4   force =     0.00000000    0.00000000    0.00000000
     atom   22 type  4   force =     0.00000000    0.00000000    0.00000000
     atom   23 type  5   force =     0.00000000    0.00000000    0.00000000
     The SCF correction term to forces
     atom    1 type  1   force =    -0.00367653    0.00229717    0.00035201
     atom    2 type  1   force =    -0.01162320    0.00526369    0.00008098
     atom    3 type  1   force =    -0.01040748   -0.00541966    0.00163224
     atom    4 type  1   force =     0.01011841    0.00426857    0.00082287
     atom    5 type  1   force =     0.00857802   -0.00450073    0.00107278
     atom    6 type  2   force =    -0.00570001    0.00235472    0.00214861
     atom    7 type  2   force =    -0.00551620   -0.00040560    0.00298209
     atom    8 type  3   force =    -0.00447399   -0.00015104    0.00139108
     atom    9 type  3   force =     0.00073719   -0.00004317    0.00191011
     atom   10 type  3   force =    -0.00292847    0.00081011   -0.00154081
     atom   11 type  3   force =    -0.00738403   -0.00106048    0.00203618
     atom   12 type  3   force =    -0.00394805   -0.00081009   -0.00171901
     atom   13 type  3   force =    -0.00489477   -0.00229288    0.00040543
     atom   14 type  3   force =    -0.00028104   -0.00118307   -0.00042223
     atom   15 type  3   force =     0.00454915   -0.00097141   -0.00019418
     atom   16 type  3   force =     0.00129374   -0.00001538   -0.00075918
     atom   17 type  3   force =     0.00163257   -0.00108773   -0.00026804
     atom   18 type  4   force =    -0.00467737   -0.00107422    0.00335389
     atom   19 type  4   force =    -0.00106582    0.00043587   -0.00095734
     atom   20 type  4   force =    -0.00127952    0.00251295    0.00016172
     atom   21 type  4   force =    -0.00348056    0.00101571   -0.00428021
     atom   22 type  4   force =    -0.00199294    0.00187334    0.00279689
     atom   23 type  5   force =     0.00078673   -0.00020120    0.00036767

     Total force =     0.513777     Total SCF correction =     0.029803


     Computing stress (Cartesian axis) and pressure


     negative rho (up, down):  9.089E-01 9.089E-01
          total   stress  (Ry/bohr**3)                   (kbar)     P=       83.36
   0.00067542   0.00000017   0.00000950           99.36        0.03        1.40
   0.00000017   0.00066073  -0.00001230            0.03       97.20       -1.81
   0.00000950  -0.00001230   0.00036379            1.40       -1.81       53.51


     Molecular Dynamics Calculation

     Starting temperature  =   300.00 K

     temperature is set once at start

     mass Hf               =   178.49
     mass Nb               =    92.91
     mass Ta               =   180.95
     mass Zr               =    91.22
     mass H                =     2.01
     Time step             =     4.20 a.u.,  0.2032 femto-seconds

     Entering Dynamics:    iteration =     1
                           time      =   0.0002 pico-seconds


ATOMIC_POSITIONS (angstrom)
Hf            2.6700766380        2.8271223207        6.6040088823
Hf            1.2530643842        1.2862837063        5.0585106159
Hf            1.2555606406        7.3898047198        5.0881122836
Hf            4.0870894512        1.2862835482        5.0585105196
Hf            4.0845932641        7.3898048377        5.0881122393
Nb            2.6700765304        2.7969295497        3.5156280437
Nb            2.6700762083        5.8763793571        6.6350419566
Ta            1.2094467015        4.3409279426        5.0711702322
Ta            4.1307084442        4.3409279665        5.0711706854
Ta            1.3073290051        1.3141216768        2.0588218462
Ta            1.3028647413        1.3083901075        8.0946252821
Ta            1.3040860889        7.3758271764        2.0462800827
Ta            1.3077872098        7.3650838039        8.0860484062
Ta            4.0328249293        1.3141217725        2.0588219535
Ta            4.0372890393        1.3083899965        8.0946251663
Ta            4.0360678576        7.3758270654        2.0462801738
Ta            4.0323665547        7.3650839398        8.0860483086
Zr            2.6700764323        5.8662874518        3.5274275829
Zr            1.2439043420        4.3220776853        2.0000378760
Zr            1.2404547991        4.3541235787        8.1498062978
Zr            4.0962494022        4.3220776723        2.0000378548
Zr            4.0997006842        4.3541237132        8.1498056107
H             5.7347945565        4.3399993902        5.9984183709


     kinetic energy (Ekin) =           4.04922334 Ry
     temperature           =       19373.38789672 K 
     Ekin + Etot (const)   =       -2939.02214525 Ry
     Ions kinetic stress =           71.51 (kbar)
                                    160.91           0.00          92.90
                                      0.00           0.00           0.00
                                     92.90           0.00          53.63



     Linear momentum :    0.0000000000    0.0000000000   -0.0000000000

     File outdir/pwscf.msd.dat deleted, as requested

     Writing config-only to output data dir outdir/pwscf.save/
     NEW-OLD atomic charge density approx. for the potential

     Check: negative core charge=   -0.000002

     negative rho (up, down):  9.088E-01 9.088E-01
     Generating pointlists ...
     new r_m :   0.0818 (alat units)  1.4443 (a.u.) for type    3
     new r_m :   0.0818 (alat units)  1.4443 (a.u.) for type    5

     total cpu time spent up to now is      382.3 secs

     Self-consistent Calculation

     iteration #  1     ecut=   120.00 Ry     beta= 0.70
     Davidson diagonalization with overlap
     ethr =  1.00E-06,  avg # of iterations = 11.0

     negative rho (up, down):  9.088E-01 9.088E-01

     total cpu time spent up to now is      439.2 secs

     total energy              =   -2943.07154853 Ry
     estimated scf accuracy    <       0.01163699 Ry

     total magnetization       =     0.02 Bohr mag/cell
     absolute magnetization    =     0.03 Bohr mag/cell

     iteration #  2     ecut=   120.00 Ry     beta= 0.70
     Davidson diagonalization with overlap
     ethr =  4.20E-06,  avg # of iterations =  2.0

     negative rho (up, down):  9.088E-01 9.088E-01

     total cpu time spent up to now is      472.5 secs

     total energy              =   -2943.07239188 Ry
     estimated scf accuracy    <       0.00323224 Ry

     total magnetization       =     0.02 Bohr mag/cell
     absolute magnetization    =     0.03 Bohr mag/cell

     iteration #  3     ecut=   120.00 Ry     beta= 0.70
     Davidson diagonalization with overlap
     ethr =  1.17E-06,  avg # of iterations =  1.0

     negative rho (up, down):  9.089E-01 9.089E-01

     Magnetic moment per site  (integrated on atomic sphere of radius R)
     atom   1 (R=0.112)  charge=  9.4649  magn= -0.0000
     atom   2 (R=0.112)  charge=  9.0574  magn= -0.0001
     atom   3 (R=0.112)  charge=  9.0574  magn= -0.0000
     atom   4 (R=0.112)  charge=  9.0583  magn=  0.0001
     atom   5 (R=0.112)  charge=  9.0574  magn=  0.0001
     atom   6 (R=0.110)  charge= 10.3496  magn= -0.0000
     atom   7 (R=0.110)  charge= 10.3502  magn=  0.0001
     atom   8 (R=0.082)  charge=  7.4411  magn=  0.0001
     atom   9 (R=0.082)  charge=  7.4362  magn= -0.0000
     atom  10 (R=0.082)  charge=  7.4206  magn= -0.0000
     atom  11 (R=0.082)  charge=  7.4219  magn= -0.0000
     atom  12 (R=0.082)  charge=  7.4207  magn=  0.0000
     atom  13 (R=0.082)  charge=  7.4229  magn=  0.0001
     atom  14 (R=0.082)  charge=  7.4201  magn=  0.0002
     atom  15 (R=0.082)  charge=  7.4249  magn=  0.0004
     atom  16 (R=0.082)  charge=  7.4201  magn=  0.0009
     atom  17 (R=0.082)  charge=  7.4255  magn=  0.0006
     atom  18 (R=0.111)  charge=  9.4545  magn= -0.0000
     atom  19 (R=0.111)  charge=  8.9966  magn=  0.0007
     atom  20 (R=0.111)  charge=  8.9973  magn= -0.0011
     atom  21 (R=0.111)  charge=  8.9963  magn=  0.0016
     atom  22 (R=0.111)  charge=  8.9903  magn=  0.0001
     atom  23 (R=0.082)  charge=  0.9477  magn=  0.0000

     total cpu time spent up to now is      488.3 secs

     End of self-consistent calculation

 ------ SPIN UP ------------


          k = 0.0000 0.0000 0.0000 ( 61588 PWs)   bands (ev):

   -60.7724 -60.7626 -60.7263 -60.7162 -60.6924 -60.6829 -60.6467 -60.6381
   -60.4723 -60.3082 -54.3861 -54.3354 -54.2619 -54.2115 -52.6884 -46.2493
   -46.2407 -41.6624 -41.6148 -41.5480 -41.5143 -39.7862 -27.7755 -27.7610
   -27.6863 -27.6776 -27.5865 -27.5724 -27.4612 -27.4402 -27.3447 -27.3213
   -27.2720 -27.2550 -27.2489 -27.2280 -27.2103 -27.1594 -27.1476 -27.1097
   -27.0464 -27.0059 -26.9554 -26.9427 -26.9414 -26.9286 -26.9154 -26.8830
   -26.8632 -26.8501 -26.8409 -26.8348 -24.1690 -23.9586 -23.6551 -23.5718
   -23.3127 -23.1782 -23.1550 -23.0549 -22.9278 -22.8597 -22.8423 -22.6246
   -22.4914 -22.4404 -22.3867 -22.3402 -22.2714 -22.2220 -21.7495 -21.6904
   -21.6185 -20.1825 -19.9579 -19.8165 -19.8107 -19.6372 -19.6107 -19.5821
   -19.5700 -19.5605 -19.5339 -19.3820 -19.3565 -18.1350 -17.9264 -17.8017
     1.4659   2.8898   2.9437   3.1514   3.3117   3.4654   3.4998   3.6852
     3.7537   3.8615   3.9290   4.0538   4.3027   4.5183   4.5863   4.6923
     4.7453   4.9211   5.0401   5.0716   5.1265   5.2680   5.2965   5.3296
     5.4107   5.5708   5.5835   5.7342   5.7563   5.7651   5.7795   5.8042
     5.9375   6.1095   6.1644   6.2387   6.2795   6.3302   6.3746   6.3850
     6.4667   6.6617   6.6760   6.6899   6.8553   6.9610   7.0205   7.0559
     7.1047   7.1526   7.2752   7.3277   7.3436   7.4251   7.5402   7.5828
     7.6363   7.6734   7.9019   7.9619   8.0938   8.0980   8.1309   8.1980
     8.2597   8.3586   8.3604   8.3743   8.5122   8.5244   8.6340   8.7603
     8.7852   8.9063   8.9517   9.0693   9.2108   9.2469   9.2957

 ------ SPIN DOWN ----------


          k = 0.0000 0.0000 0.0000 ( 61588 PWs)   bands (ev):

   -60.7721 -60.7624 -60.7258 -60.7161 -60.6922 -60.6824 -60.6463 -60.6377
   -60.4722 -60.3083 -54.3861 -54.3354 -54.2618 -54.2115 -52.6884 -46.2493
   -46.2408 -41.6625 -41.6136 -41.5488 -41.5132 -39.7863 -27.7750 -27.7605
   -27.6858 -27.6773 -27.5859 -27.5721 -27.4609 -27.4395 -27.3444 -27.3210
   -27.2718 -27.2544 -27.2487 -27.2277 -27.2098 -27.1591 -27.1472 -27.1094
   -27.0462 -27.0059 -26.9549 -26.9423 -26.9410 -26.9285 -26.9149 -26.8825
   -26.8628 -26.8497 -26.8407 -26.8345 -24.1690 -23.9586 -23.6550 -23.5718
   -23.3128 -23.1782 -23.1549 -23.0549 -22.9278 -22.8597 -22.8423 -22.6247
   -22.4914 -22.4404 -22.3867 -22.3402 -22.2714 -22.2220 -21.7496 -21.6905
   -21.6185 -20.1814 -19.9589 -19.8151 -19.8098 -19.6371 -19.6105 -19.5816
   -19.5705 -19.5592 -19.5346 -19.3828 -19.3548 -18.1350 -17.9264 -17.8017
     1.4662   2.8899   2.9442   3.1516   3.3118   3.4662   3.5000   3.6855
     3.7540   3.8617   3.9295   4.0543   4.3030   4.5184   4.5866   4.6925
     4.7456   4.9217   5.0402   5.0724   5.1270   5.2683   5.2968   5.3299
     5.4115   5.5711   5.5837   5.7346   5.7569   5.7653   5.7797   5.8047
     5.9377   6.1103   6.1648   6.2390   6.2798   6.3306   6.3749   6.3854
     6.4673   6.6621   6.6763   6.6904   6.8559   6.9617   7.0220   7.0562
     7.1068   7.1538   7.2765   7.3281   7.3458   7.4271   7.5400   7.5842
     7.6371   7.6741   7.9024   7.9624   8.0948   8.0988   8.1314   8.1992
     8.2608   8.3589   8.3613   8.3751   8.5130   8.5250   8.6344   8.7607
     8.7857   8.9078   8.9526   9.0698   9.2115   9.2473   9.2961

     the Fermi energy is     7.2487 ev

!    total energy              =   -2943.07219331 Ry
     estimated scf accuracy    <       0.00063721 Ry
     smearing contrib. (-TS)   =      -0.10070634 Ry
     internal energy E=F+TS    =   -2942.97148698 Ry

     total magnetization       =     0.02 Bohr mag/cell
     absolute magnetization    =     0.03 Bohr mag/cell

     convergence has been achieved in   3 iterations

     negative rho (up, down):  9.089E-01 9.089E-01

     Forces acting on atoms (cartesian axes, Ry/au):

     atom    1 type  1   force =    -0.01301887   -0.02575752    0.01388158
     atom    2 type  1   force =    -0.12147841   -0.01410592    0.00327889
     atom    3 type  1   force =    -0.11990868    0.01265712    0.00842062
     atom    4 type  1   force =     0.11940335   -0.02126969   -0.00013376
     atom    5 type  1   force =     0.11990071    0.01829437    0.00678384
     atom    6 type  2   force =    -0.00829139   -0.02057312    0.00366886
     atom    7 type  2   force =    -0.01299724    0.01300042   -0.00816968
     atom    8 type  3   force =    -0.12287328    0.00284437    0.00098933
     atom    9 type  3   force =     0.14461892    0.00476304   -0.00095520
     atom   10 type  3   force =    -0.02460085   -0.03020974   -0.06246841
     atom   11 type  3   force =    -0.02095629   -0.03691760    0.05637539
     atom   12 type  3   force =    -0.02038619    0.03548262   -0.05676164
     atom   13 type  3   force =    -0.02084018    0.03012405    0.05930093
     atom   14 type  3   force =     0.02726889   -0.02692959   -0.05836953
     atom   15 type  3   force =     0.01810831   -0.04064770    0.05152005
     atom   16 type  3   force =     0.02362220    0.03127029   -0.05355250
     atom   17 type  3   force =     0.01735511    0.03512346    0.05587990
     atom   18 type  4   force =    -0.01092674    0.03001324   -0.01513771
     atom   19 type  4   force =    -0.12903138   -0.00486555   -0.11839982
     atom   20 type  4   force =    -0.13379448    0.00546837    0.11012653
     atom   21 type  4   force =     0.12688637   -0.00519326   -0.12151626
     atom   22 type  4   force =     0.15795596    0.00794182    0.10004246
     atom   23 type  5   force =     0.00398415   -0.00051350    0.02519613
     The non-local contrib.  to forces
     atom    1 type  1   force =    -0.00946036   -0.01496829    0.03880805
     atom    2 type  1   force =    -0.24850739   -0.16145937    0.01968525
     atom    3 type  1   force =    -0.24278353    0.15845318   -0.02386176
     atom    4 type  1   force =     0.26418697   -0.15954301    0.03342581
     atom    5 type  1   force =     0.25379662    0.15516178   -0.01176219
     atom    6 type  2   force =     0.00367852   -0.05398541   -0.06463273
     atom    7 type  2   force =    -0.01873211    0.05425305    0.05621161
     atom    8 type  3   force =    -0.27059807    0.00130544    0.00281339
     atom    9 type  3   force =     0.08494504    0.00008401   -0.07359448
     atom   10 type  3   force =    -0.21549358    0.00650524   -0.20717369
     atom   11 type  3   force =    -0.21547123    0.00844196    0.19435867
     atom   12 type  3   force =    -0.20525498   -0.02030976   -0.17988745
     atom   13 type  3   force =    -0.20500836   -0.00653644    0.20703243
     atom   14 type  3   force =     0.20657154    0.00558623   -0.22017163
     atom   15 type  3   force =     0.22907880    0.00684305    0.17950813
     atom   16 type  3   force =     0.19641266   -0.02121305   -0.19130134
     atom   17 type  3   force =     0.21881224   -0.00432876    0.19174515
     atom   18 type  4   force =     0.00198784    0.06015901   -0.06222476
     atom   19 type  4   force =     0.06101297    0.00908513    0.07272624
     atom   20 type  4   force =     0.05148235   -0.01373793   -0.05919622
     atom   21 type  4   force =    -0.05383954    0.00996140    0.07426015
     atom   22 type  4   force =    -0.05980895   -0.01032482   -0.08895759
     atom   23 type  5   force =    -0.04923382   -0.00006410   -0.02068755
     The ionic contribution  to forces
     atom    1 type  1   force =    -0.36997173   -4.76463145   14.04476579
     atom    2 type  1   force =   -39.67628332   -6.18553140    0.72794398
     atom    3 type  1   force =   -39.64908749    6.17259188   -0.76565548
     atom    4 type  1   force =    39.44169631   -6.40013066    0.64506382
     atom    5 type  1   force =    39.41196026    6.38969536   -0.84677849
     atom    6 type  2   force =    -0.19099509   -3.62898471  -14.04604693
     atom    7 type  2   force =    -0.39432235    3.77297610   13.98051868
     atom    8 type  3   force =   -52.11332982    0.07188627   -0.15711749
     atom    9 type  3   force =    50.29979702    0.07283670   -1.10707571
     atom   10 type  3   force =   -36.04962498   -2.11455297  -23.07618907
     atom   11 type  3   force =   -35.13361807   -0.89485179   22.11705705
     atom   12 type  3   force =   -35.23365291    0.81687328  -22.12925553
     atom   13 type  3   force =   -36.03382366    2.22871870   23.09547335
     atom   14 type  3   force =    35.96629583   -2.14948937  -23.12540302
     atom   15 type  3   force =    34.95362763   -1.02419282   22.23343468
     atom   16 type  3   force =    35.15108826    0.85136952  -22.17777644
     atom   17 type  3   force =    35.85205611    2.35899594   23.21212285
     atom   18 type  4   force =    -0.17832685    4.43243386  -13.99770939
     atom   19 type  4   force =   -35.88954102    0.95667413  -25.54642023
     atom   20 type  4   force =   -35.88957431   -0.95270570   25.58732321
     atom   21 type  4   force =    35.76281753    0.95599632  -25.66541436
     atom   22 type  4   force =    35.35344346   -0.94915141   26.13187339
     atom   23 type  5   force =     4.60936922   -0.01682577    0.86526535
     The local contribution  to forces
     atom    1 type  1   force =     0.35753101    4.74714803  -14.04757285
     atom    2 type  1   force =    39.80097737    6.33653113   -0.72549417
     atom    3 type  1   force =    39.76978728   -6.32229495    0.81972110
     atom    4 type  1   force =   -39.59185793    6.53952222   -0.66328654
     atom    5 type  1   force =   -39.55199214   -6.52668877    0.88415901
     atom    6 type  2   force =     0.17037343    3.65686307   14.11647736
     atom    7 type  2   force =     0.39177266   -3.80413842  -14.01497096
     atom    8 type  3   force =    52.27529506   -0.07138551    0.17615428
     atom    9 type  3   force =   -50.22180095   -0.06977236    1.22529959
     atom   10 type  3   force =    36.24530927    2.07542783   23.23097460
     atom   11 type  3   force =    35.34236980    0.83490191  -22.27221422
     atom   12 type  3   force =    35.42149420   -0.75663290   22.26141748
     atom   13 type  3   force =    36.23203948   -2.17771858  -23.26063263
     atom   14 type  3   force =   -36.15864381    2.11545137   23.29864717
     atom   15 type  3   force =   -35.18820697    0.96244557  -22.37558586
     atom   16 type  3   force =   -35.33482615   -0.79443783   22.32554323
     atom   17 type  3   force =   -36.07577791   -2.30675277  -23.36261713
     atom   18 type  4   force =     0.15699451   -4.45837702   14.04793684
     atom   19 type  4   force =    35.69909925   -0.97185560   25.35795460
     atom   20 type  4   force =    35.71215875    0.97147095  -25.42593633
     atom   21 type  4   force =   -35.58761585   -0.97264643   25.46733845
     atom   22 type  4   force =   -35.15702945    0.96734531  -25.94716892
     atom   23 type  5   force =    -4.55873087    0.01626514   -0.81907455
     The core correction contribution to forces
     atom    1 type  1   force =     0.00250228    0.00043344    0.00008249
     atom    2 type  1   force =    -0.01268875   -0.00181521   -0.00012766
     atom    3 type  1   force =    -0.01256338    0.00282161   -0.00208463
     atom    4 type  1   force =     0.01379279   -0.00302152    0.00324845
     atom    5 type  1   force =     0.01400636    0.00307280    0.00111123
     atom    6 type  2   force =    -0.00028218    0.00227129    0.00256502
     atom    7 type  2   force =     0.00065525   -0.00261193   -0.00198149
     atom    8 type  3   force =    -0.03260974    0.00020130    0.00029530
     atom    9 type  3   force =     0.01177155    0.00056229   -0.01038525
     atom   10 type  3   force =    -0.02161605    0.00992883   -0.01588970
     atom   11 type  3   force =    -0.02423068    0.00938472    0.01747096
     atom   12 type  3   force =    -0.02174861   -0.01003219   -0.01527334
     atom   13 type  3   force =    -0.02284524   -0.00888092    0.01731023
     atom   14 type  3   force =     0.02262681    0.01011358   -0.01650896
     atom   15 type  3   force =     0.02505651    0.01067772    0.01354514
     atom   16 type  3   force =     0.02232549   -0.01064694   -0.01604571
     atom   17 type  3   force =     0.02289901   -0.00931251    0.01413316
     atom   18 type  4   force =    -0.00021630   -0.00307938    0.00302906
     atom   19 type  4   force =    -0.00978468    0.00004634   -0.00962872
     atom   20 type  4   force =    -0.00935052    0.00036864    0.00883222
     atom   21 type  4   force =     0.00937928   -0.00000799   -0.00996284
     atom   22 type  4   force =     0.01013143    0.00018748    0.01024401
     atom   23 type  5   force =     0.00000000    0.00000000    0.00000000
     The Hubbard contrib.    to forces
     atom    1 type  1   force =     0.00000000    0.00000000    0.00000000
     atom    2 type  1   force =     0.00000000    0.00000000    0.00000000
     atom    3 type  1   force =     0.00000000    0.00000000    0.00000000
     atom    4 type  1   force =     0.00000000    0.00000000    0.00000000
     atom    5 type  1   force =     0.00000000    0.00000000    0.00000000
     atom    6 type  2   force =     0.00000000    0.00000000    0.00000000
     atom    7 type  2   force =     0.00000000    0.00000000    0.00000000
     atom    8 type  3   force =     0.00000000    0.00000000    0.00000000
     atom    9 type  3   force =     0.00000000    0.00000000    0.00000000
     atom   10 type  3   force =     0.00000000    0.00000000    0.00000000
     atom   11 type  3   force =     0.00000000    0.00000000    0.00000000
     atom   12 type  3   force =     0.00000000    0.00000000    0.00000000
     atom   13 type  3   force =     0.00000000    0.00000000    0.00000000
     atom   14 type  3   force =     0.00000000    0.00000000    0.00000000
     atom   15 type  3   force =     0.00000000    0.00000000    0.00000000
     atom   16 type  3   force =     0.00000000    0.00000000    0.00000000
     atom   17 type  3   force =     0.00000000    0.00000000    0.00000000
     atom   18 type  4   force =     0.00000000    0.00000000    0.00000000
     atom   19 type  4   force =     0.00000000    0.00000000    0.00000000
     atom   20 type  4   force =     0.00000000    0.00000000    0.00000000
     atom   21 type  4   force =     0.00000000    0.00000000    0.00000000
     atom   22 type  4   force =     0.00000000    0.00000000    0.00000000
     atom   23 type  5   force =     0.00000000    0.00000000    0.00000000
     The SCF correction term to forces
     atom    1 type  1   force =     0.00590827    0.00623752   -0.02079718
     atom    2 type  1   force =     0.01455201   -0.00185430   -0.01732378
     atom    3 type  1   force =     0.01426678    0.00106217   -0.01829391
     atom    4 type  1   force =    -0.00888645    0.00188005   -0.01718057
     atom    5 type  1   force =    -0.00834206   -0.00297003   -0.01854100
     atom    6 type  2   force =     0.00846226    0.00323940   -0.00328914
     atom    7 type  2   force =     0.00715764   -0.00750160   -0.02654280
     atom    8 type  3   force =     0.01789763    0.00081363   -0.01975143
     atom    9 type  3   force =    -0.03056541    0.00102916   -0.03379463
     atom   10 type  3   force =     0.01635284   -0.00754191    0.00721418
     atom   11 type  3   force =     0.00952222    0.00518237    0.00110764
     atom   12 type  3   force =     0.01830444    0.00556095    0.00764192
     atom   13 type  3   force =     0.00832595   -0.00548195    0.00152227
     atom   14 type  3   force =    -0.01005315   -0.00861465    0.00647163
     atom   15 type  3   force =    -0.00191933    0.00355556    0.00202269
     atom   16 type  3   force =    -0.01184973    0.00617536    0.00743247
     atom   17 type  3   force =    -0.00110601   -0.00350167    0.00190059
     atom   18 type  4   force =     0.00816239   -0.00114647   -0.00476473
     atom   19 type  4   force =     0.00971043    0.00116122    0.00837301
     atom   20 type  4   force =     0.00101758    0.00004918    0.00050837
     atom   21 type  4   force =    -0.00432671    0.00148020    0.01366707
     atom   22 type  4   force =     0.01074781   -0.00013797   -0.00454371
     atom   23 type  5   force =     0.00210795    0.00008799    0.00109759

     Total force =     0.514116     Total SCF correction =     0.090394
     SCF correction compared to forces is large: reduce conv_thr to get better values


     Computing stress (Cartesian axis) and pressure


     negative rho (up, down):  9.089E-01 9.089E-01
          total   stress  (Ry/bohr**3)                   (kbar)     P=       84.13
   0.00067773   0.00000078   0.00001497           99.70        0.11        2.20
   0.00000078   0.00067086  -0.00001272            0.11       98.69       -1.87
   0.00001497  -0.00001272   0.00036704            2.20       -1.87       53.99


     Entering Dynamics:    iteration =     2
                           time      =   0.0004 pico-seconds


ATOMIC_POSITIONS (angstrom)
Hf            2.6701525719        2.8271201342        6.6040543425
Hf            1.2531311179        1.2862824218        5.0585551939
Hf            1.2556275023        7.3898058711        5.0881572829
Hf            4.0871765200        1.2862816945        5.0585548054
Hf            4.0846803927        7.3898064303        5.0881571004
Nb            2.6701521898        2.7969262259        3.5156732751
Nb            2.6701510268        5.8763814710        6.6350850695
Ta            1.2095133924        4.3409281946        5.0712146881
Ta            4.1307982159        4.3409283511        5.0712154845
Ta            1.3074039337        1.3141190544        2.0588610465
Ta            1.3029399823        1.3083869895        8.0946745526
Ta            1.3041614018        7.3758302371        2.0463197729
Ta            1.3078624417        7.3650863644        8.0860979480
Ta            4.0329041721        1.3141194313        2.0588614932
Ta            4.0373675037        1.3083865564        8.0946740463
Ta            4.0361467603        7.3758297767        2.0463201368
Ta            4.0324449760        7.3650869192        8.0860975593
Zr            2.6701516809        5.8662924297        3.5274695359
Zr            1.2439595788        4.3220768599        2.0000624594
Zr            1.2405091644        4.3541244867        8.1498694101
Zr            4.0963477547        4.3220767971        2.0000620672
Zr            4.0998046007        4.3541250335        8.1498669037
H             5.6069317078        4.3399962189        5.9247850749


     kinetic energy (Ekin) =           4.04982414 Ry
     temperature           =       19376.26241243 K 
     Ekin + Etot (const)   =       -2939.02236917 Ry
     Ions kinetic stress =           71.52 (kbar)
                                    161.07           0.00          92.83
                                      0.00           0.00           0.00
                                     92.83           0.00          53.50



     Linear momentum :    0.0000000000    0.0000000000   -0.0000000000

     Writing config-only to output data dir outdir/pwscf.save/
     NEW-OLD atomic charge density approx. for the potential

     Check: negative core charge=   -0.000002

     negative rho (up, down):  9.088E-01 9.088E-01
     Generating pointlists ...
     new r_m :   0.0753 (alat units)  1.3292 (a.u.) for type    3
     new r_m :   0.0753 (alat units)  1.3292 (a.u.) for type    5

     total cpu time spent up to now is      514.2 secs

     Self-consistent Calculation

     iteration #  1     ecut=   120.00 Ry     beta= 0.70
     Davidson diagonalization with overlap
     c_bands:  1 eigenvalues not converged
     c_bands:  1 eigenvalues not converged
     ethr =  1.00E-06,  avg # of iterations = 20.0

     negative rho (up, down):  9.091E-01 9.091E-01

     total cpu time spent up to now is      554.2 secs

     total energy              =   -2943.04229482 Ry
     estimated scf accuracy    <       0.17253493 Ry

     total magnetization       =     0.02 Bohr mag/cell
     absolute magnetization    =     0.03 Bohr mag/cell

     iteration #  2     ecut=   120.00 Ry     beta= 0.70
     Davidson diagonalization with overlap
     ethr =  6.23E-05,  avg # of iterations =  2.0

     negative rho (up, down):  9.090E-01 9.090E-01

     total cpu time spent up to now is      590.6 secs

     total energy              =   -2943.05355002 Ry
     estimated scf accuracy    <       0.10454393 Ry

     total magnetization       =     0.02 Bohr mag/cell
     absolute magnetization    =     0.03 Bohr mag/cell

     iteration #  3     ecut=   120.00 Ry     beta= 0.70
     Davidson diagonalization with overlap
     ethr =  3.77E-05,  avg # of iterations =  1.0

     negative rho (up, down):  9.089E-01 9.089E-01

     total cpu time spent up to now is      624.6 secs

     total energy              =   -2943.05931000 Ry
     estimated scf accuracy    <       0.00270063 Ry

     total magnetization       =     0.02 Bohr mag/cell
     absolute magnetization    =     0.03 Bohr mag/cell

     iteration #  4     ecut=   120.00 Ry     beta= 0.70
     Davidson diagonalization with overlap
     c_bands:  1 eigenvalues not converged
     c_bands:  1 eigenvalues not converged
     ethr =  9.75E-07,  avg # of iterations = 20.0

     negative rho (up, down):  9.088E-01 9.088E-01

     total cpu time spent up to now is      648.7 secs

     total energy              =   -2943.05938878 Ry
     estimated scf accuracy    <       0.00111962 Ry

     total magnetization       =     0.02 Bohr mag/cell
     absolute magnetization    =     0.03 Bohr mag/cell

     iteration #  5     ecut=   120.00 Ry     beta= 0.70
     Davidson diagonalization with overlap
     ethr =  4.04E-07,  avg # of iterations =  2.0

     negative rho (up, down):  9.088E-01 9.088E-01

     Magnetic moment per site  (integrated on atomic sphere of radius R)
     atom   1 (R=0.112)  charge=  9.4646  magn= -0.0000
     atom   2 (R=0.112)  charge=  9.0578  magn=  0.0000
     atom   3 (R=0.112)  charge=  9.0576  magn=  0.0000
     atom   4 (R=0.112)  charge=  9.0592  magn=  0.0001
     atom   5 (R=0.112)  charge=  9.0584  magn=  0.0001
     atom   6 (R=0.110)  charge= 10.3506  magn= -0.0000
     atom   7 (R=0.110)  charge= 10.3489  magn=  0.0000
     atom   8 (R=0.075)  charge=  6.6216  magn=  0.0000
     atom   9 (R=0.075)  charge=  6.6304  magn= -0.0000
     atom  10 (R=0.075)  charge=  6.6054  magn= -0.0000
     atom  11 (R=0.075)  charge=  6.6031  magn= -0.0000
     atom  12 (R=0.075)  charge=  6.6050  magn=  0.0001
     atom  13 (R=0.075)  charge=  6.6042  magn=  0.0000
     atom  14 (R=0.075)  charge=  6.6034  magn=  0.0002
     atom  15 (R=0.075)  charge=  6.6023  magn=  0.0003
     atom  16 (R=0.075)  charge=  6.6039  magn=  0.0006
     atom  17 (R=0.075)  charge=  6.6034  magn=  0.0004
     atom  18 (R=0.111)  charge=  9.4554  magn= -0.0000
     atom  19 (R=0.111)  charge=  8.9991  magn=  0.0004
     atom  20 (R=0.111)  charge=  8.9964  magn= -0.0006
     atom  21 (R=0.111)  charge=  8.9973  magn=  0.0012
     atom  22 (R=0.111)  charge=  8.9881  magn=  0.0002
     atom  23 (R=0.075)  charge=  0.9165  magn=  0.0000

     total cpu time spent up to now is      665.8 secs

     End of self-consistent calculation

 ------ SPIN UP ------------


          k = 0.0000 0.0000 0.0000 ( 61588 PWs)   bands (ev):

   -60.7779 -60.7726 -60.7324 -60.7242 -60.6993 -60.6925 -60.6550 -60.6436
   -60.4809 -60.2457 -54.3898 -54.3417 -54.2653 -54.2175 -52.6907 -46.2515
   -46.2450 -41.6590 -41.6214 -41.5456 -41.5199 -39.7927 -27.7780 -27.7729
   -27.6936 -27.6858 -27.5894 -27.5844 -27.4622 -27.4548 -27.3467 -27.3308
   -27.2722 -27.2653 -27.2527 -27.2308 -27.2222 -27.1655 -27.1576 -27.1167
   -27.0537 -26.9783 -26.9563 -26.9523 -26.9424 -26.9256 -26.8925 -26.8827
   -26.8770 -26.8535 -26.8480 -26.8136 -24.1730 -23.9631 -23.6598 -23.5780
   -23.3174 -23.1830 -23.1602 -23.0596 -22.9321 -22.8657 -22.8473 -22.6306
   -22.4956 -22.4457 -22.3908 -22.3436 -22.2753 -22.2256 -21.7519 -21.6923
   -21.6211 -20.1888 -19.9562 -19.8263 -19.8140 -19.6347 -19.6078 -19.5910
   -19.5717 -19.5638 -19.5332 -19.3790 -19.3627 -18.1453 -17.9318 -17.8079
     1.4338   2.7240   2.9319   3.1429   3.2979   3.4587   3.4894   3.6761
     3.7430   3.8568   3.9228   4.0406   4.2970   4.5141   4.5531   4.6855
     4.7362   4.9042   5.0333   5.0659   5.1212   5.2600   5.2914   5.3259
     5.4078   5.5639   5.5776   5.7286   5.7496   5.7593   5.7745   5.7938
     5.9294   6.1043   6.1584   6.2326   6.2730   6.3275   6.3700   6.3749
     6.4627   6.6564   6.6761   6.6853   6.8537   6.9578   7.0149   7.0496
     7.1014   7.1490   7.2684   7.3209   7.3303   7.4195   7.5399   7.5674
     7.6243   7.6662   7.8972   7.9607   8.0872   8.0919   8.1263   8.1896
     8.2525   8.3525   8.3540   8.3695   8.5123   8.5193   8.6300   8.7586
     8.7791   8.9033   8.9527   9.0642   9.2005   9.2434   9.2903

 ------ SPIN DOWN ----------


          k = 0.0000 0.0000 0.0000 ( 61588 PWs)   bands (ev):

   -60.7776 -60.7724 -60.7322 -60.7238 -60.6988 -60.6923 -60.6547 -60.6432
   -60.4809 -60.2458 -54.3898 -54.3417 -54.2653 -54.2175 -52.6907 -46.2515
   -46.2450 -41.6590 -41.6207 -41.5460 -41.5191 -39.7927 -27.7776 -27.7725
   -27.6932 -27.6854 -27.5891 -27.5840 -27.4618 -27.4542 -27.3465 -27.3305
   -27.2721 -27.2651 -27.2522 -27.2305 -27.2219 -27.1652 -27.1573 -27.1165
   -27.0536 -26.9783 -26.9559 -26.9518 -26.9420 -26.9252 -26.8923 -26.8822
   -26.8766 -26.8530 -26.8477 -26.8136 -24.1729 -23.9630 -23.6597 -23.5779
   -23.3173 -23.1829 -23.1601 -23.0596 -22.9321 -22.8657 -22.8473 -22.6306
   -22.4956 -22.4457 -22.3907 -22.3436 -22.2753 -22.2255 -21.7519 -21.6923
   -21.6211 -20.1880 -19.9567 -19.8257 -19.8132 -19.6345 -19.6076 -19.5906
   -19.5721 -19.5627 -19.5335 -19.3794 -19.3616 -18.1453 -17.9317 -17.8078
     1.4341   2.7241   2.9324   3.1431   3.2980   3.4594   3.4897   3.6763
     3.7433   3.8570   3.9233   4.0410   4.2973   4.5142   4.5534   4.6857
     4.7365   4.9047   5.0334   5.0666   5.1216   5.2603   5.2916   5.3262
     5.4085   5.5641   5.5778   5.7290   5.7501   5.7595   5.7746   5.7942
     5.9296   6.1050   6.1588   6.2330   6.2733   6.3279   6.3703   6.3753
     6.4632   6.6568   6.6764   6.6857   6.8543   6.9584   7.0162   7.0500
     7.1033   7.1500   7.2697   7.3214   7.3319   7.4213   7.5402   7.5684
     7.6251   7.6668   7.8976   7.9612   8.0881   8.0926   8.1267   8.1907
     8.2536   8.3528   8.3549   8.3701   8.5130   8.5199   8.6304   8.7590
     8.7795   8.9046   8.9533   9.0647   9.2011   9.2438   9.2908

     the Fermi energy is     7.2423 ev

!    total energy              =   -2943.05930441 Ry
     estimated scf accuracy    <       0.00019436 Ry
     smearing contrib. (-TS)   =      -0.10145513 Ry
     internal energy E=F+TS    =   -2942.95784928 Ry

     total magnetization       =     0.02 Bohr mag/cell
     absolute magnetization    =     0.02 Bohr mag/cell

     convergence has been achieved in   5 iterations

     negative rho (up, down):  9.088E-01 9.088E-01

     Forces acting on atoms (cartesian axes, Ry/au):

     atom    1 type  1   force =    -0.01193843   -0.02300369    0.00638759
     atom    2 type  1   force =    -0.11551977   -0.01465186   -0.00437679
     atom    3 type  1   force =    -0.11416037    0.01306957    0.00012383
     atom    4 type  1   force =     0.11384306   -0.02047962   -0.00821174
     atom    5 type  1   force =     0.11458815    0.01724828   -0.00171276
     atom    6 type  2   force =    -0.00851297   -0.02122337    0.00581652
     atom    7 type  2   force =    -0.01264173    0.01190086   -0.00702182
     atom    8 type  3   force =    -0.12124440    0.00270941    0.00022378
     atom    9 type  3   force =     0.08433515    0.00576097   -0.04084535
     atom   10 type  3   force =    -0.02117677   -0.03192870   -0.05832010
     atom   11 type  3   force =    -0.01942918   -0.03583647    0.05898342
     atom   12 type  3   force =    -0.01666546    0.03680063   -0.05262687
     atom   13 type  3   force =    -0.01971002    0.02903154    0.06222039
     atom   14 type  3   force =     0.02416964   -0.02858787   -0.05444762
     atom   15 type  3   force =     0.01659437   -0.03976332    0.05444837
     atom   16 type  3   force =     0.01997660    0.03253234   -0.04946914
     atom   17 type  3   force =     0.01643261    0.03431274    0.05917182
     atom   18 type  4   force =    -0.00986427    0.02983349   -0.01333356
     atom   19 type  4   force =    -0.12810591   -0.00468976   -0.11444576
     atom   20 type  4   force =    -0.13261884    0.00528105    0.11182785
     atom   21 type  4   force =     0.12626447   -0.00512803   -0.11691745
     atom   22 type  4   force =     0.15319237    0.00777069    0.10276925
     atom   23 type  5   force =     0.06219170   -0.00095887    0.05975613
     The non-local contrib.  to forces
     atom    1 type  1   force =    -0.00868605   -0.01317567    0.03472091
     atom    2 type  1   force =    -0.24497363   -0.16232519    0.01537911
     atom    3 type  1   force =    -0.23924659    0.15922108   -0.02834371
     atom    4 type  1   force =     0.26084798   -0.16007381    0.02806419
     atom    5 type  1   force =     0.25035074    0.15531789   -0.01748030
     atom    6 type  2   force =     0.00397887   -0.05441679   -0.06530189
     atom    7 type  2   force =    -0.01824833    0.05381865    0.05593836
     atom    8 type  3   force =    -0.26135276    0.00142751   -0.00246894
     atom    9 type  3   force =     0.04329346    0.00114213   -0.10387134
     atom   10 type  3   force =    -0.21260710    0.00526589   -0.20686313
     atom   11 type  3   force =    -0.21477695    0.01066824    0.19462391
     atom   12 type  3   force =    -0.20223777   -0.01920964   -0.17970815
     atom   13 type  3   force =    -0.20478284   -0.00856349    0.20765254
     atom   14 type  3   force =     0.20431361    0.00427494   -0.21904781
     atom   15 type  3   force =     0.22737085    0.00567759    0.18213960
     atom   16 type  3   force =     0.19383656   -0.01989753   -0.19010830
     atom   17 type  3   force =     0.21773215   -0.00308847    0.19474374
     atom   18 type  4   force =     0.00306760    0.05991401   -0.06415453
     atom   19 type  4   force =     0.06238654    0.00932069    0.07457267
     atom   20 type  4   force =     0.05233065   -0.01370632   -0.06009336
     atom   21 type  4   force =    -0.05479310    0.01008303    0.07726949
     atom   22 type  4   force =    -0.05996840   -0.01027326   -0.08587413
     atom   23 type  5   force =    -0.06151749   -0.00011469   -0.02861934
     The ionic contribution  to forces
     atom    1 type  1   force =    -0.40021543   -4.78365524   14.06504800
     atom    2 type  1   force =   -39.69019108   -6.18741819    0.73101674
     atom    3 type  1   force =   -39.66307830    6.17450344   -0.76251711
     atom    4 type  1   force =    39.44248823   -6.42464206    0.64722943
     atom    5 type  1   force =    39.41277538    6.41439011   -0.84426563
     atom    6 type  2   force =    -0.21241802   -3.64107367  -14.06194643
     atom    7 type  2   force =    -0.42598946    3.79321421   14.00242296
     atom    8 type  3   force =   -52.14961155    0.07187744   -0.15249392
     atom    9 type  3   force =    49.96231618    0.07314007   -1.30032534
     atom   10 type  3   force =   -36.05578149   -2.11545531  -23.07973704
     atom   11 type  3   force =   -35.14391174   -0.89439900   22.11862022
     atom   12 type  3   force =   -35.23980332    0.81777846  -22.13282367
     atom   13 type  3   force =   -36.04413971    2.22829417   23.09708524
     atom   14 type  3   force =    35.96686077   -2.15417228  -23.13501823
     atom   15 type  3   force =    34.96247181   -1.02635922   22.24128953
     atom   16 type  3   force =    35.15172185    0.85598904  -22.18735128
     atom   17 type  3   force =    35.86087081    2.36124026   23.22008183
     atom   18 type  4   force =    -0.19840663    4.44361069  -14.01249827
     atom   19 type  4   force =   -35.89838340    0.95663429  -25.55122368
     atom   20 type  4   force =   -35.90865631   -0.95270308   25.58927902
     atom   21 type  4   force =    35.76121773    0.95587059  -25.68845492
     atom   22 type  4   force =    35.38282402   -0.94905670   26.16498851
     atom   23 type  5   force =     5.12703965   -0.01760800    1.03159403
     The local contribution  to forces
     atom    1 type  1   force =     0.39107115    4.77508628  -14.10327737
     atom    2 type  1   force =    39.83692704    6.33728118   -0.76138573
     atom    3 type  1   force =    39.80510973   -6.32327620    0.78154836
     atom    4 type  1   force =   -39.60928255    6.56744788   -0.69846620
     atom    5 type  1   force =   -39.56807409   -6.55527865    0.84743979
     atom    6 type  2   force =     0.19831203    3.67143664   14.12505525
     atom    7 type  2   force =     0.42795249   -3.83472888  -14.07555058
     atom    8 type  3   force =    52.32831524   -0.07138638    0.14342695
     atom    9 type  3   force =   -49.94083893   -0.06990427    1.36246854
     atom   10 type  3   force =    36.27175041    2.06500380   23.24669867
     atom   11 type  3   force =    35.36740430    0.83929763  -22.27000515
     atom   12 type  3   force =    35.44975904   -0.74875530   22.27766671
     atom   13 type  3   force =    36.25596460   -2.18126200  -23.25716801
     atom   14 type  3   force =   -36.17658930    2.10927611   23.31986953
     atom   15 type  3   force =   -35.20778678    0.97194003  -22.38113371
     atom   16 type  3   force =   -35.35485739   -0.79076401   22.34752876
     atom   17 type  3   force =   -36.09344886   -2.31662690  -23.36838241
     atom   18 type  4   force =     0.18372285   -4.46981642   14.05472923
     atom   19 type  4   force =    35.71882379   -0.97058137   25.37531929
     atom   20 type  4   force =    35.73695948    0.97048766  -25.42564976
     atom   21 type  4   force =   -35.59313420   -0.97128676   25.50944360
     atom   22 type  4   force =   -35.19037940    0.96702954  -25.98453203
     atom   23 type  5   force =    -5.00504998    0.01679163   -0.94570512
     The core correction contribution to forces
     atom    1 type  1   force =     0.00247720    0.00042586    0.00013494
     atom    2 type  1   force =    -0.01255734   -0.00195414   -0.00006396
     atom    3 type  1   force =    -0.01240942    0.00290410   -0.00199390
     atom    4 type  1   force =     0.01366898   -0.00311309    0.00303692
     atom    5 type  1   force =     0.01383122    0.00308500    0.00093628
     atom    6 type  2   force =    -0.00025710    0.00238007    0.00265799
     atom    7 type  2   force =     0.00064336   -0.00261813   -0.00198402
     atom    8 type  3   force =    -0.03198933    0.00022720    0.00027796
     atom    9 type  3   force =     0.00899686    0.00080624   -0.01279415
     atom   10 type  3   force =    -0.02145902    0.01001484   -0.01586142
     atom   11 type  3   force =    -0.02436322    0.00945986    0.01753338
     atom   12 type  3   force =    -0.02157446   -0.01005604   -0.01525832
     atom   13 type  3   force =    -0.02303094   -0.00893842    0.01740073
     atom   14 type  3   force =     0.02258051    0.01006198   -0.01648771
     atom   15 type  3   force =     0.02501570    0.01051641    0.01380541
     atom   16 type  3   force =     0.02229064   -0.01059425   -0.01605090
     atom   17 type  3   force =     0.02294811   -0.00910261    0.01446701
     atom   18 type  4   force =    -0.00018798   -0.00315761    0.00314579
     atom   19 type  4   force =    -0.00981453    0.00003864   -0.00968994
     atom   20 type  4   force =    -0.00936450    0.00036101    0.00887145
     atom   21 type  4   force =     0.00939816   -0.00000938   -0.01002314
     atom   22 type  4   force =     0.01018826    0.00018112    0.00997398
     atom   23 type  5   force =     0.00000000    0.00000000    0.00000000
     The Hubbard contrib.    to forces
     atom    1 type  1   force =     0.00000000    0.00000000    0.00000000
     atom    2 type  1   force =     0.00000000    0.00000000    0.00000000
     atom    3 type  1   force =     0.00000000    0.00000000    0.00000000
     atom    4 type  1   force =     0.00000000    0.00000000    0.00000000
     atom    5 type  1   force =     0.00000000    0.00000000    0.00000000
     atom    6 type  2   force =     0.00000000    0.00000000    0.00000000
     atom    7 type  2   force =     0.00000000    0.00000000    0.00000000
     atom    8 type  3   force =     0.00000000    0.00000000    0.00000000
     atom    9 type  3   force =     0.00000000    0.00000000    0.00000000
     atom   10 type  3   force =     0.00000000    0.00000000    0.00000000
     atom   11 type  3   force =     0.00000000    0.00000000    0.00000000
     atom   12 type  3   force =     0.00000000    0.00000000    0.00000000
     atom   13 type  3   force =     0.00000000    0.00000000    0.00000000
     atom   14 type  3   force =     0.00000000    0.00000000    0.00000000
     atom   15 type  3   force =     0.00000000    0.00000000    0.00000000
     atom   16 type  3   force =     0.00000000    0.00000000    0.00000000
     atom   17 type  3   force =     0.00000000    0.00000000    0.00000000
     atom   18 type  4   force =     0.00000000    0.00000000    0.00000000
     atom   19 type  4   force =     0.00000000    0.00000000    0.00000000
     atom   20 type  4   force =     0.00000000    0.00000000    0.00000000
     atom   21 type  4   force =     0.00000000    0.00000000    0.00000000
     atom   22 type  4   force =     0.00000000    0.00000000    0.00000000
     atom   23 type  5   force =     0.00000000    0.00000000    0.00000000
     The SCF correction term to forces
     atom    1 type  1   force =     0.00324866   -0.00166547    0.00899484
     atom    2 type  1   force =    -0.00489079   -0.00021607    0.00991078
     atom    3 type  1   force =    -0.00470183   -0.00026340    0.01066391
     atom    4 type  1   force =     0.00595439   -0.00007909    0.01115765
     atom    5 type  1   force =     0.00553886   -0.00024663    0.01089083
     atom    6 type  2   force =     0.00170521    0.00046983    0.00458534
     atom    7 type  2   force =     0.00283417    0.00223445    0.01138520
     atom    8 type  3   force =    -0.00677203    0.00058308    0.01071545
     atom    9 type  3   force =     0.01040155    0.00059625    0.01291067
     atom   10 type  3   force =    -0.00324560    0.00326153   -0.00332344
     atom   11 type  3   force =    -0.00394761   -0.00084375   -0.00255520
     atom   12 type  3   force =    -0.00297498   -0.00293742   -0.00326970
     atom   13 type  3   force =    -0.00388717   -0.00047927   -0.00351637
     atom   14 type  3   force =     0.00683801    0.00199083   -0.00452966
     atom   15 type  3   force =     0.00935676   -0.00151868   -0.00241874
     atom   16 type  3   force =     0.00681890   -0.00218146   -0.00425368
     atom   17 type  3   force =     0.00816437    0.00190991   -0.00250462
     atom   18 type  4   force =     0.00177385   -0.00069774    0.00467794
     atom   19 type  4   force =    -0.00128434   -0.00008257   -0.00419036
     atom   20 type  4   force =    -0.00405419    0.00086122   -0.00134576
     atom   21 type  4   force =     0.00340984    0.00023394   -0.00591874
     atom   22 type  4   force =     0.01036186   -0.00009057   -0.00255336
     atom   23 type  5   force =     0.00155348   -0.00000837    0.00172029

     Total force =     0.498339     Total SCF correction =     0.043797


     Computing stress (Cartesian axis) and pressure


     negative rho (up, down):  9.088E-01 9.088E-01
          total   stress  (Ry/bohr**3)                   (kbar)     P=       86.37
   0.00072519   0.00000070   0.00003017          106.68        0.10        4.44
[...]
     3.7516   3.8580   3.9379   4.0411   4.3050   4.5240   4.5410   4.6967
     4.7439   4.9245   5.0430   5.0811   5.1366   5.2714   5.3026   5.3425
     5.4196   5.5739   5.6020   5.7413   5.7661   5.7694   5.7866   5.8030
     5.9384   6.1103   6.1616   6.2455   6.2888   6.3391   6.3832   6.3839
     6.4706   6.6653   6.6885   6.7004   6.8692   6.9739   7.0250   7.0622
     7.1112   7.1579   7.2739   7.3275   7.3453   7.4285   7.5382   7.5672
     7.6363   7.6738   7.9090   7.9827   8.0926   8.1040   8.1381   8.1950
     8.2622   8.3659   8.3693   8.3842   8.5301   8.5316   8.6421   8.7714
     8.7904   8.9112   8.9644   9.0741   9.2334   9.2498   9.2860

     the Fermi energy is     7.2508 ev

!    total energy              =   -2943.03981577 Ry
     estimated scf accuracy    <       0.00018495 Ry
     smearing contrib. (-TS)   =      -0.10253420 Ry
     internal energy E=F+TS    =   -2942.93728157 Ry

     total magnetization       =     0.00 Bohr mag/cell
     absolute magnetization    =     0.00 Bohr mag/cell

     convergence has been achieved in   5 iterations

     negative rho (up, down):  9.088E-01 9.088E-01

     Forces acting on atoms (cartesian axes, Ry/au):

     atom    1 type  1   force =    -0.01087362   -0.02329984    0.01131693
     atom    2 type  1   force =    -0.11781700   -0.01449434    0.00184645
     atom    3 type  1   force =    -0.11619274    0.01242682    0.00679690
     atom    4 type  1   force =     0.11556456   -0.01947542   -0.00185431
     atom    5 type  1   force =     0.11564553    0.01598501    0.00463920
     atom    6 type  2   force =    -0.01258937   -0.02397237   -0.00071054
     atom    7 type  2   force =    -0.01388530    0.01243850   -0.00641439
     atom    8 type  3   force =    -0.12639797    0.00273404    0.00286772
     atom    9 type  3   force =     0.04085812    0.00803424   -0.07297180
     atom   10 type  3   force =    -0.02190343   -0.02964917   -0.05986781
     atom   11 type  3   force =    -0.02101727   -0.03560242    0.05630608
     atom   12 type  3   force =    -0.01790828    0.03487617   -0.05462050
     atom   13 type  3   force =    -0.02135423    0.02817012    0.05878634
     atom   14 type  3   force =     0.02496248   -0.02691804   -0.05634095
     atom   15 type  3   force =     0.01769595   -0.04066759    0.05150377
     atom   16 type  3   force =     0.02108557    0.03097495   -0.05175673
     atom   17 type  3   force =     0.01771670    0.03565040    0.05629590
     atom   18 type  4   force =    -0.01291511    0.03181168   -0.01681952
     atom   19 type  4   force =    -0.12658550   -0.00463043   -0.11477960
     atom   20 type  4   force =    -0.13225721    0.00541257    0.10858804
     atom   21 type  4   force =     0.12466871   -0.00521380   -0.11978772
     atom   22 type  4   force =     0.15248976    0.00779309    0.09709250
     atom   23 type  5   force =     0.12100966   -0.00238417    0.09988404
     The non-local contrib.  to forces
     atom    1 type  1   force =    -0.00592789   -0.01252447    0.03523971
     atom    2 type  1   force =    -0.24550519   -0.16216637    0.01852865
     atom    3 type  1   force =    -0.23990808    0.15904611   -0.02494179
     atom    4 type  1   force =     0.26227305   -0.16022874    0.03199041
     atom    5 type  1   force =     0.25076748    0.15553866   -0.01434430
     atom    6 type  2   force =     0.00596303   -0.05545362   -0.06284570
     atom    7 type  2   force =    -0.01630242    0.05637113    0.05584328
     atom    8 type  3   force =    -0.25829326    0.00132926   -0.00033010
     atom    9 type  3   force =     0.04991228    0.00460260   -0.10706524
     atom   10 type  3   force =    -0.21372485    0.00619683   -0.20725285
     atom   11 type  3   force =    -0.21405340    0.01088401    0.19365737
     atom   12 type  3   force =    -0.20413625   -0.02003292   -0.18024488
     atom   13 type  3   force =    -0.20375048   -0.00941753    0.20609377
     atom   14 type  3   force =     0.20666605    0.00465632   -0.21980998
     atom   15 type  3   force =     0.22571726    0.00331587    0.18080472
     atom   16 type  3   force =     0.19610569   -0.02060975   -0.19037011
     atom   17 type  3   force =     0.21605520   -0.00037602    0.19348940
     atom   18 type  4   force =     0.00547481    0.06033852   -0.06190187
     atom   19 type  4   force =     0.06151732    0.00933689    0.07306972
     atom   20 type  4   force =     0.05097425   -0.01352164   -0.06168446
     atom   21 type  4   force =    -0.05474846    0.00987947    0.07766821
     atom   22 type  4   force =    -0.05694899   -0.01034682   -0.08658658
     atom   23 type  5   force =    -0.06954663    0.00036425   -0.03697689
     The ionic contribution  to forces
     atom    1 type  1   force =    -0.37714299   -4.80045788   14.17391669
     atom    2 type  1   force =   -39.70289964   -6.19445578    0.74779275
     atom    3 type  1   force =   -39.67619864    6.18250122   -0.74463659
     atom    4 type  1   force =    39.48707963   -6.42503781    0.68320590
     atom    5 type  1   force =    39.46143438    6.41148361   -0.80489647
     atom    6 type  2   force =    -0.29965126   -3.78242409  -14.19135552
     atom    7 type  2   force =    -0.39806058    3.81000363   14.11572208
     atom    8 type  3   force =   -52.32884452    0.07099387   -0.10637422
     atom    9 type  3   force =    49.66213243    0.10189648   -1.39790805
     atom   10 type  3   force =   -36.05028735   -2.10797348  -23.06328275
     atom   11 type  3   force =   -35.13014906   -0.87530038   22.08932356
     atom   12 type  3   force =   -35.23717804    0.81136804  -22.11793923
     atom   13 type  3   force =   -36.02825488    2.20922968   23.06751892
     atom   14 type  3   force =    35.96675252   -2.15464093  -23.12073301
     atom   15 type  3   force =    34.96579874   -0.99663079   22.19996539
     atom   16 type  3   force =    35.15479303    0.85709903  -22.17430735
     atom   17 type  3   force =    35.86345833    2.32890269   23.17613259
     atom   18 type  4   force =    -0.28198153    4.57455033  -14.13445820
     atom   19 type  4   force =   -35.89261074    0.95432577  -25.51429782
     atom   20 type  4   force =   -35.87621159   -0.95104894   25.52278447
     atom   21 type  4   force =    35.76785897    0.95328000  -25.70531253
     atom   22 type  4   force =    35.39309554   -0.94454507   26.05317969
     atom   23 type  5   force =     5.55706725   -0.03311919    1.24595970
     The local contribution  to forces
     atom    1 type  1   force =     0.37414594    4.78603526  -14.19062909
     atom    2 type  1   force =    39.84241149    6.34373153   -0.75403478
     atom    3 type  1   force =    39.81179450   -6.33229624    0.78954649
     atom    4 type  1   force =   -39.64238572    6.56920579   -0.70964205
     atom    5 type  1   force =   -39.60576715   -6.55442753    0.83307711
     atom    6 type  2   force =     0.28579400    3.81105980   14.25722340
     atom    7 type  2   force =     0.40362702   -3.84848808  -14.16829762
     atom    8 type  3   force =    52.48849689   -0.06894534    0.12003885
     atom    9 type  3   force =   -49.66423169   -0.09933087    1.46032915
     atom   10 type  3   force =    36.26600676    2.06600335   23.22657610
     atom   11 type  3   force =    35.34644466    0.81725416  -22.24887491
     atom   12 type  3   force =    35.44699244   -0.74923515   22.25922212
     atom   13 type  3   force =    36.23187274   -2.16130645  -23.23810811
     atom   14 type  3   force =   -36.16722655    2.11679860   23.30091714
     atom   15 type  3   force =   -35.19195277    0.94170223  -22.34773100
     atom   16 type  3   force =   -35.34792178   -0.79764734   22.32956806
     atom   17 type  3   force =   -36.07844633   -2.28188986  -23.33302581
     atom   18 type  4   force =     0.26765431   -4.60049258   14.18345739
     atom   19 type  4   force =    35.71680399   -0.96892596   25.33532658
     atom   20 type  4   force =    35.69879584    0.97011214  -25.36509806
     atom   21 type  4   force =   -35.59508270   -0.96898876   25.51706788
     atom   22 type  4   force =   -35.18201940    0.96172609  -25.88597369
     atom   23 type  5   force =    -5.36477273    0.03036474   -1.10719265
     The core correction contribution to forces
     atom    1 type  1   force =     0.00246035    0.00082398   -0.00013322
     atom    2 type  1   force =    -0.01250600   -0.00191435   -0.00002658
     atom    3 type  1   force =    -0.01235891    0.00285535   -0.00199442
     atom    4 type  1   force =     0.01365330   -0.00307612    0.00286772
     atom    5 type  1   force =     0.01373692    0.00298824    0.00083189
     atom    6 type  2   force =    -0.00036143    0.00245702    0.00258948
     atom    7 type  2   force =     0.00059125   -0.00275926   -0.00197330
     atom    8 type  3   force =    -0.03138390    0.00019470    0.00031686
     atom    9 type  3   force =     0.00866578    0.00118457   -0.01404377
     atom   10 type  3   force =    -0.02154772    0.01001252   -0.01591225
     atom   11 type  3   force =    -0.02433214    0.00947381    0.01753767
     atom   12 type  3   force =    -0.02170170   -0.00998398   -0.01529071
     atom   13 type  3   force =    -0.02300180   -0.00893011    0.01741795
     atom   14 type  3   force =     0.02257967    0.00987863   -0.01659487
     atom   15 type  3   force =     0.02479051    0.01036062    0.01389674
     atom   16 type  3   force =     0.02227630   -0.01043693   -0.01610272
     atom   17 type  3   force =     0.02268953   -0.00892422    0.01463603
     atom   18 type  4   force =    -0.00027257   -0.00323169    0.00316216
     atom   19 type  4   force =    -0.00973106    0.00003304   -0.00962379
     atom   20 type  4   force =    -0.00931139    0.00036006    0.00891574
     atom   21 type  4   force =     0.00942280   -0.00000693   -0.01013943
     atom   22 type  4   force =     0.01018672    0.00017810    0.00987857
     atom   23 type  5   force =     0.00000000    0.00000000    0.00000000
     The Hubbard contrib.    to forces
     atom    1 type  1   force =     0.00000000    0.00000000    0.00000000
     atom    2 type  1   force =     0.00000000    0.00000000    0.00000000
     atom    3 type  1   force =     0.00000000    0.00000000    0.00000000
     atom    4 type  1   force =     0.00000000    0.00000000    0.00000000
     atom    5 type  1   force =     0.00000000    0.00000000    0.00000000
     atom    6 type  2   force =     0.00000000    0.00000000    0.00000000
     atom    7 type  2   force =     0.00000000    0.00000000    0.00000000
     atom    8 type  3   force =     0.00000000    0.00000000    0.00000000
     atom    9 type  3   force =     0.00000000    0.00000000    0.00000000
     atom   10 type  3   force =     0.00000000    0.00000000    0.00000000
     atom   11 type  3   force =     0.00000000    0.00000000    0.00000000
     atom   12 type  3   force =     0.00000000    0.00000000    0.00000000
     atom   13 type  3   force =     0.00000000    0.00000000    0.00000000
     atom   14 type  3   force =     0.00000000    0.00000000    0.00000000
     atom   15 type  3   force =     0.00000000    0.00000000    0.00000000
     atom   16 type  3   force =     0.00000000    0.00000000    0.00000000
     atom   17 type  3   force =     0.00000000    0.00000000    0.00000000
     atom   18 type  4   force =     0.00000000    0.00000000    0.00000000
     atom   19 type  4   force =     0.00000000    0.00000000    0.00000000
     atom   20 type  4   force =     0.00000000    0.00000000    0.00000000
     atom   21 type  4   force =     0.00000000    0.00000000    0.00000000
     atom   22 type  4   force =     0.00000000    0.00000000    0.00000000
     atom   23 type  5   force =     0.00000000    0.00000000    0.00000000
     The SCF correction term to forces
     atom    1 type  1   force =    -0.00385528    0.00281323   -0.00639619
     atom    2 type  1   force =     0.00123608    0.00030059   -0.00973260
     atom    3 type  1   force =     0.00103212    0.00031033   -0.01049581
     atom    4 type  1   force =    -0.00450196   -0.00034859   -0.00959531
     atom    5 type  1   force =    -0.00397236    0.00039198   -0.00934803
     atom    6 type  2   force =    -0.00377998    0.00037848   -0.00564122
     atom    7 type  2   force =    -0.00318684   -0.00269897   -0.00702785
     atom    8 type  3   force =     0.00418056   -0.00084851   -0.01010269
     atom    9 type  3   force =    -0.01506694   -0.00032859   -0.01360291
     atom   10 type  3   force =    -0.00179653   -0.00389846    0.00068493
     atom   11 type  3   force =     0.00162642    0.00207592    0.00534338
     atom   12 type  3   force =    -0.00133100    0.00275012    0.00031319
     atom   13 type  3   force =     0.00233394   -0.00141553    0.00654479
     atom   14 type  3   force =    -0.00325547   -0.00362072    0.00056076
     atom   15 type  3   force =    -0.00610407    0.00057443    0.00524890
     atom   16 type  3   force =    -0.00361395    0.00255989    0.00013638
     atom   17 type  3   force =    -0.00548629   -0.00207225    0.00574467
     atom   18 type  4   force =    -0.00323639    0.00063704   -0.00639801
     atom   19 type  4   force =    -0.00201128    0.00058978    0.00142669
     atom   20 type  4   force =     0.00404943   -0.00049910    0.00435132
     atom   21 type  4   force =    -0.00222816    0.00061236    0.00160913
     atom   22 type  4   force =    -0.01127038    0.00077074    0.00727549
     atom   23 type  5   force =    -0.00118449   -0.00000402   -0.00122514

     Total force =     0.514250     Total SCF correction =     0.041330


     Computing stress (Cartesian axis) and pressure


     negative rho (up, down):  9.088E-01 9.088E-01
          total   stress  (Ry/bohr**3)                   (kbar)     P=       88.08
   0.00073507   0.00000096   0.00004689          108.13        0.14        6.90
   0.00000096   0.00067012  -0.00001266            0.14       98.58       -1.86
   0.00004689  -0.00001266   0.00039109            6.90       -1.86       57.53


     Entering Dynamics:    iteration =    20
                           time      =   0.0041 pico-seconds


ATOMIC_POSITIONS (angstrom)
Hf            2.6715024447        2.8269043698        6.6049545689
Hf            1.2531707787        1.2861159976        5.0593403327
Hf            1.2556771443        7.3899539172        5.0890058707
Hf            4.0898826314        1.2860823350        5.0593071504
Hf            4.0873912372        7.3899655003        5.0889794084
Nb            2.6714888433        2.7965511688        3.5166006515
Nb            2.6714455818        5.8765638045        6.6357090762
Ta            1.2094700381        4.3409601728        5.0721003475
Ta            4.1083429767        4.3411468301        5.0563699450
Ta            1.3085353844        1.3137559042        2.0590172975
Ta            1.3040798616        1.3079679450        8.0961147352
Ta            1.3053305852        7.3762443731        2.0465243510
Ta            1.3090074509        7.3654258174        8.0875641796
Ta            4.0345551512        1.3138296108        2.0590399018
Ta            4.0389655111        1.3079653037        8.0960660126
Ta            4.0377647825        7.3761698996        2.0465433335
Ta            4.0340347623        7.3654515696        8.0875441401
Zr            2.6714969470        5.8668001654        3.5280921824
Zr            1.2424913696        4.3219730650        1.9983060163
Zr            1.2389369226        4.3542448320        8.1531357816
Zr            4.1005933009        4.3219570168        1.9981719021
Zr            4.1043774212        4.3542835199        8.1531048694
H             5.5845765736        4.3283411046        6.0010209314


     kinetic energy (Ekin) =           4.01842064 Ry
     temperature           =       19226.01329397 K 
     Ekin + Etot (const)   =       -2939.02139513 Ry
     Ions kinetic stress =           70.97 (kbar)
                                    147.91          -1.68          97.85
                                     -1.68           0.03          -1.11
                                     97.85          -1.11          64.97



     Linear momentum :   -0.0000000000   -0.0000000000    0.0000000000

     The maximum number of steps has been reached.

     End of molecular dynamics calculation

     diffusion coefficients :
     atom     1   D =       0.00000001 cm^2/s
     atom     2   D =       0.00000000 cm^2/s
     atom     3   D =       0.00000000 cm^2/s
     atom     4   D =       0.00000004 cm^2/s
     atom     5   D =       0.00000004 cm^2/s
     atom     6   D =       0.00000001 cm^2/s
     atom     7   D =       0.00000001 cm^2/s
     atom     8   D =       0.00000000 cm^2/s
     atom     9   D =       0.00000293 cm^2/s
     atom    10   D =       0.00000001 cm^2/s
     atom    11   D =       0.00000002 cm^2/s
     atom    12   D =       0.00000001 cm^2/s
     atom    13   D =       0.00000002 cm^2/s
     atom    14   D =       0.00000001 cm^2/s
     atom    15   D =       0.00000002 cm^2/s
     atom    16   D =       0.00000001 cm^2/s
     atom    17   D =       0.00000002 cm^2/s
     atom    18   D =       0.00000001 cm^2/s
     atom    19   D =       0.00000002 cm^2/s
     atom    20   D =       0.00000006 cm^2/s
     atom    21   D =       0.00000009 cm^2/s
     atom    22   D =       0.00000014 cm^2/s
     atom    23   D =       0.00033852 cm^2/s

     < D > =       0.00001487 cm^2/s

     Writing all to output data dir outdir/pwscf.save/

     init_run     :     10.78s CPU     12.51s WALL (       1 calls)
     electrons    :   2485.67s CPU   2968.69s WALL (      20 calls)
     update_pot   :     19.27s CPU     20.59s WALL (      19 calls)
     forces       :    200.28s CPU    238.32s WALL (      20 calls)
     stress       :    317.23s CPU    345.70s WALL (      20 calls)

     Called by init_run:
     wfcinit      :      8.11s CPU      9.61s WALL (       1 calls)
     potinit      :      0.47s CPU      0.49s WALL (       1 calls)
     hinit0       :      0.98s CPU      1.07s WALL (       1 calls)

     Called by electrons:
     c_bands      :   1977.37s CPU   2373.51s WALL (     100 calls)
     sum_band     :    342.76s CPU    398.94s WALL (     100 calls)
     v_of_rho     :     10.85s CPU     12.60s WALL (     120 calls)
     newd         :    179.52s CPU    212.60s WALL (     120 calls)
     mix_rho      :      1.00s CPU      1.30s WALL (     100 calls)

     Called by c_bands:
     init_us_2    :      4.06s CPU      4.15s WALL (     482 calls)
     init_us_2:cp :      4.05s CPU      4.14s WALL (     482 calls)
     regterg      :   1963.17s CPU   2356.16s WALL (     200 calls)

     Called by *egterg:
     rdiaghg      :     61.72s CPU     78.08s WALL (    1577 calls)
     h_psi        :   1020.93s CPU   1142.15s WALL (    1617 calls)
     s_psi        :    357.02s CPU    357.75s WALL (    1617 calls)
     g_psi        :      0.75s CPU      0.80s WALL (    1415 calls)

     Called by h_psi:
     h_psi:calbec :    495.52s CPU    582.66s WALL (    1617 calls)
     vloc_psi     :    104.23s CPU    137.16s WALL (    1617 calls)
     add_vuspsi   :    419.75s CPU    420.84s WALL (    1617 calls)

     General routines
     calbec       :    833.81s CPU    988.67s WALL (    2017 calls)
     fft          :      9.21s CPU     26.65s WALL (    2499 calls)
     ffts         :      0.22s CPU      0.32s WALL (     100 calls)
     fftw         :    112.86s CPU    149.51s WALL (  104076 calls)

     Parallel routines

     PWSCF        :  50m59.13s CPU      1h 0m WALL


   This run was terminated on:  17:43: 7  16Jun2023            

=------------------------------------------------------------------------------=
   JOB DONE.
=------------------------------------------------------------------------------=
