
     Program PWSCF v.7.2 starts on  5Jun2023 at 18:53:44 

     This program is part of the open-source Quantum ESPRESSO suite
     for quantum simulation of materials; please cite
         "P. Giannozzi et al., J. Phys.:Condens. Matter 21 395502 (2009);
         "P. Giannozzi et al., J. Phys.:Condens. Matter 29 465901 (2017);
         "P. Giannozzi et al., J. Chem. Phys. 152 154105 (2020);
          URL http://www.quantum-espresso.org", 
     in publications or presentations arising from this work. More details at
     http://www.quantum-espresso.org/quote

     Parallel version (MPI), running on    12 processors

     MPI processes distributed on     1 nodes
     67224 MiB available memory on the printing compute node when the environment starts

     Reading input from md_Hf5Nb2Ta10Zr5H_equilibrate.in
Warning: card &CELL ignored
Warning: card / ignored

     Current dimensions of program PWSCF are:
     Max number of different atomic species (ntypx) = 10
     Max number of k-points (npk) =  40000
     Max angular momentum in pseudopotentials (lmaxx) =  4

     File outdir/pwscf.md deleted, as requested

     gamma-point specific algorithms are used

     R & G space division:  proc/nbgrp/npool/nimage =      12
     Subspace diagonalization in iterative solution of the eigenvalue problem:
     one sub-group per band group will be used
     custom distributed-memory algorithm (size of sub-group:  2*  2 procs)


     Parallelization info
     --------------------
     sticks:   dense  smooth     PW     G-vecs:    dense   smooth      PW
     Min         590     590    147                55418    55418    6924
     Max         592     592    148                55428    55428    6932
     Sum        7089    7089   1775               665061   665061   83133

     Using Slab Decomposition



     bravais-lattice index     =            0
     lattice parameter (alat)  =      13.3037  a.u.
     unit-cell volume          =    3744.5260 (a.u.)^3
     number of atoms/cell      =           23
     number of atomic types    =            5
     number of electrons       =       277.00
     number of Kohn-Sham states=          167
     kinetic-energy cutoff     =     120.0000  Ry
     charge density cutoff     =     480.0000  Ry
     scf convergence threshold =      1.0E-03
     mixing beta               =       0.7000
     number of iterations used =            8  TF        mixing
     energy convergence thresh.=      0.0E+00
     force convergence thresh. =      0.0E+00
     Exchange-correlation=  SLA  PW   PBX  PBC
                           (   1   4   3   4   0   0   0)
     nstep                     =           10


     celldm(1)=  13.303672  celldm(2)=   0.000000  celldm(3)=   0.000000
     celldm(4)=   0.000000  celldm(5)=   0.000000  celldm(6)=   0.000000

     crystal axes: (cart. coord. in units of alat)
               a(1) = (   1.000000   0.000000   0.000000 )  
               a(2) = (   0.000000   1.048295   0.000000 )  
               a(3) = (   0.000000   0.000000   1.517045 )  

     reciprocal axes: (cart. coord. in units 2 pi/alat)
               b(1) = (  1.000000  0.000000  0.000000 )  
               b(2) = (  0.000000  0.953930  0.000000 )  
               b(3) = (  0.000000  0.000000  0.659176 )  


     PseudoPot. # 1 for Hf read from file:
     q-e/pseudo/hf_pbe_v1.uspp.F.UPF
     MD5 check sum: 8ee9378dfe14276e333edf04c5e4aa26
     Pseudo is Ultrasoft + core correction, Zval = 12.0
     Generated by new atomic code, or converted to UPF format
     Using radial grid of  921 points,  8 beta functions with: 
                l(1) =   0
                l(2) =   0
                l(3) =   0
                l(4) =   1
                l(5) =   1
                l(6) =   2
                l(7) =   2
                l(8) =   3
     Q(r) pseudized with  6 coefficients,  rinner =    1.200   1.200   1.200
                                                       1.200   1.200   1.200
                                                       1.200

     PseudoPot. # 2 for Nb read from file:
     q-e/pseudo/nb_pbe_v1.uspp.F.UPF
     MD5 check sum: 573aab8a2fa660278ed4a62cd769473f
     Pseudo is Ultrasoft + core correction, Zval = 13.0
     Generated by new atomic code, or converted to UPF format
     Using radial grid of  887 points,  6 beta functions with: 
                l(1) =   0
                l(2) =   0
                l(3) =   1
                l(4) =   1
                l(5) =   2
                l(6) =   2
     Q(r) pseudized with  6 coefficients,  rinner =    1.000   1.000   1.000
                                                       1.000   1.000

     PseudoPot. # 3 for Ta read from file:
     q-e/pseudo/ta_pbe_v1.uspp.F.UPF
     MD5 check sum: f8bbe9446314a3b8ea5d9f3e3836c939
     Pseudo is Ultrasoft + core correction, Zval = 13.0
     Generated by new atomic code, or converted to UPF format
     Using radial grid of  921 points,  7 beta functions with: 
                l(1) =   0
                l(2) =   0
                l(3) =   1
                l(4) =   1
                l(5) =   2
                l(6) =   2
                l(7) =   3
     Q(r) pseudized with  6 coefficients,  rinner =    1.300   1.300   1.300
                                                       1.300   1.300   1.300
                                                       1.300

     PseudoPot. # 4 for Zr read from file:
     q-e/pseudo/zr_pbe_v1.uspp.F.UPF
     MD5 check sum: 5db81b1e868ab7776c4564c113de050b
     Pseudo is Ultrasoft + core correction, Zval = 12.0
     Generated by new atomic code, or converted to UPF format
     Using radial grid of  887 points,  6 beta functions with: 
                l(1) =   0
                l(2) =   0
                l(3) =   1
                l(4) =   1
                l(5) =   2
                l(6) =   2
     Q(r) pseudized with  6 coefficients,  rinner =    1.200   1.200   1.200
                                                       1.200   1.200

     PseudoPot. # 5 for H  read from file:
     q-e/pseudo/h_pbe_v1.4.uspp.F.UPF
     MD5 check sum: 761ae9a214b05c3daf00ab9f6b793d6f
     Pseudo is Ultrasoft, Zval =  1.0
     Generated by new atomic code, or converted to UPF format
     Using radial grid of  615 points,  2 beta functions with: 
                l(1) =   0
                l(2) =   0
     Q(r) pseudized with  8 coefficients,  rinner =    0.700

     atomic species   valence    mass     pseudopotential
        Hf            12.00   178.49000     Hf( 1.00)
        Nb            13.00    92.90637     Nb( 1.00)
        Ta            13.00   180.94788     Ta( 1.00)
        Zr            12.00    91.22400     Zr( 1.00)
        H              1.00     2.01400     H ( 1.00)

     Starting magnetic structure 
     atomic species   magnetization
        Hf           0.000
        Nb           0.000
        Ta           0.000
        Zr           0.000
        H            0.000

     No symmetry found



   Cartesian axes

     site n.     atom                  positions (alat units)
         1           Hf  tau(   1) = (   0.2656250   0.2656250   0.9957387  )
         2           Hf  tau(   2) = (   0.0284091   0.0284091   0.7585227  )
         3           Hf  tau(   3) = (   0.0284091   0.9772727   0.7585227  )
         4           Hf  tau(   4) = (   0.5028409   0.0284091   0.7585227  )
         5           Hf  tau(   5) = (   0.5028409   0.9772727   0.7585227  )
         6           Nb  tau(   6) = (   0.2656250   0.2656250   0.5213068  )
         7           Nb  tau(   7) = (   0.2656250   0.7400569   0.9957387  )
         8           Ta  tau(   8) = (   0.0284091   0.5028409   0.7585227  )
         9           Ta  tau(   9) = (   0.5028409   0.5028409   0.7585227  )
        10           Ta  tau(  10) = (   0.0284091   0.0284091   0.2840909  )
        11           Ta  tau(  11) = (   0.0284091   0.0284091   1.2329545  )
        12           Ta  tau(  12) = (   0.0284091   0.9772727   0.2840909  )
        13           Ta  tau(  13) = (   0.0284091   0.9772727   1.2329545  )
        14           Ta  tau(  14) = (   0.5028409   0.0284091   0.2840909  )
        15           Ta  tau(  15) = (   0.5028409   0.0284091   1.2329545  )
        16           Ta  tau(  16) = (   0.5028409   0.9772727   0.2840909  )
        17           Ta  tau(  17) = (   0.5028409   0.9772727   1.2329545  )
        18           Zr  tau(  18) = (   0.2656250   0.7400569   0.5213068  )
        19           Zr  tau(  19) = (   0.0284091   0.5028409   0.2840909  )
        20           Zr  tau(  20) = (   0.0284091   0.5028409   1.2329545  )
        21           Zr  tau(  21) = (   0.5028409   0.5028409   0.2840909  )
        22           Zr  tau(  22) = (   0.5028409   0.5028409   1.2329545  )
        23           H   tau(  23) = (   0.7159091   0.5028409   0.7585227  )

     number of k points=     1  Gaussian smearing, width (Ry)=  0.0220
                       cart. coord. in units 2pi/alat
        k(    1) = (   0.0000000   0.0000000   0.0000000), wk =   1.0000000

     Dense  grid:   332531 G-vectors     FFT dimensions: (  96, 100, 144)

     Estimated max dynamical RAM per process >     282.33 MB

     Estimated total dynamical RAM >       3.31 GB

     Check: negative core charge=   -0.000002
     Generating pointlists ...
     new r_m :   0.0410 (alat units)  0.5457 (a.u.) for type    1
     new r_m :   0.1695 (alat units)  2.2548 (a.u.) for type    2
     new r_m :   0.0410 (alat units)  0.5457 (a.u.) for type    3
     new r_m :   0.1695 (alat units)  2.2548 (a.u.) for type    4
     new r_m :   0.0879 (alat units)  1.1693 (a.u.) for type    5

     Initial potential from superposition of free atoms

     starting charge     266.9726, renormalised to     277.0000

     negative rho (up, down):  4.713E-01 4.713E-01
     Starting wfcs are  287 randomized atomic wfcs

     total cpu time spent up to now is       20.5 secs

     Self-consistent Calculation

     iteration #  1     ecut=   120.00 Ry     beta= 0.70
     Davidson diagonalization with overlap
