
     Program PWSCF v.7.2 starts on 12Jun2023 at 21:23:48 

     This program is part of the open-source Quantum ESPRESSO suite
     for quantum simulation of materials; please cite
         "P. Giannozzi et al., J. Phys.:Condens. Matter 21 395502 (2009);
         "P. Giannozzi et al., J. Phys.:Condens. Matter 29 465901 (2017);
         "P. Giannozzi et al., J. Chem. Phys. 152 154105 (2020);
          URL http://www.quantum-espresso.org", 
     in publications or presentations arising from this work. More details at
     http://www.quantum-espresso.org/quote

     Parallel version (MPI), running on    42 processors

     MPI processes distributed on     1 nodes
     179673 MiB available memory on the printing compute node when the environment starts

     Reading input from md_data/md_Hf5Nb2Ta10Zr5H_20steps_100eV_incident45_polar60.in
Warning: card &CELL ignored
Warning: card / ignored

     Current dimensions of program PWSCF are:
     Max number of different atomic species (ntypx) = 10
     Max number of k-points (npk) =  40000
     Max angular momentum in pseudopotentials (lmaxx) =  4

     File outdir/pwscf.md deleted, as requested

     gamma-point specific algorithms are used

     R & G space division:  proc/nbgrp/npool/nimage =      42
     Subspace diagonalization in iterative solution of the eigenvalue problem:
     one sub-group per band group will be used
     custom distributed-memory algorithm (size of sub-group:  2*  2 procs)


     Parallelization info
     --------------------
     sticks:   dense  smooth     PW     G-vecs:    dense   smooth      PW
     Min         262     262     63                23470    23470    2920
     Max         265     265     66                23484    23484    2942
     Sum       11057   11057   2753               986005   986005  123175

     Using Slab Decomposition



     bravais-lattice index     =            0
     lattice parameter (alat)  =      17.6500  a.u.
     unit-cell volume          =    5552.8853 (a.u.)^3
     number of atoms/cell      =           23
     number of atomic types    =            5
     number of electrons       =       277.00
     number of Kohn-Sham states=          167
     kinetic-energy cutoff     =     120.0000  Ry
     charge density cutoff     =     480.0000  Ry
     scf convergence threshold =      1.0E-03
     mixing beta               =       0.7000
     number of iterations used =            8  TF        mixing
     energy convergence thresh.=      0.0E+00
     force convergence thresh. =      0.0E+00
     Exchange-correlation=  SLA  PW   PBX  PBC
                           (   1   4   3   4   0   0   0)
     nstep                     =           20


     celldm(1)=  17.650041  celldm(2)=   0.000000  celldm(3)=   0.000000
     celldm(4)=   0.000000  celldm(5)=   0.000000  celldm(6)=   0.000000

     crystal axes: (cart. coord. in units of alat)
               a(1) = (   1.000000   0.000000   0.000000 )  
               a(2) = (   0.000000   0.929336   0.000000 )  
               a(3) = (   0.000000   0.000000   1.086698 )  

     reciprocal axes: (cart. coord. in units 2 pi/alat)
               b(1) = (  1.000000  0.000000  0.000000 )  
               b(2) = (  0.000000  1.076037  0.000000 )  
               b(3) = (  0.000000  0.000000  0.920219 )  


     PseudoPot. # 1 for Hf read from file:
     q-e/pseudo/hf_pbe_v1.uspp.F.UPF
     MD5 check sum: 8ee9378dfe14276e333edf04c5e4aa26
     Pseudo is Ultrasoft + core correction, Zval = 12.0
     Generated by new atomic code, or converted to UPF format
     Using radial grid of  921 points,  8 beta functions with: 
                l(1) =   0
                l(2) =   0
                l(3) =   0
                l(4) =   1
                l(5) =   1
                l(6) =   2
                l(7) =   2
                l(8) =   3
     Q(r) pseudized with  6 coefficients,  rinner =    1.200   1.200   1.200
                                                       1.200   1.200   1.200
                                                       1.200

     PseudoPot. # 2 for Nb read from file:
     q-e/pseudo/nb_pbe_v1.uspp.F.UPF
     MD5 check sum: 573aab8a2fa660278ed4a62cd769473f
     Pseudo is Ultrasoft + core correction, Zval = 13.0
     Generated by new atomic code, or converted to UPF format
     Using radial grid of  887 points,  6 beta functions with: 
                l(1) =   0
                l(2) =   0
                l(3) =   1
                l(4) =   1
                l(5) =   2
                l(6) =   2
     Q(r) pseudized with  6 coefficients,  rinner =    1.000   1.000   1.000
                                                       1.000   1.000

     PseudoPot. # 3 for Ta read from file:
     q-e/pseudo/ta_pbe_v1.uspp.F.UPF
     MD5 check sum: f8bbe9446314a3b8ea5d9f3e3836c939
     Pseudo is Ultrasoft + core correction, Zval = 13.0
     Generated by new atomic code, or converted to UPF format
     Using radial grid of  921 points,  7 beta functions with: 
                l(1) =   0
                l(2) =   0
                l(3) =   1
                l(4) =   1
                l(5) =   2
                l(6) =   2
                l(7) =   3
     Q(r) pseudized with  6 coefficients,  rinner =    1.300   1.300   1.300
                                                       1.300   1.300   1.300
                                                       1.300

     PseudoPot. # 4 for Zr read from file:
     q-e/pseudo/zr_pbe_v1.uspp.F.UPF
     MD5 check sum: 5db81b1e868ab7776c4564c113de050b
     Pseudo is Ultrasoft + core correction, Zval = 12.0
     Generated by new atomic code, or converted to UPF format
     Using radial grid of  887 points,  6 beta functions with: 
                l(1) =   0
                l(2) =   0
                l(3) =   1
                l(4) =   1
                l(5) =   2
                l(6) =   2
     Q(r) pseudized with  6 coefficients,  rinner =    1.200   1.200   1.200
                                                       1.200   1.200

     PseudoPot. # 5 for H  read from file:
     q-e/pseudo/h_pbe_v1.4.uspp.F.UPF
     MD5 check sum: 761ae9a214b05c3daf00ab9f6b793d6f
     Pseudo is Ultrasoft, Zval =  1.0
     Generated by new atomic code, or converted to UPF format
     Using radial grid of  615 points,  2 beta functions with: 
                l(1) =   0
                l(2) =   0
     Q(r) pseudized with  8 coefficients,  rinner =    0.700

     atomic species   valence    mass     pseudopotential
        Hf            12.00   178.49000     Hf( 1.00)
        Nb            13.00    92.90637     Nb( 1.00)
        Ta            13.00   180.94788     Ta( 1.00)
        Zr            12.00    91.22400     Zr( 1.00)
        H              1.00     2.01400     H ( 1.00)

     Starting magnetic structure 
     atomic species   magnetization
        Hf           0.000
        Nb           0.000
        Ta           0.000
        Zr           0.000
        H            0.000

     No symmetry found



   Cartesian axes

     site n.     atom                  positions (alat units)
         1           Hf  tau(   1) = (   0.2858672   0.3026898   0.7070626  )
         2           Hf  tau(   2) = (   0.1341532   0.1377178   0.5415917  )
         3           Hf  tau(   3) = (   0.1344204   0.7911996   0.5447610  )
         4           Hf  tau(   4) = (   0.4375813   0.1377178   0.5415917  )
         5           Hf  tau(   5) = (   0.4373140   0.7911996   0.5447610  )
         6           Nb  tau(   6) = (   0.2858672   0.2994572   0.3764008  )
         7           Nb  tau(   7) = (   0.2858672   0.6291626   0.7103852  )
         8           Ta  tau(   8) = (   0.1294832   0.4647675   0.5429471  )
         9           Ta  tau(   9) = (   0.4422513   0.4647675   0.5429471  )
        10           Ta  tau(  10) = (   0.1399628   0.1406984   0.2204260  )
        11           Ta  tau(  11) = (   0.1394848   0.1400847   0.8666573  )
        12           Ta  tau(  12) = (   0.1396156   0.7897030   0.2190832  )
        13           Ta  tau(  13) = (   0.1400119   0.7885528   0.8657390  )
        14           Ta  tau(  14) = (   0.4317717   0.1406984   0.2204260  )
        15           Ta  tau(  15) = (   0.4322496   0.1400847   0.8666573  )
        16           Ta  tau(  16) = (   0.4321189   0.7897030   0.2190832  )
        17           Ta  tau(  17) = (   0.4317226   0.7885528   0.8657390  )
        18           Zr  tau(  18) = (   0.2858672   0.6280820   0.3776642  )
        19           Zr  tau(  19) = (   0.1331729   0.4627493   0.2141328  )
        20           Zr  tau(  20) = (   0.1328036   0.4661802   0.8725649  )
        21           Zr  tau(  21) = (   0.4385616   0.4627493   0.2141328  )
        22           Zr  tau(  22) = (   0.4389309   0.4661802   0.8725649  )
        23           H   tau(  23) = (   0.5936660   0.5403755   0.6741890  )

     number of k points=     1  Gaussian smearing, width (Ry)=  0.0220
                       cart. coord. in units 2pi/alat
        k(    1) = (   0.0000000   0.0000000   0.0000000), wk =   1.0000000

     Dense  grid:   493003 G-vectors     FFT dimensions: ( 125, 120, 135)

     Estimated max dynamical RAM per process >     133.03 MB

     Estimated total dynamical RAM >       5.46 GB

     Check: negative core charge=   -0.000002
     Generating pointlists ...
     new r_m :   0.1117 (alat units)  1.9717 (a.u.) for type    1
     new r_m :   0.1098 (alat units)  1.9374 (a.u.) for type    2
     new r_m :   0.0883 (alat units)  1.5593 (a.u.) for type    3
     new r_m :   0.1082 (alat units)  1.9097 (a.u.) for type    4
     new r_m :   0.0883 (alat units)  1.5593 (a.u.) for type    5

     Initial potential from superposition of free atoms

     starting charge     266.9726, renormalised to     277.0000

     negative rho (up, down):  9.217E-01 9.217E-01
     Starting wfcs are  287 randomized atomic wfcs

     total cpu time spent up to now is       12.8 secs

     Self-consistent Calculation

     iteration #  1     ecut=   120.00 Ry     beta= 0.70
     Davidson diagonalization with overlap
     ethr =  1.00E-02,  avg # of iterations =  2.0

     negative rho (up, down):  9.966E-01 9.962E-01

     total cpu time spent up to now is       32.9 secs

     total energy              =   -2930.58857307 Ry
     estimated scf accuracy    <     276.75348115 Ry

     total magnetization       =    -0.00 Bohr mag/cell
     absolute magnetization    =     0.09 Bohr mag/cell

     iteration #  2     ecut=   120.00 Ry     beta= 0.70
     Davidson diagonalization with overlap
     ethr =  1.00E-02,  avg # of iterations =  5.0

     negative rho (up, down):  9.687E-01 9.700E-01

     total cpu time spent up to now is       54.7 secs

     total energy              =   -2942.22421484 Ry
     estimated scf accuracy    <      30.11132956 Ry

     total magnetization       =    -0.03 Bohr mag/cell
     absolute magnetization    =     0.39 Bohr mag/cell

     iteration #  3     ecut=   120.00 Ry     beta= 0.70
     Davidson diagonalization with overlap
     ethr =  1.00E-02,  avg # of iterations =  2.0

     negative rho (up, down):  1.006E+00 1.002E+00

     total cpu time spent up to now is       79.8 secs

     total energy              =   -2942.66421566 Ry
     estimated scf accuracy    <      12.98843247 Ry

     total magnetization       =    -0.03 Bohr mag/cell
     absolute magnetization    =     0.51 Bohr mag/cell

     iteration #  4     ecut=   120.00 Ry     beta= 0.70
     Davidson diagonalization with overlap
     ethr =  4.69E-03,  avg # of iterations =  3.5

     negative rho (up, down):  1.014E+00 1.006E+00

     total cpu time spent up to now is      117.8 secs

     total energy              =   -2942.93108067 Ry
     estimated scf accuracy    <       3.08770765 Ry

     total magnetization       =    -0.06 Bohr mag/cell
     absolute magnetization    =     0.51 Bohr mag/cell

     iteration #  5     ecut=   120.00 Ry     beta= 0.70
     Davidson diagonalization with overlap
     ethr =  1.11E-03,  avg # of iterations =  8.0

     negative rho (up, down):  9.875E-01 9.841E-01

     total cpu time spent up to now is      156.2 secs

     total energy              =   -2943.08952350 Ry
     estimated scf accuracy    <       1.61326809 Ry

     total magnetization       =    -0.06 Bohr mag/cell
     absolute magnetization    =     0.28 Bohr mag/cell

     iteration #  6     ecut=   120.00 Ry     beta= 0.70
     Davidson diagonalization with overlap
     ethr =  5.82E-04,  avg # of iterations =  2.0

     negative rho (up, down):  9.738E-01 9.726E-01

     total cpu time spent up to now is      173.8 secs

     total energy              =   -2943.12511378 Ry
     estimated scf accuracy    <       1.05852241 Ry

     total magnetization       =    -0.04 Bohr mag/cell
     absolute magnetization    =     0.20 Bohr mag/cell

     iteration #  7     ecut=   120.00 Ry     beta= 0.70
     Davidson diagonalization with overlap
     ethr =  3.82E-04,  avg # of iterations =  2.0

     negative rho (up, down):  9.451E-01 9.451E-01

     total cpu time spent up to now is      190.6 secs

     total energy              =   -2943.07664942 Ry
     estimated scf accuracy    <       0.37585382 Ry

     total magnetization       =    -0.04 Bohr mag/cell
     absolute magnetization    =     0.17 Bohr mag/cell

     iteration #  8     ecut=   120.00 Ry     beta= 0.70
     Davidson diagonalization with overlap
     ethr =  1.36E-04,  avg # of iterations =  9.5

     negative rho (up, down):  9.210E-01 9.218E-01

     total cpu time spent up to now is      209.9 secs

     total energy              =   -2943.07544655 Ry
     estimated scf accuracy    <       0.23112636 Ry

     total magnetization       =    -0.04 Bohr mag/cell
     absolute magnetization    =     0.13 Bohr mag/cell

     iteration #  9     ecut=   120.00 Ry     beta= 0.70
     Davidson diagonalization with overlap
     ethr =  8.34E-05,  avg # of iterations =  2.0

     negative rho (up, down):  9.082E-01 9.084E-01

     total cpu time spent up to now is      227.4 secs

     total energy              =   -2943.07237739 Ry
     estimated scf accuracy    <       0.06245803 Ry

     total magnetization       =    -0.03 Bohr mag/cell
     absolute magnetization    =     0.10 Bohr mag/cell

     iteration # 10     ecut=   120.00 Ry     beta= 0.70
     Davidson diagonalization with overlap
     ethr =  2.25E-05,  avg # of iterations = 13.5

     negative rho (up, down):  9.083E-01 9.083E-01

     total cpu time spent up to now is      272.8 secs

     total energy              =   -2943.07621196 Ry
     estimated scf accuracy    <       0.04545605 Ry

     total magnetization       =    -0.03 Bohr mag/cell
     absolute magnetization    =     0.08 Bohr mag/cell

     iteration # 11     ecut=   120.00 Ry     beta= 0.70
     Davidson diagonalization with overlap
     ethr =  1.64E-05,  avg # of iterations =  2.0

     negative rho (up, down):  9.090E-01 9.090E-01

     total cpu time spent up to now is      308.8 secs

     total energy              =   -2943.08034421 Ry
     estimated scf accuracy    <       0.00897893 Ry

     total magnetization       =    -0.02 Bohr mag/cell
     absolute magnetization    =     0.07 Bohr mag/cell

     iteration # 12     ecut=   120.00 Ry     beta= 0.70
     Davidson diagonalization with overlap
     ethr =  3.24E-06,  avg # of iterations =  5.5

     negative rho (up, down):  9.091E-01 9.091E-01

     total cpu time spent up to now is      329.3 secs

     total energy              =   -2943.08313122 Ry
     estimated scf accuracy    <       0.00240472 Ry

     total magnetization       =    -0.02 Bohr mag/cell
     absolute magnetization    =     0.06 Bohr mag/cell

     iteration # 13     ecut=   120.00 Ry     beta= 0.70
     Davidson diagonalization with overlap
     ethr =  8.68E-07,  avg # of iterations =  3.0

     negative rho (up, down):  9.089E-01 9.089E-01

     Magnetic moment per site  (integrated on atomic sphere of radius R)
     atom   1 (R=0.112)  charge=  9.4634   -0.0002
     atom   2 (R=0.112)  charge=  9.0589    0.0002
     atom   3 (R=0.112)  charge=  9.0576    0.0000
     atom   4 (R=0.112)  charge=  9.0586    0.0001
     atom   5 (R=0.112)  charge=  9.0618    0.0001
     atom   6 (R=0.110)  charge= 10.3494   -0.0002
     atom   7 (R=0.110)  charge= 10.3534   -0.0000
     atom   8 (R=0.088)  charge=  8.1279   -0.0001
     atom   9 (R=0.088)  charge=  8.1250    0.0004
     atom  10 (R=0.088)  charge=  8.1063   -0.0003
     atom  11 (R=0.088)  charge=  8.1046    0.0005
     atom  12 (R=0.088)  charge=  8.1070   -0.0022
     atom  13 (R=0.088)  charge=  8.1054   -0.0002
     atom  14 (R=0.088)  charge=  8.1066   -0.0009
     atom  15 (R=0.088)  charge=  8.1038    0.0002
     atom  16 (R=0.088)  charge=  8.1055   -0.0013
     atom  17 (R=0.088)  charge=  8.1122    0.0000
     atom  18 (R=0.108)  charge=  9.2256    0.0003
     atom  19 (R=0.108)  charge=  8.8224   -0.0020
     atom  20 (R=0.108)  charge=  8.8200    0.0006
     atom  21 (R=0.108)  charge=  8.8184   -0.0013
     atom  22 (R=0.108)  charge=  8.8154    0.0003
     atom  23 (R=0.088)  charge=  0.9992   -0.0001

     total cpu time spent up to now is      347.4 secs

     End of self-consistent calculation

 ------ SPIN UP ------------


          k = 0.0000 0.0000 0.0000 ( 61588 PWs)   bands (ev):

   -60.7823 -60.7741 -60.7352 -60.7296 -60.6972 -60.6958 -60.6535 -60.6493
   -60.5107 -60.4540 -54.3909 -54.3423 -54.2606 -54.2141 -52.6909 -46.2875
   -46.2517 -41.6419 -41.6111 -41.5570 -41.5094 -39.7927 -27.7845 -27.7713
   -27.6947 -27.6871 -27.5964 -27.5827 -27.4643 -27.4515 -27.3877 -27.3340
   -27.3103 -27.2669 -27.2630 -27.2400 -27.2251 -27.1716 -27.1612 -27.1455
   -27.0998 -27.0820 -27.0394 -26.9710 -26.9593 -26.9503 -26.9478 -26.9297
   -26.8899 -26.8736 -26.8527 -26.8474 -24.1733 -23.9645 -23.6594 -23.5749
   -23.3170 -23.1934 -23.1698 -23.0662 -22.9334 -22.8692 -22.8444 -22.6254
   -22.5145 -22.4571 -22.3995 -22.3721 -22.2760 -22.2398 -21.7547 -21.6903
   -21.6207 -20.1815 -19.9425 -19.8176 -19.8034 -19.6241 -19.6049 -19.5875
   -19.5801 -19.5531 -19.5431 -19.3710 -19.3526 -18.1374 -17.9355 -17.8075
     1.4018   2.6367   2.9410   3.1389   3.3206   3.4067   3.4900   3.6876
     3.7057   3.7525   3.9181   4.0270   4.2324   4.5057   4.5998   4.7014
     4.7538   4.8802   5.0543   5.1085   5.1345   5.2646   5.2929   5.3019
     5.3908   5.5554   5.5700   5.7188   5.7370   5.7530   5.7677   5.8075
     5.9443   6.0765   6.1532   6.2192   6.2741   6.3183   6.3635   6.3819
     6.4493   6.6072   6.6669   6.6952   6.9130   6.9533   7.0210   7.0694
     7.1096   7.1509   7.2697   7.3154   7.3612   7.4620   7.5212   7.5895
     7.6277   7.7153   7.8952   7.9560   8.0887   8.0935   8.1262   8.1781
     8.2474   8.3230   8.3477   8.3681   8.4979   8.5291   8.6247   8.7441
     8.8001   8.9137   8.9625   9.0669   9.2024   9.2501   9.2796

 ------ SPIN DOWN ----------


          k = 0.0000 0.0000 0.0000 ( 61588 PWs)   bands (ev):

   -60.7823 -60.7752 -60.7352 -60.7304 -60.6986 -60.6955 -60.6532 -60.6509
   -60.5108 -60.4536 -54.3908 -54.3422 -54.2605 -54.2139 -52.6910 -46.2874
   -46.2519 -41.6413 -41.6128 -41.5564 -41.5110 -39.7924 -27.7843 -27.7730
   -27.6944 -27.6889 -27.5965 -27.5841 -27.4642 -27.4534 -27.3877 -27.3345
   -27.3108 -27.2672 -27.2636 -27.2402 -27.2260 -27.1716 -27.1625 -27.1455
   -27.0995 -27.0821 -27.0389 -26.9708 -26.9593 -26.9501 -26.9492 -26.9315
   -26.8897 -26.8756 -26.8523 -26.8493 -24.1732 -23.9644 -23.6594 -23.5749
   -23.3169 -23.1932 -23.1698 -23.0661 -22.9332 -22.8691 -22.8443 -22.6253
   -22.5145 -22.4571 -22.3996 -22.3721 -22.2762 -22.2398 -21.7548 -21.6904
   -21.6208 -20.1831 -19.9414 -19.8195 -19.8046 -19.6236 -19.6042 -19.5876
   -19.5820 -19.5547 -19.5428 -19.3701 -19.3543 -18.1372 -17.9352 -17.8075
     1.4016   2.6365   2.9400   3.1387   3.3204   3.4065   3.4895   3.6874
     3.7055   3.7522   3.9170   4.0263   4.2322   4.5055   4.5996   4.7007
     4.7535   4.8798   5.0535   5.1078   5.1337   5.2641   5.2925   5.3016
     5.3903   5.5550   5.5696   5.7185   5.7367   5.7524   5.7674   5.8071
     5.9443   6.0760   6.1525   6.2186   6.2739   6.3178   6.3631   6.3815
     6.4487   6.6067   6.6664   6.6945   6.9124   6.9527   7.0192   7.0682
     7.1071   7.1500   7.2680   7.3147   7.3588   7.4594   7.5211   7.5882
     7.6270   7.7148   7.8948   7.9556   8.0873   8.0922   8.1256   8.1765
     8.2454   8.3226   8.3470   8.3665   8.4974   8.5284   8.6239   8.7435
     8.7991   8.9108   8.9621   9.0661   9.2037   9.2499   9.2802

     the Fermi energy is     7.2524 ev

!    total energy              =   -2943.08443581 Ry
     estimated scf accuracy    <       0.00045109 Ry
     smearing contrib. (-TS)   =      -0.10076514 Ry
     internal energy E=F+TS    =   -2942.98367068 Ry

     total magnetization       =    -0.02 Bohr mag/cell
     absolute magnetization    =     0.05 Bohr mag/cell

     convergence has been achieved in  13 iterations

     negative rho (up, down):  9.089E-01 9.089E-01

     Forces acting on atoms (cartesian axes, Ry/au):

     atom    1 type  1   force =    -0.00314906   -0.02413193    0.00380262
     atom    2 type  1   force =    -0.11399760   -0.01543164   -0.00200110
     atom    3 type  1   force =    -0.11170199    0.01354257    0.00363263
     atom    4 type  1   force =     0.11226476   -0.01750234   -0.00699009
     atom    5 type  1   force =     0.11641683    0.01373396    0.00278418
     atom    6 type  2   force =    -0.01087036   -0.02025357    0.00387754
     atom    7 type  2   force =    -0.02479930    0.01073683   -0.01198982
     atom    8 type  3   force =    -0.11088122    0.00443638   -0.00271641
     atom    9 type  3   force =     0.13993874    0.00223289    0.01323656
     atom   10 type  3   force =    -0.02078556   -0.03098351   -0.05899614
     atom   11 type  3   force =    -0.02120718   -0.03441182    0.05693397
     atom   12 type  3   force =    -0.02061011    0.03587128   -0.05518935
     atom   13 type  3   force =    -0.01251340    0.03012452    0.06230936
     atom   14 type  3   force =     0.02361660   -0.02860871   -0.05710371
     atom   15 type  3   force =     0.01863524   -0.03861265    0.05605121
     atom   16 type  3   force =     0.02098717    0.03557839   -0.05056778
     atom   17 type  3   force =     0.01184280    0.04165142    0.05987087
     atom   18 type  4   force =    -0.00158403    0.02728938   -0.00832756
     atom   19 type  4   force =    -0.12988742   -0.00498722   -0.11669544
     atom   20 type  4   force =    -0.13201954    0.00645413    0.11406693
     atom   21 type  4   force =     0.12801696   -0.00782325   -0.11604550
     atom   22 type  4   force =     0.15966105    0.00740691    0.09770310
     atom   23 type  5   force =    -0.01737338   -0.00631200    0.01235391
     The non-local contrib.  to forces
     atom    1 type  1   force =     0.00052453   -0.01311094    0.03029017
     atom    2 type  1   force =    -0.24525074   -0.16412674    0.01453095
     atom    3 type  1   force =    -0.23921942    0.15736852   -0.02117936
     atom    4 type  1   force =     0.24805401   -0.16332412    0.02891467
     atom    5 type  1   force =     0.26316657    0.13773624    0.00234497
     atom    6 type  2   force =     0.00845033   -0.05390192   -0.06169472
     atom    7 type  2   force =    -0.01911444    0.06729737    0.05777912
     atom    8 type  3   force =    -0.26399094    0.00465284    0.00279181
     atom    9 type  3   force =     0.16916456   -0.01898465   -0.03203452
     atom   10 type  3   force =    -0.21288994    0.00526588   -0.20541040
     atom   11 type  3   force =    -0.21479502    0.00598650    0.19648954
     atom   12 type  3   force =    -0.20752899   -0.02129820   -0.17554823
     atom   13 type  3   force =    -0.20847885   -0.00552052    0.20318532
     atom   14 type  3   force =     0.21158496    0.00599503   -0.22006638
     atom   15 type  3   force =     0.22335452    0.00355220    0.18175516
     atom   16 type  3   force =     0.19824091   -0.01809938   -0.18734106
     atom   17 type  3   force =     0.24644031   -0.02776126    0.16122107
     atom   18 type  4   force =    -0.00180118    0.05670551   -0.06029772
     atom   19 type  4   force =     0.05959830    0.00813181    0.07435092
     atom   20 type  4   force =     0.05085257   -0.02092652   -0.06044222
     atom   21 type  4   force =    -0.05440589    0.01574498    0.07383999
     atom   22 type  4   force =    -0.05568837   -0.00737111   -0.08588080
     atom   23 type  5   force =    -0.03363912   -0.01506578   -0.01264543
     The ionic contribution  to forces
     atom    1 type  1   force =    -0.30315204   -4.79638449   13.99192255
     atom    2 type  1   force =   -39.68719161   -6.14799732    0.72090266
     atom    3 type  1   force =   -39.68009938    6.19197707   -0.79161613
     atom    4 type  1   force =    39.52470018   -6.23636184    0.65522475
     atom    5 type  1   force =    39.30324927    6.56696860   -0.99866768
     atom    6 type  2   force =    -0.14100451   -3.62705554  -14.01181334
     atom    7 type  2   force =    -0.63372418    3.75156942   13.96173531
     atom    8 type  3   force =   -52.15448387    0.01814606   -0.17867347
     atom    9 type  3   force =    50.83824336   -0.53978381   -1.15351102
     atom   10 type  3   force =   -36.05518784   -2.09688425  -23.05873641
     atom   11 type  3   force =   -35.14645821   -0.86806142   22.10373900
     atom   12 type  3   force =   -35.24392079    0.82293317  -22.12144405
     atom   13 type  3   force =   -36.06674687    2.25507536   23.10735078
     atom   14 type  3   force =    35.98409371   -2.11243566  -23.08821578
     atom   15 type  3   force =    34.98759718   -0.94300173   22.18576009
     atom   16 type  3   force =    35.14980802    0.86356979  -22.17469957
     atom   17 type  3   force =    35.74045279    2.53210611   23.33822793
     atom   18 type  4   force =    -0.19809314    4.39522861  -14.03478180
     atom   19 type  4   force =   -35.89931706    0.93820539  -25.52633815
     atom   20 type  4   force =   -35.92627221   -0.99508434   25.58213524
     atom   21 type  4   force =    35.78877086    0.91616799  -25.60966581
     atom   22 type  4   force =    35.24450258   -1.24465922   26.25538955
     atom   23 type  5   force =     4.57423375    0.35576205    0.84577535
     The local contribution  to forces
     atom    1 type  1   force =     0.29976633    4.78397778  -14.02068988
     atom    2 type  1   force =    39.84246905    6.29477778   -0.73551768
     atom    3 type  1   force =    39.83110703   -6.33245436    0.82001107
     atom    4 type  1   force =   -39.68403270    6.38160921   -0.69487705
     atom    5 type  1   force =   -39.47232869   -6.68972303    0.99895263
     atom    6 type  2   force =     0.12526796    3.65642178   14.07828300
     atom    7 type  2   force =     0.63090261   -3.80520116  -14.03242095
     atom    8 type  3   force =    52.34397557   -0.02093532    0.17284322
     atom    9 type  3   force =   -50.88726950    0.56391270    1.20617939
     atom   10 type  3   force =    36.27213543    2.05687233   23.22488148
     atom   11 type  3   force =    35.36856199    0.82102272  -22.26613307
     atom   12 type  3   force =    35.45493933   -0.75713197   22.26014643
     atom   13 type  3   force =    36.28950175   -2.20925933  -23.26741659
     atom   14 type  3   force =   -36.19414486    2.07022484   23.27207514
     atom   15 type  3   force =   -35.22307361    0.89238044  -22.33003664
     atom   16 type  3   force =   -35.34877951   -0.79687678   22.33238196
     atom   17 type  3   force =   -36.00328868   -2.45451862  -23.45666450
     atom   18 type  4   force =     0.20204025   -4.42358070   14.08879296
     atom   19 type  4   force =    35.71717197   -0.95436042   25.34929882
     atom   20 type  4   force =    35.75258983    1.01921109  -25.41982798
     atom   21 type  4   force =   -35.61249745   -0.94261755   25.43588834
     atom   22 type  4   force =   -35.03807883    1.25796578  -26.08882067
     atom   23 type  5   force =    -4.55830617   -0.34731991   -0.82120906
     The core correction contribution to forces
     atom    1 type  1   force =     0.00158187    0.00071722   -0.00008038
     atom    2 type  1   force =    -0.01214027   -0.00176976   -0.00012498
     atom    3 type  1   force =    -0.01272234    0.00244512   -0.00166832
     atom    4 type  1   force =     0.01313920   -0.00205378    0.00361455
     atom    5 type  1   force =     0.01394064    0.00245230    0.00113548
     atom    6 type  2   force =    -0.00048969    0.00247018    0.00252114
     atom    7 type  2   force =     0.00108444   -0.00343663   -0.00219934
     atom    8 type  3   force =    -0.03242534    0.00091202    0.00030583
     atom    9 type  3   force =     0.01918976   -0.00400687   -0.00626832
     atom   10 type  3   force =    -0.02184093    0.00955366   -0.01610458
     atom   11 type  3   force =    -0.02394738    0.00893338    0.01811054
     atom   12 type  3   force =    -0.02172687   -0.00999292   -0.01533160
     atom   13 type  3   force =    -0.02247307   -0.00942741    0.01621461
     atom   14 type  3   force =     0.02184379    0.00961136   -0.01649085
     atom   15 type  3   force =     0.02458298    0.00969996    0.01407363
     atom   16 type  3   force =     0.02222338   -0.01051133   -0.01627273
     atom   17 type  3   force =     0.02475554   -0.00888461    0.01296235
     atom   18 type  4   force =     0.00011728   -0.00288226    0.00289364
     atom   19 type  4   force =    -0.00968529    0.00007669   -0.00964059
     atom   20 type  4   force =    -0.00924729    0.00077721    0.00889989
     atom   21 type  4   force =     0.00938236   -0.00031205   -0.00971500
     atom   22 type  4   force =     0.00951488    0.00025224    0.01010915
     atom   23 type  5   force =     0.00000000    0.00000000    0.00000000
     The Hubbard contrib.    to forces
     atom    1 type  1   force =     0.00000000    0.00000000    0.00000000
     atom    2 type  1   force =     0.00000000    0.00000000    0.00000000
     atom    3 type  1   force =     0.00000000    0.00000000    0.00000000
     atom    4 type  1   force =     0.00000000    0.00000000    0.00000000
     atom    5 type  1   force =     0.00000000    0.00000000    0.00000000
     atom    6 type  2   force =     0.00000000    0.00000000    0.00000000
     atom    7 type  2   force =     0.00000000    0.00000000    0.00000000
     atom    8 type  3   force =     0.00000000    0.00000000    0.00000000
     atom    9 type  3   force =     0.00000000    0.00000000    0.00000000
     atom   10 type  3   force =     0.00000000    0.00000000    0.00000000
     atom   11 type  3   force =     0.00000000    0.00000000    0.00000000
     atom   12 type  3   force =     0.00000000    0.00000000    0.00000000
     atom   13 type  3   force =     0.00000000    0.00000000    0.00000000
     atom   14 type  3   force =     0.00000000    0.00000000    0.00000000
     atom   15 type  3   force =     0.00000000    0.00000000    0.00000000
     atom   16 type  3   force =     0.00000000    0.00000000    0.00000000
     atom   17 type  3   force =     0.00000000    0.00000000    0.00000000
     atom   18 type  4   force =     0.00000000    0.00000000    0.00000000
     atom   19 type  4   force =     0.00000000    0.00000000    0.00000000
     atom   20 type  4   force =     0.00000000    0.00000000    0.00000000
     atom   21 type  4   force =     0.00000000    0.00000000    0.00000000
     atom   22 type  4   force =     0.00000000    0.00000000    0.00000000
     atom   23 type  5   force =     0.00000000    0.00000000    0.00000000
     The SCF correction term to forces
     atom    1 type  1   force =    -0.00165884    0.00068068    0.00237603
     atom    2 type  1   force =    -0.01167311    0.00369659   -0.00177617
     atom    3 type  1   force =    -0.01055696   -0.00578159   -0.00189875
     atom    4 type  1   force =     0.01061498    0.00264037    0.00014887
     atom    5 type  1   force =     0.00859995   -0.00368797   -0.00096535
     atom    6 type  2   force =    -0.00288354    0.00182412   -0.00340267
     atom    7 type  2   force =    -0.00373681    0.00052000    0.00313192
     atom    8 type  3   force =    -0.00374573    0.00167297    0.00003207
     atom    9 type  3   force =     0.00082148    0.00110770   -0.00111310
     atom   10 type  3   force =    -0.00279137   -0.00577893   -0.00361035
     atom   11 type  3   force =    -0.00435765   -0.00228082    0.00474383
     atom   12 type  3   force =    -0.00216188    0.00137339   -0.00299602
     atom   13 type  3   force =    -0.00410544   -0.00073140    0.00299112
     atom   14 type  3   force =     0.00044990   -0.00199209   -0.00438997
     atom   15 type  3   force =     0.00638509   -0.00123133    0.00451484
     atom   16 type  3   force =    -0.00029473   -0.00249172   -0.00462051
     atom   17 type  3   force =     0.00369376    0.00072200    0.00413989
     atom   18 type  4   force =    -0.00363631    0.00183041   -0.00491876
     atom   19 type  4   force =     0.00255557    0.00297150   -0.00435056
     atom   20 type  4   force =     0.00026847    0.00248887    0.00331787
     atom   21 type  4   force =    -0.00302201    0.00320556   -0.00637714
     atom   22 type  4   force =    -0.00037830    0.00123141    0.00692175
     atom   23 type  5   force =     0.00054907    0.00032383    0.00044892

     Total force =     0.502827     Total SCF correction =     0.032806


     Computing stress (Cartesian axis) and pressure


     negative rho (up, down):  9.089E-01 9.089E-01
          total   stress  (Ry/bohr**3)                   (kbar)     P=       82.68
   0.00066050  -0.00000547   0.00001103           97.16       -0.80        1.62
  -0.00000547   0.00065729  -0.00000497           -0.80       96.69       -0.73
   0.00001103  -0.00000497   0.00036826            1.62       -0.73       54.17


     Molecular Dynamics Calculation

     Starting temperature  =   300.00 K

     temperature is set once at start

     mass Hf               =   178.49
     mass Nb               =    92.91
     mass Ta               =   180.95
     mass Zr               =    91.22
     mass H                =     2.01
     Time step             =     4.20 a.u.,  0.2032 femto-seconds

     Entering Dynamics:    iteration =     1
                           time      =   0.0002 pico-seconds


ATOMIC_POSITIONS (angstrom)
Hf            2.6700887519        2.8271667795        6.6040413063
Hf            1.2530762949        1.2863281813        5.0585431473
Hf            1.2555725792        7.3898491260        5.0881448502
Hf            4.0871013399        1.2863281219        5.0585430041
Hf            4.0846052406        7.3898491315        5.0881448259
Nb            2.6700882431        2.7969739318        3.5156604090
Nb            2.6700874754        5.8764237107        6.6350742609
Ta            1.2094588033        4.3409724198        5.0712027340
Ta            4.1307197035        4.3409723574        5.0712031855
Ta            1.3073409811        1.3141661552        2.0588544191
Ta            1.3028765993        1.3084346048        8.0946577922
Ta            1.3040979241        7.3758715819        2.0463125965
Ta            1.3077993295        7.3651282436        8.0860809627
Ta            4.0328367835        1.3141662224        2.0588544727
Ta            4.0373010124        1.3084344859        8.0946577672
Ta            4.0360797711        7.3758715736        2.0463127273
Ta            4.0323783360        7.3651285698        8.0860808937
Zr            2.6700887533        5.8663318179        3.5274604415
Zr            1.2439162131        4.3221221272        2.0000704279
Zr            1.2404668871        4.3541680894        8.1498389310
Zr            4.0962613664        4.3221219680        2.0000704644
Zr            4.0997123491        4.3541681429        8.1498380124
H             5.3972192895        4.9733022039        6.1691478578


     kinetic energy (Ekin) =           8.09831239 Ry
     temperature           =       38746.13329364 K 
     Ekin + Etot (const)   =       -2934.98612342 Ry
     Ions kinetic stress =          143.03 (kbar)
                                    214.53         107.27         185.80
                                    107.27          53.63          92.90
                                    185.80          92.90         160.91



     Linear momentum :   -0.0000000000   -0.0000000000    0.0000000000

     File outdir/pwscf.msd.dat deleted, as requested

     Writing config-only to output data dir outdir/pwscf.save/
     NEW-OLD atomic charge density approx. for the potential

     Check: negative core charge=   -0.000002

     negative rho (up, down):  9.088E-01 9.088E-01
     Generating pointlists ...
     new r_m :   0.0791 (alat units)  1.3965 (a.u.) for type    3
     new r_m :   0.0791 (alat units)  1.3965 (a.u.) for type    5

     total cpu time spent up to now is      372.7 secs

     Self-consistent Calculation

     iteration #  1     ecut=   120.00 Ry     beta= 0.70
     Davidson diagonalization with overlap
     ethr =  1.00E-06,  avg # of iterations =  7.0

     negative rho (up, down):  9.089E-01 9.089E-01

     total cpu time spent up to now is      421.5 secs

     total energy              =   -2943.07647989 Ry
     estimated scf accuracy    <       0.01474615 Ry

     total magnetization       =    -0.02 Bohr mag/cell
     absolute magnetization    =     0.04 Bohr mag/cell

     iteration #  2     ecut=   120.00 Ry     beta= 0.70
     Davidson diagonalization with overlap
     ethr =  5.32E-06,  avg # of iterations =  2.0

     negative rho (up, down):  9.088E-01 9.088E-01

     total cpu time spent up to now is      459.4 secs

     total energy              =   -2943.07754187 Ry
     estimated scf accuracy    <       0.00213080 Ry

     total magnetization       =    -0.02 Bohr mag/cell
     absolute magnetization    =     0.04 Bohr mag/cell

     iteration #  3     ecut=   120.00 Ry     beta= 0.70
     Davidson diagonalization with overlap
     ethr =  7.69E-07,  avg # of iterations =  2.0

     negative rho (up, down):  9.089E-01 9.089E-01

     Magnetic moment per site  (integrated on atomic sphere of radius R)
     atom   1 (R=0.112)  charge=  9.4638   -0.0001
     atom   2 (R=0.112)  charge=  9.0573    0.0000
     atom   3 (R=0.112)  charge=  9.0572   -0.0001
     atom   4 (R=0.112)  charge=  9.0585   -0.0000
     atom   5 (R=0.112)  charge=  9.0598   -0.0001
     atom   6 (R=0.110)  charge= 10.3503   -0.0001
     atom   7 (R=0.110)  charge= 10.3531   -0.0001
     atom   8 (R=0.079)  charge=  7.1168   -0.0000
     atom   9 (R=0.079)  charge=  7.1229    0.0001
     atom  10 (R=0.079)  charge=  7.0999   -0.0002
     atom  11 (R=0.079)  charge=  7.0974    0.0002
     atom  12 (R=0.079)  charge=  7.1031   -0.0012
     atom  13 (R=0.079)  charge=  7.0985   -0.0001
     atom  14 (R=0.079)  charge=  7.0990   -0.0005
     atom  15 (R=0.079)  charge=  7.0986    0.0001
     atom  16 (R=0.079)  charge=  7.1002   -0.0008
     atom  17 (R=0.079)  charge=  7.1037   -0.0000
     atom  18 (R=0.108)  charge=  9.2273    0.0001
     atom  19 (R=0.108)  charge=  8.8209   -0.0015
     atom  20 (R=0.108)  charge=  8.8166    0.0004
     atom  21 (R=0.108)  charge=  8.8194   -0.0011
     atom  22 (R=0.108)  charge=  8.8136    0.0003
     atom  23 (R=0.079)  charge=  0.9457   -0.0000

     total cpu time spent up to now is      483.0 secs

     End of self-consistent calculation

 ------ SPIN UP ------------


          k = 0.0000 0.0000 0.0000 ( 61588 PWs)   bands (ev):

   -60.7633 -60.7598 -60.7172 -60.7150 -60.6857 -60.6762 -60.6408 -60.6344
   -60.4843 -60.3163 -54.3760 -54.3296 -54.2473 -54.2019 -52.6808 -46.2721
   -46.2441 -41.6313 -41.5978 -41.5342 -41.4949 -39.7879 -27.7659 -27.7583
   -27.6759 -27.6755 -27.5775 -27.5679 -27.4484 -27.4406 -27.3494 -27.3173
   -27.2826 -27.2503 -27.2474 -27.2205 -27.2099 -27.1536 -27.1484 -27.1162
   -27.0527 -27.0047 -26.9514 -26.9392 -26.9325 -26.9315 -26.9150 -26.8871
   -26.8711 -26.8622 -26.8373 -26.8344 -24.1588 -23.9490 -23.6473 -23.5617
   -23.3045 -23.1781 -23.1566 -23.0526 -22.9197 -22.8568 -22.8300 -22.6126
   -22.5025 -22.4485 -22.3871 -22.3566 -22.2646 -22.2263 -21.7429 -21.6771
   -21.6105 -20.1680 -19.9294 -19.8059 -19.7870 -19.6191 -19.5850 -19.5728
   -19.5634 -19.5377 -19.5203 -19.3542 -19.3381 -18.1332 -17.9278 -17.8012
     1.3576   2.4423   2.9501   3.1550   3.3279   3.4341   3.5007   3.7042
     3.7263   3.7648   3.9330   4.0382   4.2543   4.5188   4.6202   4.7133
     4.7618   4.8967   5.0665   5.1199   5.1547   5.2784   5.3063   5.3147
     5.4045   5.5709   5.5907   5.7384   5.7510   5.7702   5.7841   5.8233
     5.9574   6.0908   6.1684   6.2361   6.2871   6.3347   6.3781   6.3910
     6.4622   6.6273   6.6818   6.7087   6.9288   6.9760   7.0321   7.0796
     7.1180   7.1630   7.2800   7.3246   7.3670   7.4705   7.5383   7.5881
     7.6346   7.7144   7.9085   7.9722   8.0903   8.1062   8.1373   8.1856
     8.2624   8.3418   8.3625   8.3806   8.5129   8.5491   8.6355   8.7539
     8.8185   8.9180   8.9779   9.0778   9.2150   9.2776   9.3003

 ------ SPIN DOWN ----------


          k = 0.0000 0.0000 0.0000 ( 61588 PWs)   bands (ev):

   -60.7634 -60.7606 -60.7172 -60.7157 -60.6868 -60.6760 -60.6419 -60.6342
   -60.4843 -60.3162 -54.3760 -54.3296 -54.2473 -54.2019 -52.6809 -46.2722
   -46.2442 -41.6310 -41.5991 -41.5339 -41.4962 -39.7878 -27.7660 -27.7595
   -27.6771 -27.6756 -27.5776 -27.5689 -27.4491 -27.4413 -27.3496 -27.3178
   -27.2829 -27.2508 -27.2477 -27.2211 -27.2103 -27.1546 -27.1486 -27.1162
   -27.0528 -27.0046 -26.9514 -26.9401 -26.9327 -26.9317 -26.9161 -26.8871
   -26.8711 -26.8636 -26.8386 -26.8343 -24.1588 -23.9490 -23.6474 -23.5617
   -23.3045 -23.1781 -23.1566 -23.0527 -22.9197 -22.8568 -22.8300 -22.6125
   -22.5026 -22.4485 -22.3871 -22.3567 -22.2647 -22.2264 -21.7429 -21.6772
   -21.6106 -20.1693 -19.9287 -19.8073 -19.7880 -19.6188 -19.5848 -19.5736
   -19.5638 -19.5390 -19.5202 -19.3537 -19.3397 -18.1331 -17.9278 -17.8012
     1.3574   2.4421   2.9491   3.1548   3.3277   3.4338   3.5001   3.7040
     3.7260   3.7644   3.9321   4.0376   4.2540   4.5185   4.6199   4.7127
     4.7614   4.8962   5.0657   5.1193   5.1538   5.2780   5.3059   5.3143
     5.4038   5.5706   5.5903   5.7381   5.7504   5.7698   5.7838   5.8229
     5.9572   6.0902   6.1678   6.2356   6.2868   6.3341   6.3777   6.3906
     6.4617   6.6268   6.6814   6.7081   6.9282   6.9754   7.0305   7.0782
     7.1157   7.1620   7.2784   7.3237   7.3649   7.4682   7.5378   7.5869
     7.6337   7.7138   7.9080   7.9717   8.0895   8.1049   8.1368   8.1842
     8.2606   8.3415   8.3616   8.3792   8.5122   8.5484   8.6348   8.7532
     8.8178   8.9163   8.9773   9.0773   9.2152   9.2768   9.3002

     the Fermi energy is     7.2626 ev

!    total energy              =   -2943.07749657 Ry
     estimated scf accuracy    <       0.00049192 Ry
     smearing contrib. (-TS)   =      -0.10185314 Ry
     internal energy E=F+TS    =   -2942.97564343 Ry

     total magnetization       =    -0.02 Bohr mag/cell
     absolute magnetization    =     0.03 Bohr mag/cell

     convergence has been achieved in   3 iterations

     negative rho (up, down):  9.089E-01 9.089E-01

     Forces acting on atoms (cartesian axes, Ry/au):

     atom    1 type  1   force =    -0.00200103   -0.02512474    0.00673373
     atom    2 type  1   force =    -0.12008276   -0.01549924   -0.00435213
     atom    3 type  1   force =    -0.11760709    0.01193041   -0.00102178
     atom    4 type  1   force =     0.11750291   -0.01731180   -0.00714905
     atom    5 type  1   force =     0.12103869    0.01298512    0.00154832
     atom    6 type  2   force =    -0.01190095   -0.02219287    0.00213048
     atom    7 type  2   force =    -0.02485377    0.01171965   -0.01001996
     atom    8 type  3   force =    -0.11512723    0.00612972   -0.00132984
     atom    9 type  3   force =     0.11138564   -0.01589972   -0.01754009
     atom   10 type  3   force =    -0.02160321   -0.03268349   -0.05826051
     atom   11 type  3   force =    -0.02324021   -0.03455977    0.05876062
     atom   12 type  3   force =    -0.02044956    0.03526646   -0.05537408
     atom   13 type  3   force =    -0.01283093    0.02949118    0.06465592
     atom   14 type  3   force =     0.02392750   -0.02884053   -0.05748484
     atom   15 type  3   force =     0.02156561   -0.03939367    0.05782518
     atom   16 type  3   force =     0.02036942    0.03371448   -0.05153694
     atom   17 type  3   force =     0.01229708    0.04193538    0.06206630
     atom   18 type  4   force =    -0.00337290    0.03156310   -0.01267491
     atom   19 type  4   force =    -0.12946200   -0.00267213   -0.11699282
     atom   20 type  4   force =    -0.13152164    0.00652179    0.11516669
     atom   21 type  4   force =     0.12704713   -0.00595589   -0.11910577
     atom   22 type  4   force =     0.15244006    0.00648744    0.10073430
     atom   23 type  5   force =     0.02647923    0.01238913    0.04322118
     The non-local contrib.  to forces
     atom    1 type  1   force =     0.00011504   -0.01462161    0.03194809
     atom    2 type  1   force =    -0.24835457   -0.16302557    0.01364513
     atom    3 type  1   force =    -0.24287098    0.15539959   -0.02352972
     atom    4 type  1   force =     0.25046104   -0.16291524    0.02856733
     atom    5 type  1   force =     0.26369097    0.13795255   -0.00177907
     atom    6 type  2   force =     0.01050529   -0.05663916   -0.06340887
     atom    7 type  2   force =    -0.01507777    0.06871599    0.05940608
     atom    8 type  3   force =    -0.26242344    0.00474030    0.00119370
     atom    9 type  3   force =     0.13721441   -0.03321704   -0.05903788
     atom   10 type  3   force =    -0.21194452    0.00231376   -0.20705098
     atom   11 type  3   force =    -0.21496885    0.00739361    0.19680056
     atom   12 type  3   force =    -0.20449976   -0.02146544   -0.17645689
     atom   13 type  3   force =    -0.20551667   -0.00770377    0.20431371
     atom   14 type  3   force =     0.20934504    0.00546323   -0.22166168
     atom   15 type  3   force =     0.22255677    0.00225171    0.18295461
     atom   16 type  3   force =     0.19466026   -0.01971227   -0.18877080
     atom   17 type  3   force =     0.23841252   -0.02271526    0.16973417
     atom   18 type  4   force =    -0.00435104    0.05940662   -0.06340093
     atom   19 type  4   force =     0.06057340    0.01082099    0.07376369
     atom   20 type  4   force =     0.05186392   -0.01964933   -0.06007387
     atom   21 type  4   force =    -0.05551107    0.01704057    0.07210469
     atom   22 type  4   force =    -0.05735394   -0.00855068   -0.07924467
     atom   23 type  5   force =    -0.04404926   -0.02129267   -0.02429450
     The ionic contribution  to forces
     atom    1 type  1   force =    -0.33876939   -4.82511429   14.01651708
     atom    2 type  1   force =   -39.70074236   -6.15442735    0.72436761
     atom    3 type  1   force =   -39.69993242    6.19665096   -0.78590443
     atom    4 type  1   force =    39.52477560   -6.26637524    0.65713765
     atom    5 type  1   force =    39.31489634    6.61289903   -0.98571387
     atom    6 type  2   force =    -0.16276555   -3.64373541  -14.03224573
     atom    7 type  2   force =    -0.68389803    3.79278167   14.00732975
     atom    8 type  3   force =   -52.19651015    0.01958507   -0.17465193
     atom    9 type  3   force =    50.51561235   -0.70054817   -1.43112742
     atom   10 type  3   force =   -36.06153109   -2.09966496  -23.06547472
     atom   11 type  3   force =   -35.15698088   -0.87198771   22.10844132
     atom   12 type  3   force =   -35.25158990    0.82454039  -22.12896155
     atom   13 type  3   force =   -36.08017515    2.25412022   23.11141515
     atom   14 type  3   force =    35.98520474   -2.11915378  -23.10162808
     atom   15 type  3   force =    34.99635910   -0.95567140   22.19874901
     atom   16 type  3   force =    35.15221590    0.86998708  -22.19179927
     atom   17 type  3   force =    35.77904263    2.51735637   23.34122757
     atom   18 type  4   force =    -0.22574799    4.41143731  -14.06037991
     atom   19 type  4   force =   -35.90922293    0.93910496  -25.53641184
     atom   20 type  4   force =   -35.94903076   -0.99104259   25.59024739
     atom   21 type  4   force =    35.78807877    0.91595862  -25.64217269
     atom   22 type  4   force =    35.30433125   -1.21456721   26.31098175
     atom   23 type  5   force =     5.05637991    0.48786643    1.07005713
     The local contribution  to forces
     atom    1 type  1   force =     0.33700899    4.80861566  -14.04044802
     atom    2 type  1   force =    39.83297062    6.30045129   -0.74903812
     atom    3 type  1   force =    39.82946450   -6.34120094    0.79815445
     atom    4 type  1   force =   -39.66609522    6.41186088   -0.69729874
     atom    5 type  1   force =   -39.46735487   -6.73952138    0.98392219
     atom    6 type  2   force =     0.13516845    3.66758864   14.08501947
     atom    7 type  2   force =     0.67521925   -3.83775832  -14.07144358
     atom    8 type  3   force =    52.36844001   -0.01698184    0.16457093
     atom    9 type  3   force =   -50.53394933    0.73474113    1.49449539
     atom   10 type  3   force =    36.26344516    2.04138815   23.22824795
     atom   11 type  3   force =    35.36734001    0.81673593  -22.25877675
     atom   12 type  3   force =    35.44937927   -0.75792344   22.26217459
     atom   13 type  3   force =    36.29089265   -2.20664982  -23.25798637
     atom   14 type  3   force =   -36.19112930    2.06934261   23.27760385
     atom   15 type  3   force =   -35.21185421    0.89761917  -22.33190500
     atom   16 type  3   force =   -35.35306061   -0.80929897   22.33970127
     atom   17 type  3   force =   -36.02357954   -2.43885956  -23.45399644
     atom   18 type  4   force =     0.21920260   -4.42213595   14.09157781
     atom   19 type  4   force =    35.72474369   -0.94322494   25.35140191
     atom   20 type  4   force =    35.77442671    1.01882143  -25.41591183
     atom   21 type  4   force =   -35.61525604   -0.93236120   25.45372501
     atom   22 type  4   force =   -35.11324970    1.22786106  -26.12935201
     atom   23 type  5   force =    -4.98857847   -0.45500908   -1.00634627
     The core correction contribution to forces
     atom    1 type  1   force =     0.00168635    0.00047992   -0.00017912
     atom    2 type  1   force =    -0.01212244   -0.00169566   -0.00005432
     atom    3 type  1   force =    -0.01275628    0.00242027   -0.00160031
     atom    4 type  1   force =     0.01303557   -0.00210902    0.00347339
     atom    5 type  1   force =     0.01384478    0.00227336    0.00077624
     atom    6 type  2   force =    -0.00052652    0.00272655    0.00271943
     atom    7 type  2   force =     0.00087981   -0.00344603   -0.00223305
     atom    8 type  3   force =    -0.03182891    0.00086357    0.00027462
     atom    9 type  3   force =     0.01574984   -0.00523773   -0.00923683
     atom   10 type  3   force =    -0.02150242    0.00959657   -0.01598651
     atom   11 type  3   force =    -0.02421393    0.00905978    0.01823013
     atom   12 type  3   force =    -0.02150304   -0.01009762   -0.01525240
     atom   13 type  3   force =    -0.02223054   -0.00962317    0.01619937
     atom   14 type  3   force =     0.02176791    0.00930810   -0.01666003
     atom   15 type  3   force =     0.02438508    0.00970876    0.01409023
     atom   16 type  3   force =     0.02206375   -0.01033445   -0.01628857
     atom   17 type  3   force =     0.02428854   -0.00903178    0.01358115
     atom   18 type  4   force =     0.00021228   -0.00292023    0.00295277
     atom   19 type  4   force =    -0.00972005    0.00001036   -0.00969299
     atom   20 type  4   force =    -0.00930377    0.00074770    0.00894946
     atom   21 type  4   force =     0.00936727   -0.00031742   -0.00975017
     atom   22 type  4   force =     0.00968453    0.00036864    0.00977474
     atom   23 type  5   force =     0.00000000    0.00000000    0.00000000
     The Hubbard contrib.    to forces
     atom    1 type  1   force =     0.00000000    0.00000000    0.00000000
     atom    2 type  1   force =     0.00000000    0.00000000    0.00000000
     atom    3 type  1   force =     0.00000000    0.00000000    0.00000000
     atom    4 type  1   force =     0.00000000    0.00000000    0.00000000
     atom    5 type  1   force =     0.00000000    0.00000000    0.00000000
     atom    6 type  2   force =     0.00000000    0.00000000    0.00000000
     atom    7 type  2   force =     0.00000000    0.00000000    0.00000000
     atom    8 type  3   force =     0.00000000    0.00000000    0.00000000
     atom    9 type  3   force =     0.00000000    0.00000000    0.00000000
     atom   10 type  3   force =     0.00000000    0.00000000    0.00000000
     atom   11 type  3   force =     0.00000000    0.00000000    0.00000000
     atom   12 type  3   force =     0.00000000    0.00000000    0.00000000
     atom   13 type  3   force =     0.00000000    0.00000000    0.00000000
     atom   14 type  3   force =     0.00000000    0.00000000    0.00000000
     atom   15 type  3   force =     0.00000000    0.00000000    0.00000000
     atom   16 type  3   force =     0.00000000    0.00000000    0.00000000
     atom   17 type  3   force =     0.00000000    0.00000000    0.00000000
     atom   18 type  4   force =     0.00000000    0.00000000    0.00000000
     atom   19 type  4   force =     0.00000000    0.00000000    0.00000000
     atom   20 type  4   force =     0.00000000    0.00000000    0.00000000
     atom   21 type  4   force =     0.00000000    0.00000000    0.00000000
     atom   22 type  4   force =     0.00000000    0.00000000    0.00000000
     atom   23 type  5   force =     0.00000000    0.00000000    0.00000000
     The SCF correction term to forces
     atom    1 type  1   force =    -0.00220655    0.00549296   -0.00138497
     atom    2 type  1   force =     0.00800147    0.00317543    0.00644691
     atom    3 type  1   force =     0.00832355   -0.00136209    0.01157756
     atom    4 type  1   force =    -0.00483861    0.00220420    0.00069066
     atom    5 type  1   force =    -0.00420306   -0.00064107    0.00406217
     atom    6 type  2   force =     0.00555285    0.00784388    0.00976553
     atom    7 type  2   force =    -0.00214157   -0.00859629   -0.00335982
     atom    8 type  3   force =     0.00703073   -0.00210000    0.00700217
     atom    9 type  3   force =    -0.02340618   -0.01166053   -0.01291400
     atom   10 type  3   force =     0.00976512    0.01366036    0.00172307
     atom   11 type  3   force =     0.00541891    0.00421600   -0.00621531
     atom   12 type  3   force =     0.00759934    0.00018994    0.00284150
     atom   13 type  3   force =     0.00403424   -0.00067490   -0.00956660
     atom   14 type  3   force =    -0.00142541    0.00617669    0.00458044
     atom   15 type  3   force =    -0.01004566    0.00667546   -0.00634433
     atom   16 type  3   force =     0.00432560    0.00305046    0.00533976
     atom   17 type  3   force =    -0.00603160   -0.00483702   -0.00876082
     atom   18 type  4   force =     0.00714673   -0.01424727    0.01629469
     atom   19 type  4   force =     0.00399937   -0.00940612    0.00366575
     atom   20 type  4   force =     0.00035773   -0.00237804   -0.00832513
     atom   21 type  4   force =     0.00020367   -0.00629909    0.00670673
     atom   22 type  4   force =     0.00886340    0.00135300   -0.01170618
     atom   23 type  5   force =     0.00256252    0.00080183    0.00352415

     Total force =     0.504883     Total SCF correction =     0.060590
     SCF correction compared to forces is large: reduce conv_thr to get better values


     Computing stress (Cartesian axis) and pressure


     negative rho (up, down):  9.089E-01 9.089E-01
          total   stress  (Ry/bohr**3)                   (kbar)     P=       84.09
   0.00067157   0.00000199   0.00001730           98.79        0.29        2.54
   0.00000199   0.00066846   0.00000134            0.29       98.33        0.20
   0.00001730   0.00000134   0.00037478            2.54        0.20       55.13


     Entering Dynamics:    iteration =     2
                           time      =   0.0004 pico-seconds


ATOMIC_POSITIONS (angstrom)
Hf            2.6701774320        2.8272090881        6.6041187804
Hf            1.2531550193        1.2863712919        5.0586198187
Hf            1.2556515115        7.3898946417        5.0882218744
Hf            4.0872001882        1.2863710690        5.0586193720
Hf            4.0847044110        7.3898947132        5.0882219732
Nb            2.6701752173        2.7970148116        3.5157378362
Nb            2.6701722539        5.8764700371        6.6351494741
Ta            1.2095380344        4.3410173349        5.0712795605
Ta            4.1308188535        4.3410159633        5.0712795459
Ta            1.3074280554        1.3142078711        2.0589264306
Ta            1.3029635690        1.3084761175        8.0947397079
Ta            1.3041850686        7.3759190357        2.0463848791
Ta            1.3078871344        7.3651752079        8.0861633642
Ta            4.0329276914        1.3142082230        2.0589265816
Ta            4.0373916457        1.3084756061        8.0947396050
Ta            4.0361704032        7.3759189313        2.0463853579
Ta            4.0324682524        7.3651765647        8.0861630796
Zr            2.6701771710        5.8663813360        3.5275355297
Zr            1.2439832726        4.3221659898        2.0001277212
Zr            1.2405335957        4.3542136266        8.1499352424
Zr            4.0963717013        4.3221653028        2.0001275569
Zr            4.0998273111        4.3542137297        8.1499317849
H             5.2497328115        4.8995606779        6.0415908388


     kinetic energy (Ekin) =           8.08992667 Ry
     temperature           =       38706.01204768 K 
     Ekin + Etot (const)   =       -2934.98756989 Ry
     Ions kinetic stress =          142.88 (kbar)
                                    214.47         107.23         185.56
                                    107.23          53.61          92.78
                                    185.56          92.78         160.55



     Linear momentum :   -0.0000000000   -0.0000000000    0.0000000000

     Writing config-only to output data dir outdir/pwscf.save/
     NEW-OLD atomic charge density approx. for the potential

     Check: negative core charge=   -0.000002

     negative rho (up, down):  9.088E-01 9.088E-01
     Generating pointlists ...
     new r_m :   0.0699 (alat units)  1.2339 (a.u.) for type    3
     new r_m :   0.0699 (alat units)  1.2339 (a.u.) for type    5

     total cpu time spent up to now is      508.2 secs

     Self-consistent Calculation

     iteration #  1     ecut=   120.00 Ry     beta= 0.70
     Davidson diagonalization with overlap
     ethr =  1.00E-06,  avg # of iterations =  6.0

     negative rho (up, down):  9.089E-01 9.089E-01

     total cpu time spent up to now is      541.0 secs

     total energy              =   -2943.02738191 Ry
     estimated scf accuracy    <       0.07461020 Ry

     total magnetization       =    -0.02 Bohr mag/cell
     absolute magnetization    =     0.03 Bohr mag/cell

     iteration #  2     ecut=   120.00 Ry     beta= 0.70
     Davidson diagonalization with overlap
     ethr =  2.69E-05,  avg # of iterations =  2.0

     negative rho (up, down):  9.089E-01 9.089E-01

     total cpu time spent up to now is      560.0 secs

     total energy              =   -2943.03385601 Ry
     estimated scf accuracy    <       0.02478455 Ry

     total magnetization       =    -0.02 Bohr mag/cell
     absolute magnetization    =     0.03 Bohr mag/cell

     iteration #  3     ecut=   120.00 Ry     beta= 0.70
     Davidson diagonalization with overlap
     ethr =  8.95E-06,  avg # of iterations =  1.0

     negative rho (up, down):  9.088E-01 9.088E-01

     total cpu time spent up to now is      575.5 secs

     total energy              =   -2943.03540015 Ry
     estimated scf accuracy    <       0.00244974 Ry

     total magnetization       =    -0.02 Bohr mag/cell
     absolute magnetization    =     0.03 Bohr mag/cell

     iteration #  4     ecut=   120.00 Ry     beta= 0.70
     Davidson diagonalization with overlap
     ethr =  8.84E-07,  avg # of iterations =  2.0

     negative rho (up, down):  9.087E-01 9.087E-01

     Magnetic moment per site  (integrated on atomic sphere of radius R)
     atom   1 (R=0.112)  charge=  9.4644   -0.0001
     atom   2 (R=0.112)  charge=  9.0587    0.0000
     atom   3 (R=0.112)  charge=  9.0588   -0.0001
     atom   4 (R=0.112)  charge=  9.0601   -0.0000
     atom   5 (R=0.112)  charge=  9.0613   -0.0001
     atom   6 (R=0.110)  charge= 10.3498   -0.0000
     atom   7 (R=0.110)  charge= 10.3517   -0.0001
     atom   8 (R=0.070)  charge=  5.8291   -0.0000
     atom   9 (R=0.070)  charge=  5.8468    0.0000
     atom  10 (R=0.070)  charge=  5.8154   -0.0002
     atom  11 (R=0.070)  charge=  5.8136    0.0000
     atom  12 (R=0.070)  charge=  5.8128   -0.0006
     atom  13 (R=0.070)  charge=  5.8152   -0.0001
     atom  14 (R=0.070)  charge=  5.8130   -0.0002
     atom  15 (R=0.070)  charge=  5.8098    0.0000
     atom  16 (R=0.070)  charge=  5.8118   -0.0004
     atom  17 (R=0.070)  charge=  5.8125   -0.0001
     atom  18 (R=0.108)  charge=  9.2282    0.0000
     atom  19 (R=0.108)  charge=  8.8228   -0.0011
     atom  20 (R=0.108)  charge=  8.8214    0.0002
     atom  21 (R=0.108)  charge=  8.8223   -0.0008
     atom  22 (R=0.108)  charge=  8.8170    0.0002
     atom  23 (R=0.070)  charge=  0.8973   -0.0000

     total cpu time spent up to now is      593.4 secs

     End of self-consistent calculation

 ------ SPIN UP ------------


          k = 0.0000 0.0000 0.0000 ( 61588 PWs)   bands (ev):

   -60.7718 -60.7683 -60.7253 -60.7166 -60.6946 -60.6777 -60.6414 -60.6377
   -60.4850 -60.1890 -54.3800 -54.3345 -54.2516 -54.2056 -52.6763 -46.2655
   -46.2564 -41.6469 -41.6085 -41.5426 -41.5032 -39.8010 -27.7701 -27.7644
   -27.6825 -27.6777 -27.5824 -27.5760 -27.4526 -27.4455 -27.3454 -27.3247
   -27.2808 -27.2589 -27.2486 -27.2247 -27.2116 -27.1554 -27.1510 -27.1179
   -27.0529 -26.9496 -26.9464 -26.9421 -26.9333 -26.9003 -26.8775 -26.8741
   -26.8649 -26.8421 -26.8379 -26.8357 -24.1627 -23.9525 -23.6522 -23.5679
   -23.3086 -23.1796 -23.1611 -23.0550 -22.9238 -22.8630 -22.8349 -22.6183
   -22.5067 -22.4561 -22.3908 -22.3554 -22.2706 -22.2298 -21.7422 -21.6746
   -21.6077 -20.1783 -19.9450 -19.8189 -19.7933 -19.6329 -19.5966 -19.5833
   -19.5730 -19.5439 -19.5278 -19.3672 -19.3478 -18.1467 -17.9389 -17.8141
     1.2672   2.2424   2.9424   3.1476   3.3134   3.4414   3.4923   3.7010
     3.7305   3.7557   3.9273   4.0278   4.2535   4.5034   4.6209   4.7015
     4.7464   4.8932   5.0610   5.1121   5.1608   5.2757   5.2979   5.3111
     5.4015   5.5651   5.5943   5.7361   5.7442   5.7638   5.7824   5.8219
     5.9499   6.0874   6.1662   6.2332   6.2799   6.3301   6.3722   6.3788
     6.4572   6.6289   6.6785   6.7050   6.9240   6.9778   7.0230   7.0785
     7.1174   7.1598   7.2728   7.3131   7.3550   7.4608   7.5350   7.5665
     7.6268   7.7006   7.9054   7.9729   8.0804   8.0994   8.1324   8.1769
     8.2584   8.3391   8.3582   8.3750   8.5095   8.5493   8.6296   8.7435
     8.8206   8.9157   8.9758   9.0745   9.2027   9.2807   9.2972

 ------ SPIN DOWN ----------


          k = 0.0000 0.0000 0.0000 ( 61588 PWs)   bands (ev):

   -60.7724 -60.7684 -60.7258 -60.7166 -60.6953 -60.6776 -60.6424 -60.6377
   -60.4851 -60.1890 -54.3800 -54.3345 -54.2516 -54.2056 -52.6763 -46.2656
   -46.2564 -41.6467 -41.6095 -41.5423 -41.5041 -39.8009 -27.7709 -27.7646
   -27.6835 -27.6777 -27.5831 -27.5762 -27.4531 -27.4461 -27.3457 -27.3250
   -27.2810 -27.2595 -27.2486 -27.2254 -27.2118 -27.1556 -27.1519 -27.1179
   -27.0530 -26.9502 -26.9469 -26.9421 -26.9341 -26.9006 -26.8776 -26.8743
   -26.8658 -26.8430 -26.8379 -26.8358 -24.1627 -23.9525 -23.6523 -23.5679
   -23.3086 -23.1796 -23.1612 -23.0551 -22.9238 -22.8631 -22.8349 -22.6183
   -22.5067 -22.4561 -22.3909 -22.3555 -22.2707 -22.2299 -21.7422 -21.6747
   -21.6077 -20.1792 -19.9445 -19.8199 -19.7941 -19.6327 -19.5965 -19.5843
   -19.5730 -19.5449 -19.5277 -19.3669 -19.3491 -18.1467 -17.9389 -17.8141
     1.2669   2.2422   2.9416   3.1473   3.3132   3.4412   3.4917   3.7008
     3.7302   3.7554   3.9265   4.0273   4.2531   4.5032   4.6206   4.7012
     4.7460   4.8927   5.0604   5.1115   5.1600   5.2753   5.2976   5.3107
     5.4009   5.5648   5.5940   5.7358   5.7437   5.7634   5.7820   5.8216
     5.9497   6.0868   6.1656   6.2328   6.2796   6.3296   6.3718   6.3784
     6.4566   6.6284   6.6781   6.7045   6.9234   6.9772   7.0215   7.0772
     7.1155   7.1590   7.2713   7.3121   7.3536   7.4589   7.5342   7.5655
     7.6259   7.6999   7.9050   7.9725   8.0796   8.0983   8.1319   8.1757
     8.2569   8.3388   8.3574   8.3737   8.5089   8.5486   8.6291   8.7429
     8.8200   8.9142   8.9752   9.0740   9.2028   9.2800   9.2963

     the Fermi energy is     7.2558 ev

!    total energy              =   -2943.03540112 Ry
     estimated scf accuracy    <       0.00032768 Ry
     smearing contrib. (-TS)   =      -0.10334700 Ry
     internal energy E=F+TS    =   -2942.93205413 Ry

     total magnetization       =    -0.02 Bohr mag/cell
     absolute magnetization    =     0.03 Bohr mag/cell

     convergence has been achieved in   4 iterations

     negative rho (up, down):  9.087E-01 9.087E-01

     Forces acting on atoms (cartesian axes, Ry/au):

     atom    1 type  1   force =    -0.00388537   -0.02218489    0.00568858
     atom    2 type  1   force =    -0.11491485   -0.01366068   -0.00032301
     atom    3 type  1   force =    -0.11201553    0.01142533    0.00492546
     atom    4 type  1   force =     0.11224060   -0.01616981   -0.00760973
     atom    5 type  1   force =     0.11585061    0.01427788    0.00319796
     atom    6 type  2   force =    -0.01079411   -0.02257018    0.00240510
     atom    7 type  2   force =    -0.02516724    0.01206496   -0.00971200
     atom    8 type  3   force =    -0.11764157    0.00702890    0.00262919
     atom    9 type  3   force =     0.02008177   -0.06543000   -0.10188090
     atom   10 type  3   force =    -0.01778549   -0.02777737   -0.05628674
     atom   11 type  3   force =    -0.02240307   -0.03264763    0.05547513
     atom   12 type  3   force =    -0.01851202    0.03454068   -0.05466453
     atom   13 type  3   force =    -0.01232769    0.02927166    0.06042999
     atom   14 type  3   force =     0.02193879   -0.02690175   -0.05592307
     atom   15 type  3   force =     0.01903754   -0.03734594    0.05526500
     atom   16 type  3   force =     0.02077425    0.03408412   -0.04947365
     atom   17 type  3   force =     0.01039866    0.03921524    0.05844920
     atom   18 type  4   force =    -0.00093345    0.02853584   -0.01003611
     atom   19 type  4   force =    -0.12754292   -0.00571660   -0.11506830
     atom   20 type  4   force =    -0.13061415    0.00438444    0.11146877
     atom   21 type  4   force =     0.12677955   -0.00735835   -0.11951922
     atom   22 type  4   force =     0.14618170    0.00584284    0.10075629
     atom   23 type  5   force =     0.12125400    0.05709132    0.11980659
     The non-local contrib.  to forces
     atom    1 type  1   force =    -0.00163099   -0.01208196    0.03165184
     atom    2 type  1   force =    -0.24466425   -0.16301752    0.01705620
     atom    3 type  1   force =    -0.23942621    0.15592787   -0.01991929
     atom    4 type  1   force =     0.24699305   -0.16363756    0.02769318
     atom    5 type  1   force =     0.25806990    0.14166558   -0.00566148
     atom    6 type  2   force =     0.01215583   -0.05699810   -0.06383059
     atom    7 type  2   force =    -0.01167394    0.06745354    0.05996656
     atom    8 type  3   force =    -0.25664122    0.00311784    0.00110810
     atom    9 type  3   force =     0.11288375   -0.04565721   -0.08286653
     atom   10 type  3   force =    -0.21109097    0.00436677   -0.20931608
     atom   11 type  3   force =    -0.21515444    0.01174174    0.19332632
     atom   12 type  3   force =    -0.20366870   -0.02208159   -0.17661934
     atom   13 type  3   force =    -0.20409984   -0.00964949    0.20052536
     atom   14 type  3   force =     0.20931116    0.00726138   -0.22091357
     atom   15 type  3   force =     0.22006606    0.00301947    0.18232183
     atom   16 type  3   force =     0.19549959   -0.01936904   -0.18692040
     atom   17 type  3   force =     0.22854681   -0.01621820    0.17751319
     atom   18 type  4   force =    -0.00357551    0.05742567   -0.06056110
     atom   19 type  4   force =     0.06282017    0.00832375    0.07522121
     atom   20 type  4   force =     0.05275080   -0.01956248   -0.06319832
     atom   21 type  4   force =    -0.05685946    0.01508998    0.07318096
     atom   22 type  4   force =    -0.05804162   -0.00982519   -0.07624549
     atom   23 type  5   force =    -0.05915936   -0.03051826   -0.04148457
     The ionic contribution  to forces
     atom    1 type  1   force =    -0.37487608   -4.85614027   14.04664136
     atom    2 type  1   force =   -39.71493493   -6.16167160    0.72808948
     atom    3 type  1   force =   -39.71913717    6.20204401   -0.77996864
     atom    4 type  1   force =    39.52644619   -6.30019840    0.66053636
     atom    5 type  1   force =    39.33419800    6.65397416   -0.96625951
     atom    6 type  2   force =    -0.18728412   -3.66345885  -14.05561775
     atom    7 type  2   force =    -0.72542664    3.83790324   14.05988565
     atom    8 type  3   force =   -52.24255422    0.02097336   -0.17057629
     atom    9 type  3   force =    50.05956381   -0.92786759   -1.82460090
     atom   10 type  3   force =   -36.06809003   -2.10271378  -23.07231248
     atom   11 type  3   force =   -35.16663770   -0.87588823   22.11303343
     atom   12 type  3   force =   -35.25929294    0.82638632  -22.13639252
     atom   13 type  3   force =   -36.09101015    2.25323080   23.11513144
     atom   14 type  3   force =    35.98663433   -2.12676754  -23.11555141
     atom   15 type  3   force =    35.00623346   -0.96679326   22.21081258
     atom   16 type  3   force =    35.15524668    0.87688082  -22.20840631
     atom   17 type  3   force =    35.81621304    2.49850126   23.33895508
     atom   18 type  4   force =    -0.25551476    4.43134736  -14.08847987
     atom   19 type  4   force =   -35.91973617    0.93999676  -25.54679438
     atom   20 type  4   force =   -35.96908751   -0.98712281   25.59848652
     atom   21 type  4   force =    35.78773261    0.91596750  -25.67757003
     atom   22 type  4   force =    35.37575785   -1.17897743   26.34538846
     atom   23 type  5   force =     5.64555646    0.69039417    1.42556975
     The local contribution  to forces
     atom    1 type  1   force =     0.36497571    4.84766988  -14.07308816
     atom    2 type  1   force =    39.86353086    6.31465515   -0.74043221
     atom    3 type  1   force =    39.86833864   -6.34809429    0.81404593
     atom    4 type  1   force =   -39.68182437    6.45023636   -0.70093489
     atom    5 type  1   force =   -39.49946673   -6.78156349    0.97402668
     atom    6 type  2   force =     0.16423279    3.69184072   14.11693294
     atom    7 type  2   force =     0.70550992   -3.89429536  -14.13102730
     atom    8 type  3   force =    52.41479117   -0.01967877    0.17783971
     atom    9 type  3   force =   -50.16510656    0.91766306    1.82676086
     atom   10 type  3   force =    36.29673949    2.07873188   23.24944140
     atom   11 type  3   force =    35.38575611    0.83206764  -22.28001129
     atom   12 type  3   force =    35.48034915   -0.76240077   22.28461591
     atom   13 type  3   force =    36.30667876   -2.20787718  -23.28522946
     atom   14 type  3   force =   -36.20178925    2.08991858   23.30387414
     atom   15 type  3   force =   -35.23964071    0.92588510  -22.35876979
     atom   16 type  3   force =   -35.35192777   -0.81261007   22.37216712
     atom   17 type  3   force =   -36.06271104   -2.44088470  -23.48199567
     atom   18 type  4   force =     0.26180728   -4.46181121   14.14249837
     atom   19 type  4   force =    35.74872554   -0.96366994   25.37154195
     atom   20 type  4   force =    35.79821754    1.00562715  -25.43929395
     atom   21 type  4   force =   -35.61947252   -0.94307162   25.49788178
     atom   22 type  4   force =   -35.19546806    1.19023501  -26.17629568
     atom   23 type  5   force =    -5.46793765   -0.60351986   -1.26603642
     The core correction contribution to forces
     atom    1 type  1   force =     0.00171064    0.00033413   -0.00046107
     atom    2 type  1   force =    -0.01196653   -0.00184374    0.00015156
     atom    3 type  1   force =    -0.01258681    0.00252438   -0.00146740
     atom    4 type  1   force =     0.01272697   -0.00232133    0.00313704
     atom    5 type  1   force =     0.01356435    0.00233473    0.00038497
     atom    6 type  2   force =    -0.00046452    0.00298822    0.00294934
     atom    7 type  2   force =     0.00068800   -0.00338009   -0.00223871
     atom    8 type  3   force =    -0.03113541    0.00069324    0.00018292
     atom    9 type  3   force =     0.01310760   -0.00609605   -0.01229376
     atom   10 type  3   force =    -0.02147974    0.00932479   -0.01603482
     atom   11 type  3   force =    -0.02454788    0.00916882    0.01834487
     atom   12 type  3   force =    -0.02175537   -0.01025919   -0.01539942
     atom   13 type  3   force =    -0.02216559   -0.00976410    0.01610018
     atom   14 type  3   force =     0.02187373    0.00907346   -0.01684621
     atom   15 type  3   force =     0.02434604    0.00959147    0.01423270
     atom   16 type  3   force =     0.02199566   -0.01023462   -0.01639654
     atom   17 type  3   force =     0.02370628   -0.00879403    0.01456816
     atom   18 type  4   force =     0.00028060   -0.00299874    0.00298848
     atom   19 type  4   force =    -0.00976004    0.00003357   -0.00972916
     atom   20 type  4   force =    -0.00935219    0.00069353    0.00901233
     atom   21 type  4   force =     0.00942474   -0.00027996   -0.00976004
     atom   22 type  4   force =     0.00986728    0.00043987    0.00941661
     atom   23 type  5   force =     0.00000000    0.00000000    0.00000000
     The Hubbard contrib.    to forces
     atom    1 type  1   force =     0.00000000    0.00000000    0.00000000
     atom    2 type  1   force =     0.00000000    0.00000000    0.00000000
     atom    3 type  1   force =     0.00000000    0.00000000    0.00000000
     atom    4 type  1   force =     0.00000000    0.00000000    0.00000000
     atom    5 type  1   force =     0.00000000    0.00000000    0.00000000
     atom    6 type  2   force =     0.00000000    0.00000000    0.00000000
     atom    7 type  2   force =     0.00000000    0.00000000    0.00000000
     atom    8 type  3   force =     0.00000000    0.00000000    0.00000000
     atom    9 type  3   force =     0.00000000    0.00000000    0.00000000
     atom   10 type  3   force =     0.00000000    0.00000000    0.00000000
     atom   11 type  3   force =     0.00000000    0.00000000    0.00000000
     atom   12 type  3   force =     0.00000000    0.00000000    0.00000000
     atom   13 type  3   force =     0.00000000    0.00000000    0.00000000
     atom   14 type  3   force =     0.00000000    0.00000000    0.00000000
     atom   15 type  3   force =     0.00000000    0.00000000    0.00000000
     atom   16 type  3   force =     0.00000000    0.00000000    0.00000000
     atom   17 type  3   force =     0.00000000    0.00000000    0.00000000
     atom   18 type  4   force =     0.00000000    0.00000000    0.00000000
     atom   19 type  4   force =     0.00000000    0.00000000    0.00000000
     atom   20 type  4   force =     0.00000000    0.00000000    0.00000000
     atom   21 type  4   force =     0.00000000    0.00000000    0.00000000
     atom   22 type  4   force =     0.00000000    0.00000000    0.00000000
     atom   23 type  5   force =     0.00000000    0.00000000    0.00000000
     The SCF correction term to forces
     atom    1 type  1   force =     0.00590890   -0.00187718    0.00105581
     atom    2 type  1   force =    -0.00690645   -0.00169347   -0.00507684
     atom    3 type  1   force =    -0.00923042   -0.00088714   -0.00765393
     atom    4 type  1   force =     0.00787232   -0.00015937    0.00206978
     atom    5 type  1   force =     0.00945866   -0.00204361    0.00081850
     atom    6 type  2   force =     0.00053947    0.00314733    0.00208237
     atom    7 type  2   force =     0.00570898    0.00447313    0.00381300
     atom    8 type  3   force =    -0.00212834    0.00201274   -0.00581403
     atom    9 type  3   force =    -0.00039328   -0.00338272   -0.00876937
     atom   10 type  3   force =    -0.01389068   -0.01739753   -0.00795356
     atom   11 type  3   force =    -0.00184560   -0.00964810    0.01089300
     atom   12 type  3   force =    -0.01417059    0.00298540   -0.01075796
     atom   13 type  3   force =    -0.00175731    0.00342113    0.01401367
     atom   14 type  3   force =     0.00588236   -0.00629814   -0.00637482
     atom   15 type  3   force =     0.00800625   -0.00895922    0.00677888
     atom   16 type  3   force =    -0.00006636   -0.00049347   -0.00980631
     atom   17 type  3   force =     0.00461714    0.00670041    0.00951966
     atom   18 type  4   force =    -0.00395750    0.00466227   -0.00637078
     atom   19 type  4   force =    -0.00961886    0.00968875   -0.00519670
     atom   20 type  4   force =    -0.00316923    0.00483855    0.00657340
     atom   21 type  4   force =     0.00592773    0.00502525   -0.00314068
     atom   22 type  4   force =     0.01403981    0.00406008   -0.00139640
     atom   23 type  5   force =     0.00276811    0.00082476    0.00186903

     Total force =     0.523668     Total SCF correction =     0.056289
     SCF correction compared to forces is large: reduce conv_thr to get better values


     Computing stress (Cartesian axis) and pressure


     negative rho (up, down):  9.087E-01 9.087E-01
          total   stress  (Ry/bohr**3)                   (kbar)     P=       88.65
   0.00072430   0.00001616   0.00004511          106.55        2.38        6.64
   0.00001616   0.00067748   0.00001309            2.38       99.66        1.93
   0.00004511   0.00001309   0.00040616            6.64        1.93       59.75


     Entering Dynamics:    iteration =     3
                           time      =   0.0006 pico-seconds


ATOMIC_POSITIONS (angstrom)
Hf            2.6702658892        2.8272501238        6.6041965808
Hf            1.2532271500        1.2864136186        5.0586964717
Hf            1.2557240165        7.3899408130        5.0882991812
Hf            4.0873054769        1.2864130884        5.0586953032
Hf            4.0848102287        7.3899411142        5.0882993040
Nb            2.6702610016        2.7970532034        3.5158155285
Nb            2.6702542582        5.8765176934        6.6352236167
Ta            1.2096106071        4.3410626479        5.0713565357
Ta            4.1309191400        4.3410558659        5.0713501399
[...]
     4.7709   4.9103   5.0577   5.1077   5.1424   5.2708   5.2968   5.3174
     5.3942   5.5599   5.5807   5.7170   5.7255   5.7553   5.7812   5.8153
     5.9493   6.0673   6.1456   6.2224   6.2843   6.3177   6.3732   6.4006
     6.4516   6.5975   6.6677   6.7061   6.9041   6.9378   7.0293   7.0670
     7.1068   7.1485   7.2737   7.3125   7.3636   7.4703   7.5189   7.6100
     7.6439   7.7784   7.9005   7.9624   8.1014   8.1020   8.1379   8.2010
     8.2511   8.3321   8.3542   8.3841   8.4977   8.5295   8.6447   8.7592
     8.7822   8.9056   8.9578   9.0701   9.1921   9.2216   9.2763

     the Fermi energy is     7.2546 ev

!    total energy              =   -2943.05963204 Ry
     estimated scf accuracy    <       0.00038966 Ry
     smearing contrib. (-TS)   =      -0.09844797 Ry
     internal energy E=F+TS    =   -2942.96118407 Ry

     total magnetization       =    -0.00 Bohr mag/cell
     absolute magnetization    =     0.00 Bohr mag/cell

     convergence has been achieved in   5 iterations

     negative rho (up, down):  9.088E-01 9.088E-01

     Forces acting on atoms (cartesian axes, Ry/au):

     atom    1 type  1   force =    -0.00608882   -0.02433753    0.00237484
     atom    2 type  1   force =    -0.11626886   -0.01441181   -0.00770331
     atom    3 type  1   force =    -0.11372571    0.01218334   -0.00145600
     atom    4 type  1   force =     0.11614860   -0.01781209   -0.01017421
     atom    5 type  1   force =     0.11806867    0.01069318   -0.00133144
     atom    6 type  2   force =    -0.01647473   -0.02276137   -0.00159023
     atom    7 type  2   force =    -0.02100893    0.00772786   -0.01189008
     atom    8 type  3   force =    -0.10984768    0.00258249   -0.00607236
     atom    9 type  3   force =     0.15734413    0.01729658    0.03535452
     atom   10 type  3   force =    -0.02104008   -0.03236453   -0.05692934
     atom   11 type  3   force =    -0.01843564   -0.03220323    0.05826325
     atom   12 type  3   force =    -0.02019625    0.03681990   -0.05229617
     atom   13 type  3   force =    -0.01433939    0.02666980    0.06300235
     atom   14 type  3   force =     0.02310965   -0.03080126   -0.05496255
     atom   15 type  3   force =     0.01772928   -0.03552086    0.05842569
     atom   16 type  3   force =     0.01964696    0.03662984   -0.04888845
     atom   17 type  3   force =     0.01952025    0.03549986    0.05933349
     atom   18 type  4   force =    -0.00605481    0.02939346   -0.01387426
     atom   19 type  4   force =    -0.12679801   -0.00464944   -0.11449589
     atom   20 type  4   force =    -0.12852525    0.00774586    0.11481612
     atom   21 type  4   force =     0.12483344   -0.00729103   -0.11496225
     atom   22 type  4   force =     0.16812951    0.01072114    0.10003274
     atom   23 type  5   force =    -0.04572634   -0.01181017    0.00502353
     The non-local contrib.  to forces
     atom    1 type  1   force =     0.00164204   -0.01323531    0.02177830
     atom    2 type  1   force =    -0.24721113   -0.16327619    0.00882727
     atom    3 type  1   force =    -0.24035314    0.15688017   -0.02550287
     atom    4 type  1   force =     0.24996541   -0.16264455    0.02406008
     atom    5 type  1   force =     0.26904717    0.13371072    0.00145111
     atom    6 type  2   force =     0.00680040   -0.04523875   -0.05114688
     atom    7 type  2   force =    -0.02457225    0.06862583    0.05641599
     atom    8 type  3   force =    -0.27312361    0.00543167    0.00317200
     atom    9 type  3   force =     0.24090759    0.01293927    0.01833104
     atom   10 type  3   force =    -0.20849717    0.00460766   -0.20234830
     atom   11 type  3   force =    -0.21285701    0.00368023    0.19877716
     atom   12 type  3   force =    -0.20558710   -0.01976261   -0.17499630
     atom   13 type  3   force =    -0.21152099   -0.00556692    0.20516724
     atom   14 type  3   force =     0.20571406    0.00409052   -0.21557905
     atom   15 type  3   force =     0.22506863    0.00627509    0.18514044
     atom   16 type  3   force =     0.19318808   -0.01665190   -0.18561067
     atom   17 type  3   force =     0.25866658   -0.03872833    0.15572038
     atom   18 type  4   force =     0.00112505    0.05406615   -0.05915224
     atom   19 type  4   force =     0.05905559    0.00631586    0.07277226
     atom   20 type  4   force =     0.05049826   -0.02183114   -0.05982354
     atom   21 type  4   force =    -0.05688292    0.01598912    0.07696608
     atom   22 type  4   force =    -0.05901274   -0.00543420   -0.09593394
     atom   23 type  5   force =    -0.02190977   -0.00757972    0.00160075
     The ionic contribution  to forces
     atom    1 type  1   force =    -0.17277016   -4.72080789   14.18046229
     atom    2 type  1   force =   -39.69617139   -6.18176252    0.75041551
     atom    3 type  1   force =   -39.62956584    6.18121757   -0.76707337
     atom    4 type  1   force =    39.60394508   -6.29606395    0.74740542
     atom    5 type  1   force =    39.39036916    6.30891020   -0.91394981
     atom    6 type  2   force =    -0.34758239   -3.90184848  -14.25867500
     atom    7 type  2   force =    -0.28919616    3.62726926   13.93197302
     atom    8 type  3   force =   -52.32613032    0.07328957   -0.07896997
     atom    9 type  3   force =    51.23343126    0.04946437   -0.37617539
     atom   10 type  3   force =   -36.05075713   -2.10353084  -23.04450658
     atom   11 type  3   force =   -35.10140422   -0.84661493   22.06549686
     atom   12 type  3   force =   -35.22647151    0.81529554  -22.09229834
     atom   13 type  3   force =   -35.99488065    2.22734618   23.05599660
     atom   14 type  3   force =    35.98985266   -2.14593752  -23.08366087
     atom   15 type  3   force =    34.98174539   -0.87971067   22.10740659
     atom   16 type  3   force =    35.16047303    0.84862713  -22.11254248
     atom   17 type  3   force =    35.66557928    2.47221794   23.21628470
     atom   18 type  4   force =    -0.20896521    4.61892469  -14.07100777
     atom   19 type  4   force =   -35.90219746    0.94840430  -25.50000481
     atom   20 type  4   force =   -35.80859400   -0.98852801   25.48971474
     atom   21 type  4   force =    35.82625381    0.96119277  -25.66473014
     atom   22 type  4   force =    35.16992797   -1.25347573   25.82673013
     atom   23 type  5   force =     3.73310880    0.18612102    0.59170866
     The local contribution  to forces
     atom    1 type  1   force =     0.16550449    4.71143651  -14.21320312
     atom    2 type  1   force =    39.83824750    6.33199250   -0.78542880
     atom    3 type  1   force =    39.76704965   -6.32727885    0.77487742
     atom    4 type  1   force =   -39.74960739    6.44383092   -0.80295648
     atom    5 type  1   force =   -39.55263031   -6.43514528    0.89319822
     atom    6 type  2   force =     0.32453141    3.91864812   14.28767337
     atom    7 type  2   force =     0.29466169   -3.68864809  -14.01523202
     atom    8 type  3   force =    52.52188151   -0.07767662    0.05199499
     atom    9 type  3   force =   -51.34348990   -0.04605606    0.37644795
     atom   10 type  3   force =    36.25827279    2.05305800   23.21050783
     atom   11 type  3   force =    35.31796144    0.80901335  -22.22381430
     atom   12 type  3   force =    35.43012329   -0.74428698   22.23338105
     atom   13 type  3   force =    36.21355856   -2.19223359  -23.21412644
     atom   14 type  3   force =   -36.19347076    2.09774126   23.26506487
     atom   15 type  3   force =   -35.21355126    0.83604879  -22.25031249
     atom   16 type  3   force =   -35.35581563   -0.78015614   22.26929287
     atom   17 type  3   force =   -35.92549085   -2.39965847  -23.32704759
     atom   18 type  4   force =     0.20130696   -4.63808056   14.09639757
     atom   19 type  4   force =    35.72282058   -0.96022157   25.32358950
     atom   20 type  4   force =    35.63910157    1.01665680  -25.32321174
     atom   21 type  4   force =   -35.65201239   -0.98512338   25.48559763
     atom   22 type  4   force =   -34.94761916    1.27128363  -25.64349416
     atom   23 type  5   force =    -3.75601331   -0.18985820   -0.58977915
     The core correction contribution to forces
     atom    1 type  1   force =     0.00105185    0.00122373   -0.00085439
     atom    2 type  1   force =    -0.01227504   -0.00176869   -0.00012667
     atom    3 type  1   force =    -0.01279062    0.00238058   -0.00178297
     atom    4 type  1   force =     0.01343853   -0.00174446    0.00350083
     atom    5 type  1   force =     0.01419231    0.00247837    0.00163052
     atom    6 type  2   force =    -0.00053040    0.00186971    0.00182668
     atom    7 type  2   force =     0.00133364   -0.00354399   -0.00226800
     atom    8 type  3   force =    -0.03368480    0.00090746    0.00041217
     atom    9 type  3   force =     0.02657560   -0.00105882   -0.00021891
     atom   10 type  3   force =    -0.02209488    0.00940633   -0.01644394
     atom   11 type  3   force =    -0.02331817    0.00872691    0.01757105
     atom   12 type  3   force =    -0.02164988   -0.00955223   -0.01567938
     atom   13 type  3   force =    -0.02284534   -0.00919996    0.01623480
     atom   14 type  3   force =     0.02135827    0.00998748   -0.01593360
     atom   15 type  3   force =     0.02449611    0.00981795    0.01465470
     atom   16 type  3   force =     0.02211114   -0.01072818   -0.01609079
     atom   17 type  3   force =     0.02466646   -0.00817769    0.01245859
     atom   18 type  4   force =    -0.00009949   -0.00271367    0.00267459
     atom   19 type  4   force =    -0.00965573    0.00018230   -0.00955572
     atom   20 type  4   force =    -0.00916130    0.00083591    0.00893932
     atom   21 type  4   force =     0.00952999   -0.00031384   -0.00993769
     atom   22 type  4   force =     0.00928230   -0.00000825    0.01093333
     atom   23 type  5   force =     0.00000000    0.00000000    0.00000000
     The Hubbard contrib.    to forces
     atom    1 type  1   force =     0.00000000    0.00000000    0.00000000
     atom    2 type  1   force =     0.00000000    0.00000000    0.00000000
     atom    3 type  1   force =     0.00000000    0.00000000    0.00000000
     atom    4 type  1   force =     0.00000000    0.00000000    0.00000000
     atom    5 type  1   force =     0.00000000    0.00000000    0.00000000
     atom    6 type  2   force =     0.00000000    0.00000000    0.00000000
     atom    7 type  2   force =     0.00000000    0.00000000    0.00000000
     atom    8 type  3   force =     0.00000000    0.00000000    0.00000000
     atom    9 type  3   force =     0.00000000    0.00000000    0.00000000
     atom   10 type  3   force =     0.00000000    0.00000000    0.00000000
     atom   11 type  3   force =     0.00000000    0.00000000    0.00000000
     atom   12 type  3   force =     0.00000000    0.00000000    0.00000000
     atom   13 type  3   force =     0.00000000    0.00000000    0.00000000
     atom   14 type  3   force =     0.00000000    0.00000000    0.00000000
     atom   15 type  3   force =     0.00000000    0.00000000    0.00000000
     atom   16 type  3   force =     0.00000000    0.00000000    0.00000000
     atom   17 type  3   force =     0.00000000    0.00000000    0.00000000
     atom   18 type  4   force =     0.00000000    0.00000000    0.00000000
     atom   19 type  4   force =     0.00000000    0.00000000    0.00000000
     atom   20 type  4   force =     0.00000000    0.00000000    0.00000000
     atom   21 type  4   force =     0.00000000    0.00000000    0.00000000
     atom   22 type  4   force =     0.00000000    0.00000000    0.00000000
     atom   23 type  5   force =     0.00000000    0.00000000    0.00000000
     The SCF correction term to forces
     atom    1 type  1   force =    -0.00149763   -0.00292073    0.01261708
     atom    2 type  1   force =     0.00116062    0.00043693    0.01703471
     atom    3 type  1   force =     0.00195366   -0.00098231    0.01645112
     atom    4 type  1   force =    -0.00157362   -0.00115622    0.01624126
     atom    5 type  1   force =    -0.00289025    0.00077301    0.01476383
     atom    6 type  2   force =     0.00032567    0.00384186    0.01715693
     atom    7 type  2   force =    -0.00321643    0.00405868    0.01564626
     atom    8 type  3   force =     0.00122896    0.00066424    0.01574378
     atom    9 type  3   force =    -0.00006102    0.00204165    0.01539513
     atom   10 type  3   force =     0.00205573    0.00412816   -0.00571302
     atom   11 type  3   force =     0.00120173   -0.00697495   -0.00134220
     atom   12 type  3   force =     0.00340836   -0.00483999   -0.00427787
     atom   13 type  3   force =     0.00136844    0.00635794   -0.00184453
     atom   14 type  3   force =    -0.00032517    0.00335083   -0.00642858
     atom   15 type  3   force =    -0.00001017   -0.00791819   -0.00003823
     atom   16 type  3   force =    -0.00029025   -0.00442724   -0.00551205
     atom   17 type  3   force =    -0.00388182    0.00988025    0.00034273
     atom   18 type  4   force =     0.00059730   -0.00276930    0.01563891
     atom   19 type  4   force =     0.00319843    0.00070351   -0.00287180
     atom   20 type  4   force =    -0.00035036    0.00064614   -0.00237733
     atom   21 type  4   force =    -0.00203563    0.00099814   -0.00443281
     atom   22 type  4   force =    -0.00442944   -0.00161047    0.00022271
     atom   23 type  5   force =    -0.00089264   -0.00045943   -0.00008140

     Total force =     0.512390     Total SCF correction =     0.055789
     SCF correction compared to forces is large: reduce conv_thr to get better values


     Computing stress (Cartesian axis) and pressure


     negative rho (up, down):  9.088E-01 9.088E-01
          total   stress  (Ry/bohr**3)                   (kbar)     P=       80.86
   0.00062261  -0.00000438   0.00001439           91.59       -0.64        2.12
  -0.00000438   0.00065697  -0.00000980           -0.64       96.64       -1.44
   0.00001439  -0.00000980   0.00036954            2.12       -1.44       54.36


     Entering Dynamics:    iteration =    20
                           time      =   0.0041 pico-seconds


ATOMIC_POSITIONS (angstrom)
Hf            2.6718503531        2.8278152407        6.6055615470
Hf            1.2534078163        1.2870000356        5.0599703549
Hf            1.2559309927        7.3908206117        5.0896314987
Hf            4.0901181136        1.2870130093        5.0599469873
Hf            4.0876491947        7.3908327782        5.0896428475
Nb            2.6719492253        2.7975826639        3.5174053008
Nb            2.6714701646        5.8774715909        6.6362726659
Ta            1.2097845404        4.3419353040        5.0727247404
Ta            4.0961264644        4.3228983331        5.0392080715
Ta            1.3087514993        1.3146311883        2.0596879805
Ta            1.3043048635        1.3088751428        8.0967614762
Ta            1.3055712261        7.3771281862        2.0471538151
Ta            1.3093307524        7.3663135640        8.0882363089
Ta            4.0347630367        1.3147175954        2.0596821859
Ta            4.0392176790        1.3088712189        8.0967614129
Ta            4.0379887986        7.3770909562        2.0471881909
Ta            4.0342081606        7.3663609645        8.0882009375
Zr            2.6718254518        5.8677468423        3.5287417668
Zr            1.2427053396        4.3228838734        1.9989321520
Zr            1.2392062596        4.3551124283        8.1538424527
Zr            4.1008359629        4.3228469152        1.9988279750
Zr            4.1045654518        4.3551312933        8.1537057838
H             5.9720174638        5.2556047955        6.7487172103


     kinetic energy (Ekin) =           8.07802296 Ry
     temperature           =       38649.05907866 K 
     Ekin + Etot (const)   =       -2934.98160909 Ry
     Ions kinetic stress =          142.67 (kbar)
                                    204.17         101.63         187.85
                                    101.63          50.67          93.62
                                    187.85          93.62         173.17



     Linear momentum :   -0.0000000000    0.0000000000    0.0000000000

     The maximum number of steps has been reached.

     End of molecular dynamics calculation

     diffusion coefficients :
     atom     1   D =       0.00000003 cm^2/s
     atom     2   D =       0.00000001 cm^2/s
     atom     3   D =       0.00000002 cm^2/s
     atom     4   D =       0.00000005 cm^2/s
     atom     5   D =       0.00000005 cm^2/s
     atom     6   D =       0.00000003 cm^2/s
     atom     7   D =       0.00000002 cm^2/s
     atom     8   D =       0.00000002 cm^2/s
     atom     9   D =       0.00001039 cm^2/s
     atom    10   D =       0.00000001 cm^2/s
     atom    11   D =       0.00000003 cm^2/s
     atom    12   D =       0.00000002 cm^2/s
     atom    13   D =       0.00000004 cm^2/s
     atom    14   D =       0.00000002 cm^2/s
     atom    15   D =       0.00000004 cm^2/s
     atom    16   D =       0.00000003 cm^2/s
     atom    17   D =       0.00000004 cm^2/s
     atom    18   D =       0.00000003 cm^2/s
     atom    19   D =       0.00000001 cm^2/s
     atom    20   D =       0.00000008 cm^2/s
     atom    21   D =       0.00000010 cm^2/s
     atom    22   D =       0.00000017 cm^2/s
     atom    23   D =       0.00176385 cm^2/s

     < D > =       0.00007718 cm^2/s

     Writing all to output data dir outdir/pwscf.save/

     init_run     :      8.64s CPU     12.39s WALL (       1 calls)
     electrons    :   2426.80s CPU   2866.94s WALL (      20 calls)
     update_pot   :     19.15s CPU     20.50s WALL (      19 calls)
     forces       :    198.70s CPU    242.76s WALL (      20 calls)
     stress       :    353.40s CPU    385.35s WALL (      20 calls)

     Called by init_run:
     wfcinit      :      6.86s CPU      9.47s WALL (       1 calls)
     potinit      :      0.29s CPU      0.50s WALL (       1 calls)
     hinit0       :      0.77s CPU      1.08s WALL (       1 calls)

     Called by electrons:
     c_bands      :   1975.42s CPU   2334.70s WALL (      99 calls)
     sum_band     :    301.20s CPU    355.74s WALL (      99 calls)
     v_of_rho     :     10.19s CPU     12.34s WALL (     119 calls)
     newd         :    170.46s CPU    199.57s WALL (     119 calls)
     mix_rho      :      0.94s CPU      1.22s WALL (      99 calls)

     Called by c_bands:
     init_us_2    :      3.83s CPU      3.96s WALL (     478 calls)
     init_us_2:cp :      3.82s CPU      3.96s WALL (     478 calls)
     regterg      :   1961.82s CPU   2318.39s WALL (     198 calls)

     Called by *egterg:
     rdiaghg      :     66.46s CPU     82.29s WALL (    1517 calls)
     h_psi        :   1009.10s CPU   1115.15s WALL (    1557 calls)
     s_psi        :    342.63s CPU    343.33s WALL (    1557 calls)
     g_psi        :      0.73s CPU      0.79s WALL (    1357 calls)

     Called by h_psi:
     h_psi:calbec :    492.38s CPU    560.07s WALL (    1557 calls)
     vloc_psi     :    100.61s CPU    137.47s WALL (    1557 calls)
     add_vuspsi   :    414.85s CPU    416.28s WALL (    1557 calls)

     General routines
     calbec       :    803.40s CPU    943.31s WALL (    1955 calls)
     fft          :     10.26s CPU     28.87s WALL (    2484 calls)
     ffts         :      0.21s CPU      0.29s WALL (      99 calls)
     fftw         :    108.21s CPU    150.03s WALL (  105396 calls)

     Parallel routines

     PWSCF        :  50m38.38s CPU  59m25.55s WALL


   This run was terminated on:  22:23:13  12Jun2023            

=------------------------------------------------------------------------------=
   JOB DONE.
=------------------------------------------------------------------------------=
