
     Program PWSCF v.7.2 starts on 16Jun2023 at 19:50:32 

     This program is part of the open-source Quantum ESPRESSO suite
     for quantum simulation of materials; please cite
         "P. Giannozzi et al., J. Phys.:Condens. Matter 21 395502 (2009);
         "P. Giannozzi et al., J. Phys.:Condens. Matter 29 465901 (2017);
         "P. Giannozzi et al., J. Chem. Phys. 152 154105 (2020);
          URL http://www.quantum-espresso.org", 
     in publications or presentations arising from this work. More details at
     http://www.quantum-espresso.org/quote

     Parallel version (MPI), running on    42 processors

     MPI processes distributed on     1 nodes
     172650 MiB available memory on the printing compute node when the environment starts

     Reading input from md_data/md_Hf5Nb2Ta10Zr5H_20steps_50eV_incident45_polar60.in
Warning: card &CELL ignored
Warning: card / ignored

     Current dimensions of program PWSCF are:
     Max number of different atomic species (ntypx) = 10
     Max number of k-points (npk) =  40000
     Max angular momentum in pseudopotentials (lmaxx) =  4

     File outdir/pwscf.md deleted, as requested

     gamma-point specific algorithms are used

     R & G space division:  proc/nbgrp/npool/nimage =      42
     Subspace diagonalization in iterative solution of the eigenvalue problem:
     one sub-group per band group will be used
     custom distributed-memory algorithm (size of sub-group:  2*  2 procs)


     Parallelization info
     --------------------
     sticks:   dense  smooth     PW     G-vecs:    dense   smooth      PW
     Min         262     262     63                23470    23470    2920
     Max         265     265     66                23484    23484    2942
     Sum       11057   11057   2753               986005   986005  123175

     Using Slab Decomposition



     bravais-lattice index     =            0
     lattice parameter (alat)  =      17.6500  a.u.
     unit-cell volume          =    5552.8853 (a.u.)^3
     number of atoms/cell      =           23
     number of atomic types    =            5
     number of electrons       =       277.00
     number of Kohn-Sham states=          167
     kinetic-energy cutoff     =     120.0000  Ry
     charge density cutoff     =     480.0000  Ry
     scf convergence threshold =      1.0E-03
     mixing beta               =       0.7000
     number of iterations used =            8  TF        mixing
     energy convergence thresh.=      0.0E+00
     force convergence thresh. =      0.0E+00
     Exchange-correlation=  SLA  PW   PBX  PBC
                           (   1   4   3   4   0   0   0)
     nstep                     =           20


     celldm(1)=  17.650041  celldm(2)=   0.000000  celldm(3)=   0.000000
     celldm(4)=   0.000000  celldm(5)=   0.000000  celldm(6)=   0.000000

     crystal axes: (cart. coord. in units of alat)
               a(1) = (   1.000000   0.000000   0.000000 )  
               a(2) = (   0.000000   0.929336   0.000000 )  
               a(3) = (   0.000000   0.000000   1.086698 )  

     reciprocal axes: (cart. coord. in units 2 pi/alat)
               b(1) = (  1.000000  0.000000  0.000000 )  
               b(2) = (  0.000000  1.076037  0.000000 )  
               b(3) = (  0.000000  0.000000  0.920219 )  


     PseudoPot. # 1 for Hf read from file:
     q-e/pseudo/hf_pbe_v1.uspp.F.UPF
     MD5 check sum: 8ee9378dfe14276e333edf04c5e4aa26
     Pseudo is Ultrasoft + core correction, Zval = 12.0
     Generated by new atomic code, or converted to UPF format
     Using radial grid of  921 points,  8 beta functions with: 
                l(1) =   0
                l(2) =   0
                l(3) =   0
                l(4) =   1
                l(5) =   1
                l(6) =   2
                l(7) =   2
                l(8) =   3
     Q(r) pseudized with  6 coefficients,  rinner =    1.200   1.200   1.200
                                                       1.200   1.200   1.200
                                                       1.200

     PseudoPot. # 2 for Nb read from file:
     q-e/pseudo/nb_pbe_v1.uspp.F.UPF
     MD5 check sum: 573aab8a2fa660278ed4a62cd769473f
     Pseudo is Ultrasoft + core correction, Zval = 13.0
     Generated by new atomic code, or converted to UPF format
     Using radial grid of  887 points,  6 beta functions with: 
                l(1) =   0
                l(2) =   0
                l(3) =   1
                l(4) =   1
                l(5) =   2
                l(6) =   2
     Q(r) pseudized with  6 coefficients,  rinner =    1.000   1.000   1.000
                                                       1.000   1.000

     PseudoPot. # 3 for Ta read from file:
     q-e/pseudo/ta_pbe_v1.uspp.F.UPF
     MD5 check sum: f8bbe9446314a3b8ea5d9f3e3836c939
     Pseudo is Ultrasoft + core correction, Zval = 13.0
     Generated by new atomic code, or converted to UPF format
     Using radial grid of  921 points,  7 beta functions with: 
                l(1) =   0
                l(2) =   0
                l(3) =   1
                l(4) =   1
                l(5) =   2
                l(6) =   2
                l(7) =   3
     Q(r) pseudized with  6 coefficients,  rinner =    1.300   1.300   1.300
                                                       1.300   1.300   1.300
                                                       1.300

     PseudoPot. # 4 for Zr read from file:
     q-e/pseudo/zr_pbe_v1.uspp.F.UPF
     MD5 check sum: 5db81b1e868ab7776c4564c113de050b
     Pseudo is Ultrasoft + core correction, Zval = 12.0
     Generated by new atomic code, or converted to UPF format
     Using radial grid of  887 points,  6 beta functions with: 
                l(1) =   0
                l(2) =   0
                l(3) =   1
                l(4) =   1
                l(5) =   2
                l(6) =   2
     Q(r) pseudized with  6 coefficients,  rinner =    1.200   1.200   1.200
                                                       1.200   1.200

     PseudoPot. # 5 for H  read from file:
     q-e/pseudo/h_pbe_v1.4.uspp.F.UPF
     MD5 check sum: 761ae9a214b05c3daf00ab9f6b793d6f
     Pseudo is Ultrasoft, Zval =  1.0
     Generated by new atomic code, or converted to UPF format
     Using radial grid of  615 points,  2 beta functions with: 
                l(1) =   0
                l(2) =   0
     Q(r) pseudized with  8 coefficients,  rinner =    0.700

     atomic species   valence    mass     pseudopotential
        Hf            12.00   178.49000     Hf( 1.00)
        Nb            13.00    92.90637     Nb( 1.00)
        Ta            13.00   180.94788     Ta( 1.00)
        Zr            12.00    91.22400     Zr( 1.00)
        H              1.00     2.01400     H ( 1.00)

     Starting magnetic structure 
     atomic species   magnetization
        Hf           0.000
        Nb           0.000
        Ta           0.000
        Zr           0.000
        H            0.000

     No symmetry found



   Cartesian axes

     site n.     atom                  positions (alat units)
         1           Hf  tau(   1) = (   0.2858672   0.3026898   0.7070626  )
         2           Hf  tau(   2) = (   0.1341532   0.1377178   0.5415917  )
         3           Hf  tau(   3) = (   0.1344204   0.7911996   0.5447610  )
         4           Hf  tau(   4) = (   0.4375813   0.1377178   0.5415917  )
         5           Hf  tau(   5) = (   0.4373140   0.7911996   0.5447610  )
         6           Nb  tau(   6) = (   0.2858672   0.2994572   0.3764008  )
         7           Nb  tau(   7) = (   0.2858672   0.6291626   0.7103852  )
         8           Ta  tau(   8) = (   0.1294832   0.4647675   0.5429471  )
         9           Ta  tau(   9) = (   0.4422513   0.4647675   0.5429471  )
        10           Ta  tau(  10) = (   0.1399628   0.1406984   0.2204260  )
        11           Ta  tau(  11) = (   0.1394848   0.1400847   0.8666573  )
        12           Ta  tau(  12) = (   0.1396156   0.7897030   0.2190832  )
        13           Ta  tau(  13) = (   0.1400119   0.7885528   0.8657390  )
        14           Ta  tau(  14) = (   0.4317717   0.1406984   0.2204260  )
        15           Ta  tau(  15) = (   0.4322496   0.1400847   0.8666573  )
        16           Ta  tau(  16) = (   0.4321189   0.7897030   0.2190832  )
        17           Ta  tau(  17) = (   0.4317226   0.7885528   0.8657390  )
        18           Zr  tau(  18) = (   0.2858672   0.6280820   0.3776642  )
        19           Zr  tau(  19) = (   0.1331729   0.4627493   0.2141328  )
        20           Zr  tau(  20) = (   0.1328036   0.4661802   0.8725649  )
        21           Zr  tau(  21) = (   0.4385616   0.4627493   0.2141328  )
        22           Zr  tau(  22) = (   0.4389309   0.4661802   0.8725649  )
        23           H   tau(  23) = (   0.5936660   0.5403755   0.6741890  )

     number of k points=     1  Gaussian smearing, width (Ry)=  0.0220
                       cart. coord. in units 2pi/alat
        k(    1) = (   0.0000000   0.0000000   0.0000000), wk =   1.0000000

     Dense  grid:   493003 G-vectors     FFT dimensions: ( 125, 120, 135)

     Estimated max dynamical RAM per process >     133.03 MB

     Estimated total dynamical RAM >       5.46 GB

     Check: negative core charge=   -0.000002
     Generating pointlists ...
     new r_m :   0.1117 (alat units)  1.9717 (a.u.) for type    1
     new r_m :   0.1098 (alat units)  1.9374 (a.u.) for type    2
     new r_m :   0.0883 (alat units)  1.5593 (a.u.) for type    3
     new r_m :   0.1082 (alat units)  1.9097 (a.u.) for type    4
     new r_m :   0.0883 (alat units)  1.5593 (a.u.) for type    5

     Initial potential from superposition of free atoms

     starting charge     266.9726, renormalised to     277.0000

     negative rho (up, down):  9.217E-01 9.217E-01
     Starting wfcs are  287 randomized atomic wfcs

     total cpu time spent up to now is       13.3 secs

     Self-consistent Calculation

     iteration #  1     ecut=   120.00 Ry     beta= 0.70
     Davidson diagonalization with overlap
     ethr =  1.00E-02,  avg # of iterations =  2.0

     negative rho (up, down):  9.966E-01 9.962E-01

     total cpu time spent up to now is       43.3 secs

     total energy              =   -2930.58857307 Ry
     estimated scf accuracy    <     276.75348115 Ry

     total magnetization       =    -0.00 Bohr mag/cell
     absolute magnetization    =     0.09 Bohr mag/cell

     iteration #  2     ecut=   120.00 Ry     beta= 0.70
     Davidson diagonalization with overlap
     ethr =  1.00E-02,  avg # of iterations =  5.0

     negative rho (up, down):  9.687E-01 9.700E-01

     total cpu time spent up to now is       90.0 secs

     total energy              =   -2942.22421484 Ry
     estimated scf accuracy    <      30.11132956 Ry

     total magnetization       =    -0.03 Bohr mag/cell
     absolute magnetization    =     0.39 Bohr mag/cell

     iteration #  3     ecut=   120.00 Ry     beta= 0.70
     Davidson diagonalization with overlap
     ethr =  1.00E-02,  avg # of iterations =  2.0

     negative rho (up, down):  1.006E+00 1.002E+00

     total cpu time spent up to now is      116.9 secs

     total energy              =   -2942.66421566 Ry
     estimated scf accuracy    <      12.98843247 Ry

     total magnetization       =    -0.03 Bohr mag/cell
     absolute magnetization    =     0.51 Bohr mag/cell

     iteration #  4     ecut=   120.00 Ry     beta= 0.70
     Davidson diagonalization with overlap
     ethr =  4.69E-03,  avg # of iterations =  3.5

     negative rho (up, down):  1.014E+00 1.006E+00

     total cpu time spent up to now is      135.8 secs

     total energy              =   -2942.93108067 Ry
     estimated scf accuracy    <       3.08770765 Ry

     total magnetization       =    -0.06 Bohr mag/cell
     absolute magnetization    =     0.51 Bohr mag/cell

     iteration #  5     ecut=   120.00 Ry     beta= 0.70
     Davidson diagonalization with overlap
     ethr =  1.11E-03,  avg # of iterations =  8.0

     negative rho (up, down):  9.875E-01 9.841E-01

     total cpu time spent up to now is      159.5 secs

     total energy              =   -2943.08952350 Ry
     estimated scf accuracy    <       1.61326809 Ry

     total magnetization       =    -0.06 Bohr mag/cell
     absolute magnetization    =     0.28 Bohr mag/cell

     iteration #  6     ecut=   120.00 Ry     beta= 0.70
     Davidson diagonalization with overlap
     ethr =  5.82E-04,  avg # of iterations =  2.0

     negative rho (up, down):  9.738E-01 9.726E-01

     total cpu time spent up to now is      177.2 secs

     total energy              =   -2943.12511378 Ry
     estimated scf accuracy    <       1.05852241 Ry

     total magnetization       =    -0.04 Bohr mag/cell
     absolute magnetization    =     0.20 Bohr mag/cell

     iteration #  7     ecut=   120.00 Ry     beta= 0.70
     Davidson diagonalization with overlap
     ethr =  3.82E-04,  avg # of iterations =  2.0

     negative rho (up, down):  9.451E-01 9.451E-01

     total cpu time spent up to now is      204.3 secs

     total energy              =   -2943.07664942 Ry
     estimated scf accuracy    <       0.37585382 Ry

     total magnetization       =    -0.04 Bohr mag/cell
     absolute magnetization    =     0.17 Bohr mag/cell

     iteration #  8     ecut=   120.00 Ry     beta= 0.70
     Davidson diagonalization with overlap
     ethr =  1.36E-04,  avg # of iterations =  9.5

     negative rho (up, down):  9.210E-01 9.218E-01

     total cpu time spent up to now is      245.5 secs

     total energy              =   -2943.07544655 Ry
     estimated scf accuracy    <       0.23112636 Ry

     total magnetization       =    -0.04 Bohr mag/cell
     absolute magnetization    =     0.13 Bohr mag/cell

     iteration #  9     ecut=   120.00 Ry     beta= 0.70
     Davidson diagonalization with overlap
     ethr =  8.34E-05,  avg # of iterations =  2.0

     negative rho (up, down):  9.082E-01 9.084E-01

     total cpu time spent up to now is      275.0 secs

     total energy              =   -2943.07237739 Ry
     estimated scf accuracy    <       0.06245803 Ry

     total magnetization       =    -0.03 Bohr mag/cell
     absolute magnetization    =     0.10 Bohr mag/cell

     iteration # 10     ecut=   120.00 Ry     beta= 0.70
     Davidson diagonalization with overlap
     ethr =  2.25E-05,  avg # of iterations = 13.5

     negative rho (up, down):  9.083E-01 9.083E-01

     total cpu time spent up to now is      300.2 secs

     total energy              =   -2943.07621196 Ry
     estimated scf accuracy    <       0.04545605 Ry

     total magnetization       =    -0.03 Bohr mag/cell
     absolute magnetization    =     0.08 Bohr mag/cell

     iteration # 11     ecut=   120.00 Ry     beta= 0.70
     Davidson diagonalization with overlap
     ethr =  1.64E-05,  avg # of iterations =  2.0

     negative rho (up, down):  9.090E-01 9.090E-01

     total cpu time spent up to now is      318.3 secs

     total energy              =   -2943.08034421 Ry
     estimated scf accuracy    <       0.00897893 Ry

     total magnetization       =    -0.02 Bohr mag/cell
     absolute magnetization    =     0.07 Bohr mag/cell

     iteration # 12     ecut=   120.00 Ry     beta= 0.70
     Davidson diagonalization with overlap
     ethr =  3.24E-06,  avg # of iterations =  5.5

     negative rho (up, down):  9.091E-01 9.091E-01

     total cpu time spent up to now is      340.2 secs

     total energy              =   -2943.08313122 Ry
     estimated scf accuracy    <       0.00240472 Ry

     total magnetization       =    -0.02 Bohr mag/cell
     absolute magnetization    =     0.06 Bohr mag/cell

     iteration # 13     ecut=   120.00 Ry     beta= 0.70
     Davidson diagonalization with overlap
     ethr =  8.68E-07,  avg # of iterations =  3.0

     negative rho (up, down):  9.089E-01 9.089E-01

     Magnetic moment per site  (integrated on atomic sphere of radius R)
     atom   1 (R=0.112)  charge=  9.4634  magn= -0.0002
     atom   2 (R=0.112)  charge=  9.0589  magn=  0.0002
     atom   3 (R=0.112)  charge=  9.0576  magn=  0.0000
     atom   4 (R=0.112)  charge=  9.0586  magn=  0.0001
     atom   5 (R=0.112)  charge=  9.0618  magn=  0.0001
     atom   6 (R=0.110)  charge= 10.3494  magn= -0.0002
     atom   7 (R=0.110)  charge= 10.3534  magn= -0.0000
     atom   8 (R=0.088)  charge=  8.1279  magn= -0.0001
     atom   9 (R=0.088)  charge=  8.1250  magn=  0.0004
     atom  10 (R=0.088)  charge=  8.1063  magn= -0.0003
     atom  11 (R=0.088)  charge=  8.1046  magn=  0.0005
     atom  12 (R=0.088)  charge=  8.1070  magn= -0.0022
     atom  13 (R=0.088)  charge=  8.1054  magn= -0.0002
     atom  14 (R=0.088)  charge=  8.1066  magn= -0.0009
     atom  15 (R=0.088)  charge=  8.1038  magn=  0.0002
     atom  16 (R=0.088)  charge=  8.1055  magn= -0.0013
     atom  17 (R=0.088)  charge=  8.1122  magn=  0.0000
     atom  18 (R=0.108)  charge=  9.2256  magn=  0.0003
     atom  19 (R=0.108)  charge=  8.8224  magn= -0.0020
     atom  20 (R=0.108)  charge=  8.8200  magn=  0.0006
     atom  21 (R=0.108)  charge=  8.8184  magn= -0.0013
     atom  22 (R=0.108)  charge=  8.8154  magn=  0.0003
     atom  23 (R=0.088)  charge=  0.9992  magn= -0.0001

     total cpu time spent up to now is      372.4 secs

     End of self-consistent calculation

 ------ SPIN UP ------------


          k = 0.0000 0.0000 0.0000 ( 61588 PWs)   bands (ev):

   -60.7823 -60.7741 -60.7352 -60.7296 -60.6972 -60.6958 -60.6535 -60.6493
   -60.5107 -60.4540 -54.3909 -54.3423 -54.2606 -54.2141 -52.6909 -46.2875
   -46.2517 -41.6419 -41.6111 -41.5570 -41.5094 -39.7927 -27.7845 -27.7713
   -27.6947 -27.6871 -27.5964 -27.5827 -27.4643 -27.4515 -27.3877 -27.3340
   -27.3103 -27.2669 -27.2630 -27.2400 -27.2251 -27.1716 -27.1612 -27.1455
   -27.0998 -27.0820 -27.0394 -26.9710 -26.9593 -26.9503 -26.9478 -26.9297
   -26.8899 -26.8736 -26.8527 -26.8474 -24.1733 -23.9645 -23.6594 -23.5749
   -23.3170 -23.1934 -23.1698 -23.0662 -22.9334 -22.8692 -22.8444 -22.6254
   -22.5145 -22.4571 -22.3995 -22.3721 -22.2760 -22.2398 -21.7547 -21.6903
   -21.6207 -20.1815 -19.9425 -19.8176 -19.8034 -19.6241 -19.6049 -19.5875
   -19.5801 -19.5531 -19.5431 -19.3710 -19.3526 -18.1374 -17.9355 -17.8075
     1.4018   2.6367   2.9410   3.1389   3.3206   3.4067   3.4900   3.6876
     3.7057   3.7525   3.9181   4.0270   4.2324   4.5057   4.5998   4.7014
     4.7538   4.8802   5.0543   5.1085   5.1345   5.2646   5.2929   5.3019
     5.3908   5.5554   5.5700   5.7188   5.7370   5.7530   5.7677   5.8075
     5.9443   6.0765   6.1532   6.2192   6.2741   6.3183   6.3635   6.3819
     6.4493   6.6072   6.6669   6.6952   6.9130   6.9533   7.0210   7.0694
     7.1096   7.1509   7.2697   7.3154   7.3612   7.4620   7.5212   7.5895
     7.6277   7.7153   7.8952   7.9560   8.0887   8.0935   8.1262   8.1781
     8.2474   8.3230   8.3477   8.3681   8.4979   8.5291   8.6247   8.7441
     8.8001   8.9137   8.9625   9.0669   9.2024   9.2501   9.2796

 ------ SPIN DOWN ----------


          k = 0.0000 0.0000 0.0000 ( 61588 PWs)   bands (ev):

   -60.7823 -60.7752 -60.7352 -60.7304 -60.6986 -60.6955 -60.6532 -60.6509
   -60.5108 -60.4536 -54.3908 -54.3422 -54.2605 -54.2139 -52.6910 -46.2874
   -46.2519 -41.6413 -41.6128 -41.5564 -41.5110 -39.7924 -27.7843 -27.7730
   -27.6944 -27.6889 -27.5965 -27.5841 -27.4642 -27.4534 -27.3877 -27.3345
   -27.3108 -27.2672 -27.2636 -27.2402 -27.2260 -27.1716 -27.1625 -27.1455
   -27.0995 -27.0821 -27.0389 -26.9708 -26.9593 -26.9501 -26.9492 -26.9315
   -26.8897 -26.8756 -26.8523 -26.8493 -24.1732 -23.9644 -23.6594 -23.5749
   -23.3169 -23.1932 -23.1698 -23.0661 -22.9332 -22.8691 -22.8443 -22.6253
   -22.5145 -22.4571 -22.3996 -22.3721 -22.2762 -22.2398 -21.7548 -21.6904
   -21.6208 -20.1831 -19.9414 -19.8195 -19.8046 -19.6236 -19.6042 -19.5876
   -19.5820 -19.5547 -19.5428 -19.3701 -19.3543 -18.1372 -17.9352 -17.8075
     1.4016   2.6365   2.9400   3.1387   3.3204   3.4065   3.4895   3.6874
     3.7055   3.7522   3.9170   4.0263   4.2322   4.5055   4.5996   4.7007
     4.7535   4.8798   5.0535   5.1078   5.1337   5.2641   5.2925   5.3016
     5.3903   5.5550   5.5696   5.7185   5.7367   5.7524   5.7674   5.8071
     5.9443   6.0760   6.1525   6.2186   6.2739   6.3178   6.3631   6.3815
     6.4487   6.6067   6.6664   6.6945   6.9124   6.9527   7.0192   7.0682
     7.1071   7.1500   7.2680   7.3147   7.3588   7.4594   7.5211   7.5882
     7.6270   7.7148   7.8948   7.9556   8.0873   8.0922   8.1256   8.1765
     8.2454   8.3226   8.3470   8.3665   8.4974   8.5284   8.6239   8.7435
     8.7991   8.9108   8.9621   9.0661   9.2037   9.2499   9.2802

     the Fermi energy is     7.2524 ev

!    total energy              =   -2943.08443581 Ry
     estimated scf accuracy    <       0.00045109 Ry
     smearing contrib. (-TS)   =      -0.10076514 Ry
     internal energy E=F+TS    =   -2942.98367068 Ry

     total magnetization       =    -0.02 Bohr mag/cell
     absolute magnetization    =     0.05 Bohr mag/cell

     convergence has been achieved in  13 iterations

     negative rho (up, down):  9.089E-01 9.089E-01

     Forces acting on atoms (cartesian axes, Ry/au):

     atom    1 type  1   force =    -0.00314906   -0.02413193    0.00380262
     atom    2 type  1   force =    -0.11399760   -0.01543164   -0.00200110
     atom    3 type  1   force =    -0.11170199    0.01354257    0.00363263
     atom    4 type  1   force =     0.11226476   -0.01750234   -0.00699009
     atom    5 type  1   force =     0.11641683    0.01373396    0.00278418
     atom    6 type  2   force =    -0.01087036   -0.02025357    0.00387754
     atom    7 type  2   force =    -0.02479930    0.01073683   -0.01198982
     atom    8 type  3   force =    -0.11088122    0.00443638   -0.00271641
     atom    9 type  3   force =     0.13993874    0.00223289    0.01323656
     atom   10 type  3   force =    -0.02078556   -0.03098351   -0.05899614
     atom   11 type  3   force =    -0.02120718   -0.03441182    0.05693397
     atom   12 type  3   force =    -0.02061011    0.03587128   -0.05518935
     atom   13 type  3   force =    -0.01251340    0.03012452    0.06230936
     atom   14 type  3   force =     0.02361660   -0.02860871   -0.05710371
     atom   15 type  3   force =     0.01863524   -0.03861265    0.05605121
     atom   16 type  3   force =     0.02098717    0.03557839   -0.05056778
     atom   17 type  3   force =     0.01184280    0.04165142    0.05987087
     atom   18 type  4   force =    -0.00158403    0.02728938   -0.00832756
     atom   19 type  4   force =    -0.12988742   -0.00498722   -0.11669544
     atom   20 type  4   force =    -0.13201954    0.00645413    0.11406693
     atom   21 type  4   force =     0.12801696   -0.00782325   -0.11604550
     atom   22 type  4   force =     0.15966105    0.00740691    0.09770310
     atom   23 type  5   force =    -0.01737338   -0.00631200    0.01235391
     The non-local contrib.  to forces
     atom    1 type  1   force =     0.00052453   -0.01311094    0.03029017
     atom    2 type  1   force =    -0.24525074   -0.16412674    0.01453095
     atom    3 type  1   force =    -0.23921942    0.15736852   -0.02117936
     atom    4 type  1   force =     0.24805401   -0.16332412    0.02891467
     atom    5 type  1   force =     0.26316657    0.13773624    0.00234497
     atom    6 type  2   force =     0.00845033   -0.05390192   -0.06169472
     atom    7 type  2   force =    -0.01911444    0.06729737    0.05777912
     atom    8 type  3   force =    -0.26399094    0.00465284    0.00279181
     atom    9 type  3   force =     0.16916456   -0.01898465   -0.03203452
     atom   10 type  3   force =    -0.21288994    0.00526588   -0.20541040
     atom   11 type  3   force =    -0.21479502    0.00598650    0.19648954
     atom   12 type  3   force =    -0.20752899   -0.02129820   -0.17554823
     atom   13 type  3   force =    -0.20847885   -0.00552052    0.20318532
     atom   14 type  3   force =     0.21158496    0.00599503   -0.22006638
     atom   15 type  3   force =     0.22335452    0.00355220    0.18175516
     atom   16 type  3   force =     0.19824091   -0.01809938   -0.18734106
     atom   17 type  3   force =     0.24644031   -0.02776126    0.16122107
     atom   18 type  4   force =    -0.00180118    0.05670551   -0.06029772
     atom   19 type  4   force =     0.05959830    0.00813181    0.07435092
     atom   20 type  4   force =     0.05085257   -0.02092652   -0.06044222
     atom   21 type  4   force =    -0.05440589    0.01574498    0.07383999
     atom   22 type  4   force =    -0.05568837   -0.00737111   -0.08588080
     atom   23 type  5   force =    -0.03363912   -0.01506578   -0.01264543
     The ionic contribution  to forces
     atom    1 type  1   force =    -0.30315204   -4.79638449   13.99192255
     atom    2 type  1   force =   -39.68719161   -6.14799732    0.72090266
     atom    3 type  1   force =   -39.68009938    6.19197707   -0.79161613
     atom    4 type  1   force =    39.52470018   -6.23636184    0.65522475
     atom    5 type  1   force =    39.30324927    6.56696860   -0.99866768
     atom    6 type  2   force =    -0.14100451   -3.62705554  -14.01181334
     atom    7 type  2   force =    -0.63372418    3.75156942   13.96173531
     atom    8 type  3   force =   -52.15448387    0.01814606   -0.17867347
     atom    9 type  3   force =    50.83824336   -0.53978381   -1.15351102
     atom   10 type  3   force =   -36.05518784   -2.09688425  -23.05873641
     atom   11 type  3   force =   -35.14645821   -0.86806142   22.10373900
     atom   12 type  3   force =   -35.24392079    0.82293317  -22.12144405
     atom   13 type  3   force =   -36.06674687    2.25507536   23.10735078
     atom   14 type  3   force =    35.98409371   -2.11243566  -23.08821578
     atom   15 type  3   force =    34.98759718   -0.94300173   22.18576009
     atom   16 type  3   force =    35.14980802    0.86356979  -22.17469957
     atom   17 type  3   force =    35.74045279    2.53210611   23.33822793
     atom   18 type  4   force =    -0.19809314    4.39522861  -14.03478180
     atom   19 type  4   force =   -35.89931706    0.93820539  -25.52633815
     atom   20 type  4   force =   -35.92627221   -0.99508434   25.58213524
     atom   21 type  4   force =    35.78877086    0.91616799  -25.60966581
     atom   22 type  4   force =    35.24450258   -1.24465922   26.25538955
     atom   23 type  5   force =     4.57423375    0.35576205    0.84577535
     The local contribution  to forces
     atom    1 type  1   force =     0.29976633    4.78397778  -14.02068988
     atom    2 type  1   force =    39.84246905    6.29477778   -0.73551768
     atom    3 type  1   force =    39.83110703   -6.33245436    0.82001107
     atom    4 type  1   force =   -39.68403270    6.38160921   -0.69487705
     atom    5 type  1   force =   -39.47232869   -6.68972303    0.99895263
     atom    6 type  2   force =     0.12526796    3.65642178   14.07828300
     atom    7 type  2   force =     0.63090261   -3.80520116  -14.03242095
     atom    8 type  3   force =    52.34397557   -0.02093532    0.17284322
     atom    9 type  3   force =   -50.88726950    0.56391270    1.20617939
     atom   10 type  3   force =    36.27213543    2.05687233   23.22488148
     atom   11 type  3   force =    35.36856199    0.82102272  -22.26613307
     atom   12 type  3   force =    35.45493933   -0.75713197   22.26014643
     atom   13 type  3   force =    36.28950175   -2.20925933  -23.26741659
     atom   14 type  3   force =   -36.19414486    2.07022484   23.27207514
     atom   15 type  3   force =   -35.22307361    0.89238044  -22.33003664
     atom   16 type  3   force =   -35.34877951   -0.79687678   22.33238196
     atom   17 type  3   force =   -36.00328868   -2.45451862  -23.45666450
     atom   18 type  4   force =     0.20204025   -4.42358070   14.08879296
     atom   19 type  4   force =    35.71717197   -0.95436042   25.34929882
     atom   20 type  4   force =    35.75258983    1.01921109  -25.41982798
     atom   21 type  4   force =   -35.61249745   -0.94261755   25.43588834
     atom   22 type  4   force =   -35.03807883    1.25796578  -26.08882067
     atom   23 type  5   force =    -4.55830617   -0.34731991   -0.82120906
     The core correction contribution to forces
     atom    1 type  1   force =     0.00158187    0.00071722   -0.00008038
     atom    2 type  1   force =    -0.01214027   -0.00176976   -0.00012498
     atom    3 type  1   force =    -0.01272234    0.00244512   -0.00166832
     atom    4 type  1   force =     0.01313920   -0.00205378    0.00361455
     atom    5 type  1   force =     0.01394064    0.00245230    0.00113548
     atom    6 type  2   force =    -0.00048969    0.00247018    0.00252114
     atom    7 type  2   force =     0.00108444   -0.00343663   -0.00219934
     atom    8 type  3   force =    -0.03242534    0.00091202    0.00030583
     atom    9 type  3   force =     0.01918976   -0.00400687   -0.00626832
     atom   10 type  3   force =    -0.02184093    0.00955366   -0.01610458
     atom   11 type  3   force =    -0.02394738    0.00893338    0.01811054
     atom   12 type  3   force =    -0.02172687   -0.00999292   -0.01533160
     atom   13 type  3   force =    -0.02247307   -0.00942741    0.01621461
     atom   14 type  3   force =     0.02184379    0.00961136   -0.01649085
     atom   15 type  3   force =     0.02458298    0.00969996    0.01407363
     atom   16 type  3   force =     0.02222338   -0.01051133   -0.01627273
     atom   17 type  3   force =     0.02475554   -0.00888461    0.01296235
     atom   18 type  4   force =     0.00011728   -0.00288226    0.00289364
     atom   19 type  4   force =    -0.00968529    0.00007669   -0.00964059
     atom   20 type  4   force =    -0.00924729    0.00077721    0.00889989
     atom   21 type  4   force =     0.00938236   -0.00031205   -0.00971500
     atom   22 type  4   force =     0.00951488    0.00025224    0.01010915
     atom   23 type  5   force =     0.00000000    0.00000000    0.00000000
     The Hubbard contrib.    to forces
     atom    1 type  1   force =     0.00000000    0.00000000    0.00000000
     atom    2 type  1   force =     0.00000000    0.00000000    0.00000000
     atom    3 type  1   force =     0.00000000    0.00000000    0.00000000
     atom    4 type  1   force =     0.00000000    0.00000000    0.00000000
     atom    5 type  1   force =     0.00000000    0.00000000    0.00000000
     atom    6 type  2   force =     0.00000000    0.00000000    0.00000000
     atom    7 type  2   force =     0.00000000    0.00000000    0.00000000
     atom    8 type  3   force =     0.00000000    0.00000000    0.00000000
     atom    9 type  3   force =     0.00000000    0.00000000    0.00000000
     atom   10 type  3   force =     0.00000000    0.00000000    0.00000000
     atom   11 type  3   force =     0.00000000    0.00000000    0.00000000
     atom   12 type  3   force =     0.00000000    0.00000000    0.00000000
     atom   13 type  3   force =     0.00000000    0.00000000    0.00000000
     atom   14 type  3   force =     0.00000000    0.00000000    0.00000000
     atom   15 type  3   force =     0.00000000    0.00000000    0.00000000
     atom   16 type  3   force =     0.00000000    0.00000000    0.00000000
     atom   17 type  3   force =     0.00000000    0.00000000    0.00000000
     atom   18 type  4   force =     0.00000000    0.00000000    0.00000000
     atom   19 type  4   force =     0.00000000    0.00000000    0.00000000
     atom   20 type  4   force =     0.00000000    0.00000000    0.00000000
     atom   21 type  4   force =     0.00000000    0.00000000    0.00000000
     atom   22 type  4   force =     0.00000000    0.00000000    0.00000000
     atom   23 type  5   force =     0.00000000    0.00000000    0.00000000
     The SCF correction term to forces
     atom    1 type  1   force =    -0.00165884    0.00068068    0.00237603
     atom    2 type  1   force =    -0.01167311    0.00369659   -0.00177617
     atom    3 type  1   force =    -0.01055696   -0.00578159   -0.00189875
     atom    4 type  1   force =     0.01061498    0.00264037    0.00014887
     atom    5 type  1   force =     0.00859995   -0.00368797   -0.00096535
     atom    6 type  2   force =    -0.00288354    0.00182412   -0.00340267
     atom    7 type  2   force =    -0.00373681    0.00052000    0.00313192
     atom    8 type  3   force =    -0.00374573    0.00167297    0.00003207
     atom    9 type  3   force =     0.00082148    0.00110770   -0.00111310
     atom   10 type  3   force =    -0.00279137   -0.00577893   -0.00361035
     atom   11 type  3   force =    -0.00435765   -0.00228082    0.00474383
     atom   12 type  3   force =    -0.00216188    0.00137339   -0.00299602
     atom   13 type  3   force =    -0.00410544   -0.00073140    0.00299112
     atom   14 type  3   force =     0.00044990   -0.00199209   -0.00438997
     atom   15 type  3   force =     0.00638509   -0.00123133    0.00451484
     atom   16 type  3   force =    -0.00029473   -0.00249172   -0.00462051
     atom   17 type  3   force =     0.00369376    0.00072200    0.00413989
     atom   18 type  4   force =    -0.00363631    0.00183041   -0.00491876
     atom   19 type  4   force =     0.00255557    0.00297150   -0.00435056
     atom   20 type  4   force =     0.00026847    0.00248887    0.00331787
     atom   21 type  4   force =    -0.00302201    0.00320556   -0.00637714
     atom   22 type  4   force =    -0.00037830    0.00123141    0.00692175
     atom   23 type  5   force =     0.00054907    0.00032383    0.00044892

     Total force =     0.502827     Total SCF correction =     0.032806


     Computing stress (Cartesian axis) and pressure


     negative rho (up, down):  9.089E-01 9.089E-01
          total   stress  (Ry/bohr**3)                   (kbar)     P=       82.68
   0.00066050  -0.00000547   0.00001103           97.16       -0.80        1.62
  -0.00000547   0.00065729  -0.00000497           -0.80       96.69       -0.73
   0.00001103  -0.00000497   0.00036826            1.62       -0.73       54.17


     Molecular Dynamics Calculation

     Starting temperature  =   300.00 K

     temperature is set once at start

     mass Hf               =   178.49
     mass Nb               =    92.91
     mass Ta               =   180.95
     mass Zr               =    91.22
     mass H                =     2.01
     Time step             =     4.20 a.u.,  0.2032 femto-seconds

     Entering Dynamics:    iteration =     1
                           time      =   0.0002 pico-seconds


ATOMIC_POSITIONS (angstrom)
Hf            2.6700627178        2.8271537624        6.6040187639
Hf            1.2530502608        1.2863151642        5.0585206049
Hf            1.2555465450        7.3898361089        5.0881223078
Hf            4.0870753058        1.2863151048        5.0585204618
Hf            4.0845792065        7.3898361144        5.0881222835
Nb            2.6700622090        2.7969609147        3.5156378666
Nb            2.6700614412        5.8764106937        6.6350517185
Ta            1.2094327692        4.3409594027        5.0711801916
Ta            4.1306936694        4.3409593404        5.0711806431
Ta            1.3073149470        1.3141531381        2.0588318767
Ta            1.3028505652        1.3084215877        8.0946352498
Ta            1.3040718900        7.3758585648        2.0462900541
Ta            1.3077732954        7.3651152265        8.0860584204
Ta            4.0328107494        1.3141532053        2.0588319303
Ta            4.0372749783        1.3084214688        8.0946352248
Ta            4.0360537370        7.3758585565        2.0462901849
Ta            4.0323523019        7.3651155527        8.0860583513
Zr            2.6700627192        5.8663188008        3.5274378991
Zr            1.2438901790        4.3221091101        2.0000478855
Zr            1.2404408530        4.3541550724        8.1498163886
Zr            4.0962353323        4.3221089509        2.0000479220
Zr            4.0996863149        4.3541551259        8.1498154700
H             5.4404439672        4.9949145427        6.2065751866


     kinetic energy (Ekin) =           4.04936699 Ry
     temperature           =       19374.07516086 K 
     Ekin + Etot (const)   =       -2939.03506883 Ry
     Ions kinetic stress =           71.52 (kbar)
                                    107.27          53.63          92.90
                                     53.63          26.82          46.45
                                     92.90          46.45          80.47



     Linear momentum :   -0.0000000000   -0.0000000000    0.0000000000

     File outdir/pwscf.msd.dat deleted, as requested

     Writing config-only to output data dir outdir/pwscf.save/
     NEW-OLD atomic charge density approx. for the potential

     Check: negative core charge=   -0.000002

     negative rho (up, down):  9.088E-01 9.088E-01
     Generating pointlists ...
     new r_m :   0.0818 (alat units)  1.4441 (a.u.) for type    3
     new r_m :   0.0818 (alat units)  1.4441 (a.u.) for type    5

     total cpu time spent up to now is      433.2 secs

     Self-consistent Calculation

     iteration #  1     ecut=   120.00 Ry     beta= 0.70
     Davidson diagonalization with overlap
     ethr =  1.00E-06,  avg # of iterations =  8.5

     negative rho (up, down):  9.088E-01 9.088E-01

     total cpu time spent up to now is      465.1 secs

     total energy              =   -2943.08164057 Ry
     estimated scf accuracy    <       0.00761150 Ry

     total magnetization       =    -0.02 Bohr mag/cell
     absolute magnetization    =     0.04 Bohr mag/cell

     iteration #  2     ecut=   120.00 Ry     beta= 0.70
     Davidson diagonalization with overlap
     ethr =  2.75E-06,  avg # of iterations =  2.0

     negative rho (up, down):  9.088E-01 9.088E-01

     total cpu time spent up to now is      484.6 secs

     total energy              =   -2943.08211516 Ry
     estimated scf accuracy    <       0.00118393 Ry

     total magnetization       =    -0.02 Bohr mag/cell
     absolute magnetization    =     0.04 Bohr mag/cell

     iteration #  3     ecut=   120.00 Ry     beta= 0.70
     Davidson diagonalization with overlap
     ethr =  4.27E-07,  avg # of iterations =  2.0

     negative rho (up, down):  9.089E-01 9.089E-01

     Magnetic moment per site  (integrated on atomic sphere of radius R)
     atom   1 (R=0.112)  charge=  9.4635  magn= -0.0001
     atom   2 (R=0.112)  charge=  9.0570  magn=  0.0001
     atom   3 (R=0.112)  charge=  9.0569  magn= -0.0001
     atom   4 (R=0.112)  charge=  9.0581  magn= -0.0000
     atom   5 (R=0.112)  charge=  9.0597  magn= -0.0001
     atom   6 (R=0.110)  charge= 10.3501  magn= -0.0001
     atom   7 (R=0.110)  charge= 10.3530  magn= -0.0001
     atom   8 (R=0.082)  charge=  7.4398  magn= -0.0000
     atom   9 (R=0.082)  charge=  7.4414  magn=  0.0001
     atom  10 (R=0.082)  charge=  7.4214  magn= -0.0002
     atom  11 (R=0.082)  charge=  7.4176  magn=  0.0002
     atom  12 (R=0.082)  charge=  7.4256  magn= -0.0013
     atom  13 (R=0.082)  charge=  7.4191  magn= -0.0001
     atom  14 (R=0.082)  charge=  7.4209  magn= -0.0005
     atom  15 (R=0.082)  charge=  7.4204  magn=  0.0001
     atom  16 (R=0.082)  charge=  7.4217  magn= -0.0008
     atom  17 (R=0.082)  charge=  7.4251  magn= -0.0001
     atom  18 (R=0.108)  charge=  9.2268  magn=  0.0001
     atom  19 (R=0.108)  charge=  8.8211  magn= -0.0015
     atom  20 (R=0.108)  charge=  8.8159  magn=  0.0004
     atom  21 (R=0.108)  charge=  8.8189  magn= -0.0011
     atom  22 (R=0.108)  charge=  8.8131  magn=  0.0003
     atom  23 (R=0.082)  charge=  0.9604  magn= -0.0000

     total cpu time spent up to now is      503.5 secs

     End of self-consistent calculation

 ------ SPIN UP ------------


          k = 0.0000 0.0000 0.0000 ( 61588 PWs)   bands (ev):

   -60.7616 -60.7601 -60.7160 -60.7155 -60.6860 -60.6747 -60.6414 -60.6329
   -60.4907 -60.3512 -54.3753 -54.3280 -54.2462 -54.2003 -52.6792 -46.2720
   -46.2409 -41.6266 -41.5976 -41.5333 -41.4952 -39.7845 -27.7651 -27.7584
   -27.6761 -27.6745 -27.5762 -27.5676 -27.4480 -27.4399 -27.3551 -27.3171
   -27.2864 -27.2505 -27.2468 -27.2211 -27.2093 -27.1545 -27.1479 -27.1206
   -27.0589 -27.0279 -26.9686 -26.9397 -26.9360 -26.9312 -26.9174 -26.9023
   -26.8698 -26.8628 -26.8376 -26.8334 -24.1577 -23.9481 -23.6458 -23.5603
   -23.3031 -23.1774 -23.1555 -23.0516 -22.9186 -22.8554 -22.8290 -22.6112
   -22.5012 -22.4459 -22.3856 -22.3563 -22.2627 -22.2251 -21.7413 -21.6760
   -21.6091 -20.1674 -19.9259 -19.8049 -19.7875 -19.6141 -19.5819 -19.5718
   -19.5627 -19.5381 -19.5197 -19.3516 -19.3379 -18.1299 -17.9254 -17.7984
     1.3783   2.5046   2.9517   3.1557   3.3304   3.4311   3.5023   3.7040
     3.7244   3.7661   3.9336   4.0396   4.2532   4.5206   4.6190   4.7150
     4.7648   4.8965   5.0674   5.1210   5.1530   5.2786   5.3075   5.3156
     5.4049   5.5714   5.5891   5.7378   5.7516   5.7703   5.7838   5.8231
     5.9586   6.0908   6.1683   6.2359   6.2883   6.3349   6.3792   6.3935
     6.4628   6.6259   6.6818   6.7088   6.9290   6.9741   7.0338   7.0800
     7.1182   7.1632   7.2816   7.3264   7.3696   7.4721   7.5379   7.5936
     7.6368   7.7186   7.9091   7.9714   8.0925   8.1073   8.1381   8.1874
     8.2625   8.3410   8.3628   8.3815   8.5128   8.5479   8.6369   8.7558
     8.8170   8.9187   8.9775   9.0783   9.2165   9.2746   9.2998

 ------ SPIN DOWN ----------


          k = 0.0000 0.0000 0.0000 ( 61588 PWs)   bands (ev):

   -60.7617 -60.7610 -60.7163 -60.7159 -60.6871 -60.6746 -60.6425 -60.6327
   -60.4908 -60.3511 -54.3753 -54.3280 -54.2461 -54.2003 -52.6793 -46.2721
   -46.2410 -41.6263 -41.5989 -41.5329 -41.4964 -39.7844 -27.7653 -27.7595
   -27.6775 -27.6744 -27.5764 -27.5686 -27.4488 -27.4405 -27.3552 -27.3176
   -27.2867 -27.2512 -27.2470 -27.2218 -27.2097 -27.1555 -27.1480 -27.1207
   -27.0590 -27.0278 -26.9686 -26.9404 -26.9365 -26.9313 -26.9185 -26.9024
   -26.8698 -26.8643 -26.8390 -26.8331 -24.1577 -23.9481 -23.6458 -23.5603
   -23.3031 -23.1774 -23.1556 -23.0516 -22.9185 -22.8554 -22.8290 -22.6112
   -22.5012 -22.4460 -22.3857 -22.3564 -22.2629 -22.2252 -21.7414 -21.6761
   -21.6092 -20.1687 -19.9253 -19.8063 -19.7886 -19.6138 -19.5816 -19.5726
   -19.5632 -19.5393 -19.5195 -19.3511 -19.3395 -18.1298 -17.9253 -17.7984
     1.3780   2.5043   2.9508   3.1555   3.3302   3.4308   3.5017   3.7038
     3.7242   3.7657   3.9327   4.0390   4.2528   4.5203   4.6187   4.7144
     4.7644   4.8960   5.0667   5.1204   5.1522   5.2782   5.3071   5.3152
     5.4042   5.5710   5.5887   5.7374   5.7511   5.7699   5.7835   5.8227
     5.9583   6.0902   6.1676   6.2354   6.2880   6.3344   6.3787   6.3930
     6.4622   6.6253   6.6814   6.7083   6.9284   6.9735   7.0322   7.0787
     7.1159   7.1622   7.2800   7.3256   7.3675   7.4698   7.5374   7.5924
     7.6359   7.7179   7.9086   7.9709   8.0917   8.1060   8.1375   8.1860
     8.2607   8.3407   8.3619   8.3800   8.5122   8.5472   8.6362   8.7552
     8.8163   8.9171   8.9769   9.0779   9.2164   9.2739   9.2998

     the Fermi energy is     7.2638 ev

!    total energy              =   -2943.08200763 Ry
     estimated scf accuracy    <       0.00036957 Ry
     smearing contrib. (-TS)   =      -0.10146025 Ry
     internal energy E=F+TS    =   -2942.98054737 Ry

     total magnetization       =    -0.02 Bohr mag/cell
     absolute magnetization    =     0.03 Bohr mag/cell

     convergence has been achieved in   3 iterations

     negative rho (up, down):  9.089E-01 9.089E-01

     Forces acting on atoms (cartesian axes, Ry/au):

     atom    1 type  1   force =    -0.00212577   -0.02485291    0.00568406
     atom    2 type  1   force =    -0.12046137   -0.01506417   -0.00523783
     atom    3 type  1   force =    -0.11809898    0.01155887   -0.00175565
     atom    4 type  1   force =     0.11810680   -0.01708571   -0.00778011
     atom    5 type  1   force =     0.12140867    0.01295557    0.00041960
     atom    6 type  2   force =    -0.01173135   -0.02166139    0.00268577
     atom    7 type  2   force =    -0.02485407    0.01126732   -0.01023960
     atom    8 type  3   force =    -0.11401812    0.00575999   -0.00207914
     atom    9 type  3   force =     0.12405093   -0.00864402   -0.00506070
     atom   10 type  3   force =    -0.02164345   -0.03332259   -0.05836942
     atom   11 type  3   force =    -0.02317985   -0.03448117    0.05919787
     atom   12 type  3   force =    -0.02038771    0.03568964   -0.05498396
     atom   13 type  3   force =    -0.01343174    0.02923794    0.06491127
     atom   14 type  3   force =     0.02395567   -0.02924836   -0.05730997
     atom   15 type  3   force =     0.02184157   -0.03884549    0.05818362
     atom   16 type  3   force =     0.02007860    0.03419926   -0.05114644
     atom   17 type  3   force =     0.01308532    0.04193995    0.06265906
     atom   18 type  4   force =    -0.00353643    0.03116640   -0.01229361
     atom   19 type  4   force =    -0.12942280   -0.00272014   -0.11674787
     atom   20 type  4   force =    -0.13191969    0.00677727    0.11549799
     atom   21 type  4   force =     0.12712255   -0.00612052   -0.11814656
     atom   22 type  4   force =     0.15511460    0.00646772    0.10057470
     atom   23 type  5   force =     0.01004662    0.00502653    0.03133693
     The non-local contrib.  to forces
     atom    1 type  1   force =     0.00029005   -0.01447538    0.03128513
     atom    2 type  1   force =    -0.24866358   -0.16274212    0.01288002
     atom    3 type  1   force =    -0.24314764    0.15523631   -0.02405169
     atom    4 type  1   force =     0.25089060   -0.16246987    0.02821381
     atom    5 type  1   force =     0.26455451    0.13724493   -0.00122157
     atom    6 type  2   force =     0.00990136   -0.05610134   -0.06299459
     atom    7 type  2   force =    -0.01631867    0.06878667    0.05904848
     atom    8 type  3   force =    -0.26328990    0.00496374    0.00114497
     atom    9 type  3   force =     0.14609202   -0.02923078   -0.05167222
     atom   10 type  3   force =    -0.21157831    0.00236755   -0.20638861
     atom   11 type  3   force =    -0.21486916    0.00676997    0.19720544
     atom   12 type  3   force =    -0.20447214   -0.02124756   -0.17608634
     atom   13 type  3   force =    -0.20632114   -0.00732057    0.20454371
     atom   14 type  3   force =     0.20904427    0.00523472   -0.22135978
     atom   15 type  3   force =     0.22294900    0.00264243    0.18298878
     atom   16 type  3   force =     0.19440377   -0.01941056   -0.18865337
     atom   17 type  3   force =     0.24096504   -0.02438748    0.16763623
     atom   18 type  4   force =    -0.00426682    0.05912723   -0.06350843
     atom   19 type  4   force =     0.06031589    0.01059801    0.07390204
     atom   20 type  4   force =     0.05123453   -0.01986467   -0.05975976
     atom   21 type  4   force =    -0.05544582    0.01703078    0.07239785
     atom   22 type  4   force =    -0.05652254   -0.00836897   -0.08066168
     atom   23 type  5   force =    -0.04060916   -0.01921057   -0.02035739
     The ionic contribution  to forces
     atom    1 type  1   force =    -0.32825558   -4.81638122   14.00877341
     atom    2 type  1   force =   -39.69666893   -6.15243384    0.72333165
     atom    3 type  1   force =   -39.69413961    6.19517654   -0.78759415
     atom    4 type  1   force =    39.52456608   -6.25715544    0.65643532
     atom    5 type  1   force =    39.31065985    6.59978845   -0.99018050
     atom    6 type  2   force =    -0.15612682   -3.63848118  -14.02596649
     atom    7 type  2   force =    -0.66996779    3.78019053   13.99322356
     atom    8 type  3   force =   -52.18371864    0.01917366   -0.17582828
     atom    9 type  3   force =    50.62125036   -0.64786195   -1.34011415
     atom   10 type  3   force =   -36.05961414   -2.09879519  -23.06344518
     atom   11 type  3   force =   -35.15394706   -0.87080654   22.10702427
     atom   12 type  3   force =   -35.24930520    0.82401543  -22.12672247
     atom   13 type  3   force =   -36.07647488    2.25435662   23.11020818
     atom   14 type  3   force =    35.98481294   -2.11706553  -23.09759457
     atom   15 type  3   force =    34.99363273   -0.95207021   22.19497566
     atom   16 type  3   force =    35.15141940    0.86802364  -22.18678076
     atom   17 type  3   force =    35.76778603    2.52211107   23.34086383
     atom   18 type  4   force =    -0.21742235    4.40626210  -14.05261349
     atom   19 type  4   force =   -35.90618081    0.93884229  -25.53331378
     atom   20 type  4   force =   -35.94254997   -0.99220829   25.58773457
     atom   21 type  4   force =    35.78817592    0.91600203  -25.63223308
     atom   22 type  4   force =    35.28530420   -1.22405694   26.29663763
     atom   23 type  5   force =     4.90676427    0.44337396    0.99317882
     The local contribution  to forces
     atom    1 type  1   force =     0.32621147    4.80101930  -14.03617428
     atom    2 type  1   force =    39.82781922    6.29971160   -0.75134567
     atom    3 type  1   force =    39.82176832   -6.34131894    0.79657327
     atom    4 type  1   force =   -39.66440534    6.40308357   -0.69983403
     atom    5 type  1   force =   -39.46247158   -6.72551364    0.98253528
     atom    6 type  2   force =     0.12889304    3.66353083   14.07778807
     atom    7 type  2   force =     0.65987228   -3.82829231  -14.06202284
     atom    8 type  3   force =    52.35706741   -0.01707403    0.16155873
     atom    9 type  3   force =   -50.64225291    0.68131563    1.39974489
     atom   10 type  3   force =    36.26109778    2.03747409   23.22485182
     atom   11 type  3   force =    35.36256763    0.81717242  -22.25614777
     atom   12 type  3   force =    35.44689230   -0.75535647   22.25990096
     atom   13 type  3   force =    36.28377962   -2.20858200  -23.25640632
     atom   14 type  3   force =   -36.19050927    2.06552370   23.27357609
     atom   15 type  3   force =   -35.20708421    0.89719435  -22.32742545
     atom   16 type  3   force =   -35.35326555   -0.80495928   22.33529049
     atom   17 type  3   force =   -36.01223899   -2.44191018  -23.44974697
     atom   18 type  4   force =     0.20913199   -4.41751097   14.08252467
     atom   19 type  4   force =    35.72120338   -0.94263860   25.34943605
     atom   20 type  4   force =    35.76490192    1.02057318  -25.41394150
     atom   21 type  4   force =   -35.61524654   -0.93300259   25.44529457
     atom   22 type  4   force =   -35.08625692    1.23611609  -26.11496188
     atom   23 type  5   force =    -4.85772198   -0.41971577   -0.94471553
     The core correction contribution to forces
     atom    1 type  1   force =     0.00167955    0.00055287   -0.00015123
     atom    2 type  1   force =    -0.01213940   -0.00167248   -0.00008309
     atom    3 type  1   force =    -0.01277419    0.00241885   -0.00162276
     atom    4 type  1   force =     0.01309813   -0.00204851    0.00354386
     atom    5 type  1   force =     0.01389305    0.00227800    0.00091532
     atom    6 type  2   force =    -0.00052606    0.00264946    0.00265322
     atom    7 type  2   force =     0.00094594   -0.00346368   -0.00222601
     atom    8 type  3   force =    -0.03201464    0.00089247    0.00029599
     atom    9 type  3   force =     0.01670115   -0.00489654   -0.00834227
     atom   10 type  3   force =    -0.02153751    0.00962561   -0.01598821
     atom   11 type  3   force =    -0.02411784    0.00902697    0.01816955
     atom   12 type  3   force =    -0.02148198   -0.01006385   -0.01523593
     atom   13 type  3   force =    -0.02227214   -0.00956567    0.01622395
     atom   14 type  3   force =     0.02172682    0.00940390   -0.01659916
     atom   15 type  3   force =     0.02440687    0.00970053    0.01407566
     atom   16 type  3   force =     0.02205162   -0.01038952   -0.01626486
     atom   17 type  3   force =     0.02445381   -0.00903336    0.01336705
     atom   18 type  4   force =     0.00018742   -0.00290102    0.00294348
     atom   19 type  4   force =    -0.00971279    0.00002381   -0.00968994
     atom   20 type  4   force =    -0.00927758    0.00076168    0.00892846
     atom   21 type  4   force =     0.00937403   -0.00031954   -0.00975072
     atom   22 type  4   force =     0.00963019    0.00034155    0.00987616
     atom   23 type  5   force =     0.00000000    0.00000000    0.00000000
     The Hubbard contrib.    to forces
     atom    1 type  1   force =     0.00000000    0.00000000    0.00000000
     atom    2 type  1   force =     0.00000000    0.00000000    0.00000000
     atom    3 type  1   force =     0.00000000    0.00000000    0.00000000
     atom    4 type  1   force =     0.00000000    0.00000000    0.00000000
     atom    5 type  1   force =     0.00000000    0.00000000    0.00000000
     atom    6 type  2   force =     0.00000000    0.00000000    0.00000000
     atom    7 type  2   force =     0.00000000    0.00000000    0.00000000
     atom    8 type  3   force =     0.00000000    0.00000000    0.00000000
     atom    9 type  3   force =     0.00000000    0.00000000    0.00000000
     atom   10 type  3   force =     0.00000000    0.00000000    0.00000000
     atom   11 type  3   force =     0.00000000    0.00000000    0.00000000
     atom   12 type  3   force =     0.00000000    0.00000000    0.00000000
     atom   13 type  3   force =     0.00000000    0.00000000    0.00000000
     atom   14 type  3   force =     0.00000000    0.00000000    0.00000000
     atom   15 type  3   force =     0.00000000    0.00000000    0.00000000
     atom   16 type  3   force =     0.00000000    0.00000000    0.00000000
     atom   17 type  3   force =     0.00000000    0.00000000    0.00000000
     atom   18 type  4   force =     0.00000000    0.00000000    0.00000000
     atom   19 type  4   force =     0.00000000    0.00000000    0.00000000
     atom   20 type  4   force =     0.00000000    0.00000000    0.00000000
     atom   21 type  4   force =     0.00000000    0.00000000    0.00000000
     atom   22 type  4   force =     0.00000000    0.00000000    0.00000000
     atom   23 type  5   force =     0.00000000    0.00000000    0.00000000
     The SCF correction term to forces
     atom    1 type  1   force =    -0.00225429    0.00442369    0.00139591
     atom    2 type  1   force =     0.00898828    0.00206484    0.00942414
     atom    3 type  1   force =     0.00999111    0.00003828    0.01438456
     atom    4 type  1   force =    -0.00624569    0.00149671    0.00330581
     atom    5 type  1   force =    -0.00543019   -0.00085001    0.00781594
     atom    6 type  2   force =     0.00592410    0.00673301    0.01065044
     atom    7 type  2   force =     0.00041115   -0.00596173    0.00118209
     atom    8 type  3   force =     0.00773462   -0.00220369    0.01019432
     atom    9 type  3   force =    -0.01794272   -0.00797821   -0.00523209
     atom   10 type  3   force =     0.00978570    0.01599751    0.00204563
     atom   11 type  3   force =     0.00698355    0.00334817   -0.00760875
     atom   12 type  3   force =     0.00777627   -0.00166574    0.00260469
     atom   13 type  3   force =     0.00765377    0.00034172   -0.01021338
     atom   14 type  3   force =    -0.00132211    0.00764701    0.00411232
     atom   15 type  3   force =    -0.01226583    0.00367958   -0.00698615
     atom   16 type  3   force =     0.00526633    0.00092714    0.00470693
     atom   17 type  3   force =    -0.00808358   -0.00484793   -0.01001620
     atom   18 type  4   force =     0.00863030   -0.01381877    0.01780503
     atom   19 type  4   force =     0.00474850   -0.00955349    0.00236263
     atom   20 type  4   force =     0.00356838   -0.00249248   -0.00801890
     atom   21 type  4   force =     0.00006193   -0.00583903    0.00558970
     atom   22 type  4   force =     0.00275664    0.00242816   -0.01087066
     atom   23 type  5   force =     0.00141046    0.00057107    0.00267590

     Total force =     0.506759     Total SCF correction =     0.060757
     SCF correction compared to forces is large: reduce conv_thr to get better values


     Computing stress (Cartesian axis) and pressure


     negative rho (up, down):  9.089E-01 9.089E-01
          total   stress  (Ry/bohr**3)                   (kbar)     P=       83.25
   0.00066116  -0.00000013   0.00001360           97.26       -0.02        2.00
  -0.00000013   0.00066636  -0.00000061           -0.02       98.02       -0.09
   0.00001360  -0.00000061   0.00037033            2.00       -0.09       54.48


     Entering Dynamics:    iteration =     2
                           time      =   0.0004 pico-seconds


ATOMIC_POSITIONS (angstrom)
Hf            2.6701253566        2.8271830696        6.6040736353
Hf            1.2531029294        1.2863452827        5.0585746831
Hf            1.2555994150        7.3898685862        5.0881767475
Hf            4.0871481546        1.2863450479        5.0585742510
Hf            4.0846523639        7.3898686774        5.0881768236
Nb            2.6701231677        2.7969888361        3.5156928126
Nb            2.6701201857        5.8764439531        6.6351043651
Ta            1.2094860290        4.3409912798        5.0712344333
Ta            4.1307675021        4.3409903399        5.0712351675
Ta            1.3073759849        1.3141818008        2.0588813396
Ta            1.3029115042        1.3084500878        8.0946946479
Ta            1.3041330039        7.3758930256        2.0463398164
Ta            1.3078350322        7.3651491594        8.0861182939
Ta            4.0328756248        1.3141821658        2.0588815067
Ta            4.0373395931        1.3084496030        8.0946945405
Ta            4.0361183185        7.3758929246        2.0463402952
Ta            4.0324162288        7.3651505308        8.0861180284
Zr            2.6701250844        5.8663552573        3.5274904877
Zr            1.2439312087        4.3221399503        2.0000826639
Zr            1.2404814827        4.3541876211        8.1498901948
Zr            4.0963196416        4.3221392502        2.0000825799
Zr            4.0997755432        4.3541876933        8.1498866822
H             5.3360986034        4.9427479151        6.1163850623


     kinetic energy (Ekin) =           4.04644261 Ry
     temperature           =       19360.08358175 K 
     Ekin + Etot (const)   =       -2939.03556501 Ry
     Ions kinetic stress =           71.46 (kbar)
                                    107.31          53.65          92.81
                                     53.65          26.82          46.40
                                     92.81          46.40          80.27



     Linear momentum :   -0.0000000000   -0.0000000000   -0.0000000000

     Writing config-only to output data dir outdir/pwscf.save/
     NEW-OLD atomic charge density approx. for the potential

     Check: negative core charge=   -0.000002

     negative rho (up, down):  9.088E-01 9.088E-01
     Generating pointlists ...
     new r_m :   0.0753 (alat units)  1.3291 (a.u.) for type    3
     new r_m :   0.0753 (alat units)  1.3291 (a.u.) for type    5

     total cpu time spent up to now is      556.9 secs

     Self-consistent Calculation

     iteration #  1     ecut=   120.00 Ry     beta= 0.70
     Davidson diagonalization with overlap
     ethr =  1.00E-06,  avg # of iterations =  7.0

     negative rho (up, down):  9.089E-01 9.089E-01

     total cpu time spent up to now is      608.2 secs

     total energy              =   -2943.05777153 Ry
     estimated scf accuracy    <       0.07951785 Ry

     total magnetization       =    -0.02 Bohr mag/cell
     absolute magnetization    =     0.03 Bohr mag/cell

     iteration #  2     ecut=   120.00 Ry     beta= 0.70
     Davidson diagonalization with overlap
     ethr =  2.87E-05,  avg # of iterations =  2.0

     negative rho (up, down):  9.090E-01 9.090E-01

     total cpu time spent up to now is      627.5 secs

     total energy              =   -2943.06376246 Ry
     estimated scf accuracy    <       0.04142325 Ry

     total magnetization       =    -0.02 Bohr mag/cell
     absolute magnetization    =     0.03 Bohr mag/cell

     iteration #  3     ecut=   120.00 Ry     beta= 0.70
     Davidson diagonalization with overlap
     ethr =  1.50E-05,  avg # of iterations =  1.0

     negative rho (up, down):  9.089E-01 9.089E-01

     total cpu time spent up to now is      644.2 secs

     total energy              =   -2943.06612849 Ry
     estimated scf accuracy    <       0.00176128 Ry

     total magnetization       =    -0.02 Bohr mag/cell
     absolute magnetization    =     0.03 Bohr mag/cell

     iteration #  4     ecut=   120.00 Ry     beta= 0.70
     Davidson diagonalization with overlap
     ethr =  6.36E-07,  avg # of iterations =  2.0

     negative rho (up, down):  9.088E-01 9.088E-01

     Magnetic moment per site  (integrated on atomic sphere of radius R)
     atom   1 (R=0.112)  charge=  9.4642  magn= -0.0001
     atom   2 (R=0.112)  charge=  9.0588  magn=  0.0000
     atom   3 (R=0.112)  charge=  9.0588  magn= -0.0001
     atom   4 (R=0.112)  charge=  9.0595  magn= -0.0000
     atom   5 (R=0.112)  charge=  9.0616  magn= -0.0001
     atom   6 (R=0.110)  charge= 10.3497  magn= -0.0000
     atom   7 (R=0.110)  charge= 10.3523  magn= -0.0001
     atom   8 (R=0.075)  charge=  6.6201  magn= -0.0000
     atom   9 (R=0.075)  charge=  6.6312  magn= -0.0000
     atom  10 (R=0.075)  charge=  6.6039  magn= -0.0002
     atom  11 (R=0.075)  charge=  6.6032  magn=  0.0000
     atom  12 (R=0.075)  charge=  6.6009  magn= -0.0008
     atom  13 (R=0.075)  charge=  6.6038  magn= -0.0001
     atom  14 (R=0.075)  charge=  6.6035  magn= -0.0003
     atom  15 (R=0.075)  charge=  6.6008  magn=  0.0000
     atom  16 (R=0.075)  charge=  6.6030  magn= -0.0005
     atom  17 (R=0.075)  charge=  6.6050  magn= -0.0001
     atom  18 (R=0.108)  charge=  9.2278  magn=  0.0001
     atom  19 (R=0.108)  charge=  8.8226  magn= -0.0011
     atom  20 (R=0.108)  charge=  8.8220  magn=  0.0002
     atom  21 (R=0.108)  charge=  8.8212  magn= -0.0009
     atom  22 (R=0.108)  charge=  8.8176  magn=  0.0002
     atom  23 (R=0.075)  charge=  0.9251  magn= -0.0000

     total cpu time spent up to now is      663.9 secs

     End of self-consistent calculation

 ------ SPIN UP ------------


          k = 0.0000 0.0000 0.0000 ( 61588 PWs)   bands (ev):

   -60.7715 -60.7681 -60.7223 -60.7197 -60.6896 -60.6828 -60.6416 -60.6333
   -60.4934 -60.2753 -54.3817 -54.3364 -54.2525 -54.2070 -52.6753 -46.2684
   -46.2503 -41.6450 -41.6092 -41.5473 -41.5049 -39.7982 -27.7711 -27.7641
   -27.6821 -27.6779 -27.5825 -27.5759 -27.4533 -27.4412 -27.3526 -27.3247
   -27.2882 -27.2567 -27.2522 -27.2247 -27.2146 -27.1593 -27.1444 -27.1239
   -27.0610 -26.9837 -26.9483 -26.9439 -26.9364 -26.9225 -26.9130 -26.8787
   -26.8763 -26.8612 -26.8414 -26.8360 -24.1639 -23.9546 -23.6524 -23.5688
   -23.3091 -23.1820 -23.1628 -23.0567 -22.9247 -22.8643 -22.8363 -22.6194
   -22.5042 -22.4533 -22.3908 -22.3583 -22.2693 -22.2302 -21.7420 -21.6752
   -21.6075 -20.1784 -19.9443 -19.8185 -19.7953 -19.6314 -19.5965 -19.5849
   -19.5764 -19.5462 -19.5320 -19.3685 -19.3484 -18.1432 -17.9375 -17.8117
     1.3168   2.3491   2.9432   3.1466   3.3166   3.4322   3.4929   3.6979
     3.7217   3.7566   3.9263   4.0287   4.2485   4.5090   4.6156   4.7030
     4.7506   4.8909   5.0611   5.1139   5.1533   5.2732   5.2982   5.3091
     5.3997   5.5643   5.5873   5.7320   5.7441   5.7630   5.7789   5.8175
     5.9492   6.0861   6.1646   6.2310   6.2798   6.3291   6.3713   6.3813
     6.4563   6.6234   6.6766   6.7032   6.9226   6.9727   7.0249   7.0777
     7.1160   7.1584   7.2743   7.3175   7.3590   7.4630   7.5336   7.5744
     7.6277   7.7041   7.9043   7.9686   8.0831   8.0992   8.1318   8.1789
     8.2574   8.3360   8.3569   8.3740   8.5076   8.5439   8.6286   8.7450
     8.8156   8.9168   8.9726   9.0738   9.2044   9.2745   9.2926

 ------ SPIN DOWN ----------


          k = 0.0000 0.0000 0.0000 ( 61588 PWs)   bands (ev):

   -60.7716 -60.7687 -60.7228 -60.7197 -60.6903 -60.6827 -60.6416 -60.6343
   -60.4934 -60.2753 -54.3818 -54.3364 -54.2525 -54.2071 -52.6753 -46.2685
   -46.2504 -41.6448 -41.6102 -41.5471 -41.5058 -39.7982 -27.7713 -27.7650
   -27.6822 -27.6790 -27.5827 -27.5766 -27.4533 -27.4423 -27.3527 -27.3252
   -27.2885 -27.2573 -27.2523 -27.2251 -27.2150 -27.1593 -27.1456 -27.1240
   -27.0611 -26.9837 -26.9484 -26.9448 -26.9367 -26.9231 -26.9132 -26.8788
   -26.8764 -26.8623 -26.8414 -26.8370 -24.1639 -23.9547 -23.6524 -23.5689
   -23.3091 -23.1821 -23.1629 -23.0568 -22.9248 -22.8643 -22.8363 -22.6195
   -22.5043 -22.4533 -22.3909 -22.3584 -22.2694 -22.2303 -21.7421 -21.6753
   -21.6075 -20.1794 -19.9439 -19.8196 -19.7961 -19.6311 -19.5963 -19.5855
   -19.5768 -19.5471 -19.5319 -19.3682 -19.3497 -18.1432 -17.9375 -17.8118
     1.3165   2.3489   2.9424   3.1464   3.3163   3.4319   3.4924   3.6978
     3.7215   3.7563   3.9256   4.0282   4.2482   4.5087   4.6153   4.7026
     4.7503   4.8904   5.0605   5.1134   5.1526   5.2729   5.2979   5.3087
     5.3990   5.5640   5.5870   5.7317   5.7436   5.7626   5.7785   5.8172
     5.9490   6.0856   6.1640   6.2306   6.2795   6.3286   6.3709   6.3809
     6.4558   6.6229   6.6762   6.7027   6.9220   6.9722   7.0234   7.0765
     7.1141   7.1576   7.2728   7.3166   7.3574   7.4610   7.5330   7.5732
     7.6269   7.7035   7.9038   7.9681   8.0823   8.0981   8.1313   8.1777
     8.2559   8.3357   8.3562   8.3727   8.5070   8.5433   8.6280   8.7444
     8.8150   8.9153   8.9720   9.0732   9.2042   9.2738   9.2921

     the Fermi energy is     7.2569 ev

!    total energy              =   -2943.06599518 Ry
     estimated scf accuracy    <       0.00040021 Ry
     smearing contrib. (-TS)   =      -0.10257256 Ry
     internal energy E=F+TS    =   -2942.96342262 Ry

     total magnetization       =    -0.02 Bohr mag/cell
     absolute magnetization    =     0.03 Bohr mag/cell

     convergence has been achieved in   4 iterations

     negative rho (up, down):  9.088E-01 9.088E-01

     Forces acting on atoms (cartesian axes, Ry/au):

     atom    1 type  1   force =    -0.00469056   -0.02249639    0.00619315
     atom    2 type  1   force =    -0.11478881   -0.01327078    0.00234938
     atom    3 type  1   force =    -0.11132733    0.01143804    0.00859381
     atom    4 type  1   force =     0.11208024   -0.01588334   -0.00562586
     atom    5 type  1   force =     0.11586969    0.01293836    0.00539191
     atom    6 type  2   force =    -0.01178466   -0.02211856    0.00168261
     atom    7 type  2   force =    -0.02537384    0.01163420   -0.01105743
     atom    8 type  3   force =    -0.11477103    0.00612621    0.00134583
     atom    9 type  3   force =     0.07943817   -0.03289469   -0.04560642
     atom   10 type  3   force =    -0.01805685   -0.02690202   -0.05807525
     atom   11 type  3   force =    -0.02193926   -0.03302774    0.05457119
     atom   12 type  3   force =    -0.01915327    0.03439586   -0.05573486
     atom   13 type  3   force =    -0.01157960    0.02988602    0.05919211
     atom   14 type  3   force =     0.02233232   -0.02673044   -0.05712418
     atom   15 type  3   force =     0.01808354   -0.03798983    0.05443102
     atom   16 type  3   force =     0.02151501    0.03387084   -0.05041548
     atom   17 type  3   force =     0.00943417    0.04016530    0.05757563
     atom   18 type  4   force =    -0.00071039    0.02705197   -0.00896207
     atom   19 type  4   force =    -0.12704258   -0.00642457   -0.11599850
     atom   20 type  4   force =    -0.13041332    0.00472974    0.11116525
     atom   21 type  4   force =     0.12615846   -0.00755208   -0.11880827
     atom   22 type  4   force =     0.14941999    0.00646924    0.09787464
     atom   23 type  5   force =     0.05729992    0.02658466    0.06704179
     The non-local contrib.  to forces
     atom    1 type  1   force =    -0.00135119   -0.01227870    0.03211536
     atom    2 type  1   force =    -0.24468871   -0.16262725    0.01824139
     atom    3 type  1   force =    -0.23900252    0.15577581   -0.01774566
     atom    4 type  1   force =     0.24754931   -0.16301208    0.02961280
     atom    5 type  1   force =     0.26017336    0.13933626   -0.00110038
     atom    6 type  2   force =     0.01113425   -0.05596361   -0.06324150
     atom    7 type  2   force =    -0.01373709    0.06748055    0.05931175
     atom    8 type  3   force =    -0.25862579    0.00368576    0.00312742
     atom    9 type  3   force =     0.11864571   -0.04200727   -0.07385083
     atom   10 type  3   force =    -0.21080346    0.00590883   -0.20820948
     atom   11 type  3   force =    -0.21403820    0.00983935    0.19371710
     atom   12 type  3   force =    -0.20461062   -0.02238175   -0.17634651
     atom   13 type  3   force =    -0.20378646   -0.00811320    0.20033374
     atom   14 type  3   force =     0.20973304    0.00766278   -0.22105544
     atom   15 type  3   force =     0.21981563    0.00277487    0.18132260
     atom   16 type  3   force =     0.19675402   -0.01983963   -0.18749665
     atom   17 type  3   force =     0.23268107   -0.01979590    0.17148990
     atom   18 type  4   force =    -0.00231134    0.05641721   -0.05874913
     atom   19 type  4   force =     0.06271870    0.00754863    0.07467094
     atom   20 type  4   force =     0.05255004   -0.02016982   -0.06245525
     atom   21 type  4   force =    -0.05628517    0.01525450    0.07285832
     atom   22 type  4   force =    -0.05767992   -0.00863824   -0.07922629
     atom   23 type  5   force =    -0.04920110   -0.02453243   -0.03026675
     The ionic contribution  to forces
     atom    1 type  1   force =    -0.35371563   -4.83743346   14.02823150
     atom    2 type  1   force =   -39.70639368   -6.15718204    0.72588380
     atom    3 type  1   force =   -39.70783100    6.19867997   -0.78348268
     atom    4 type  1   force =    39.52510290   -6.27977258    0.65834174
     atom    5 type  1   force =    39.32183567    6.63048546   -0.97842926
     atom    6 type  2   force =    -0.17257075   -3.65116470  -14.04148307
     atom    7 type  2   force =    -0.70238421    3.81077135   14.02823243
     atom    8 type  3   force =   -52.21475137    0.02014090   -0.17301654
     atom    9 type  3   force =    50.34649227   -0.78468805   -1.57683183
     atom   10 type  3   force =   -36.06406397   -2.10076143  -23.06809489
     atom   11 type  3   force =   -35.16093825   -0.87347132   22.11014893
     atom   12 type  3   force =   -35.25463974    0.82515168  -22.13185753
     atom   13 type  3   force =   -36.08480700    2.25363758   23.11280835
     atom   14 type  3   force =    35.98560415   -2.12205170  -23.10712066
     atom   15 type  3   force =    35.00015931   -0.96034885   22.20366707
     atom   16 type  3   force =    35.15326087    0.87265869  -22.19855084
     atom   17 type  3   force =    35.79449227    2.50984846   23.34067345
     atom   18 type  4   force =    -0.23779855    4.41885173  -14.07164751
     atom   19 type  4   force =   -35.91316040    0.93946290  -25.54016606
     atom   20 type  4   force =   -35.95733149   -0.98941898   25.59317268
     atom   21 type  4   force =    35.78754532    0.91591729  -25.65594569
     atom   22 type  4   force =    35.33244356   -1.20035618   26.32750331
     atom   23 type  5   force =     5.28344970    0.56104328    1.19796332
     The local contribution  to forces
     atom    1 type  1   force =     0.34321126    4.82900254  -14.04921803
     atom    2 type  1   force =    39.85650214    6.31065949   -0.72625108
     atom    3 type  1   force =    39.85992879   -6.34480127    0.83146089
     atom    4 type  1   force =   -39.68117936    6.42996998   -0.69031617
     atom    5 type  1   force =   -39.48843163   -6.75968065    0.99380963
     atom    6 type  2   force =     0.15196906    3.68410856   14.10988861
     atom    7 type  2   force =     0.68806408   -3.86697272  -14.09339244
     atom    8 type  3   force =    52.39541690   -0.02072384    0.18581959
     atom    9 type  3   force =   -50.39766790    0.80398561    1.63272994
     atom   10 type  3   force =    36.29295402    2.08405544   23.24057664
     atom   11 type  3   force =    35.38168414    0.82946205  -22.28077595
     atom   12 type  3   force =    35.47700160   -0.76418300   22.27661233
     atom   13 type  3   force =    36.30554664   -2.20656333  -23.28707226
     atom   14 type  3   force =   -36.19791543    2.08927081   23.29290279
     atom   15 type  3   force =   -35.23758387    0.91600262  -22.35311757
     atom   16 type  3   force =   -35.34456910   -0.81175930   22.36075674
     atom   17 type  3   force =   -36.04891261   -2.44741928  -23.48097741
     atom   18 type  4   force =     0.24801254   -4.45627035   14.13555276
     atom   19 type  4   force =    35.74497187   -0.96623699   25.36343668
     atom   20 type  4   force =    35.78982711    1.00827069  -25.43648488
     atom   21 type  4   force =   -35.61945096   -0.94379579   25.47722605
     atom   22 type  4   force =   -35.14831871    1.21358544  -26.16303768
     atom   23 type  5   force =    -5.17914536   -0.51060848   -1.10102951
     The core correction contribution to forces
     atom    1 type  1   force =     0.00173388    0.00043727   -0.00032829
     atom    2 type  1   force =    -0.01198119   -0.00176536    0.00004809
     atom    3 type  1   force =    -0.01262395    0.00248013   -0.00151584
     atom    4 type  1   force =     0.01286969   -0.00219237    0.00334755
     atom    5 type  1   force =     0.01372288    0.00235377    0.00066309
     atom    6 type  2   force =    -0.00049749    0.00279530    0.00280711
     atom    7 type  2   force =     0.00081423   -0.00340881   -0.00222846
     atom    8 type  3   force =    -0.03151144    0.00076495    0.00022448
     atom    9 type  3   force =     0.01431159   -0.00576304   -0.01078714
     atom   10 type  3   force =    -0.02159269    0.00936103   -0.01606776
     atom   11 type  3   force =    -0.02432906    0.00910183    0.01829226
     atom   12 type  3   force =    -0.02182288   -0.01020165   -0.01535117
     atom   13 type  3   force =    -0.02215649   -0.00968733    0.01610443
     atom   14 type  3   force =     0.02185411    0.00923659   -0.01674471
     atom   15 type  3   force =     0.02440469    0.00963887    0.01408843
     atom   16 type  3   force =     0.02206461   -0.01032049   -0.01639770
     atom   17 type  3   force =     0.02401840   -0.00888532    0.01398598
     atom   18 type  4   force =     0.00021339   -0.00296676    0.00292982
     atom   19 type  4   force =    -0.00974368    0.00005908   -0.00968987
     atom   20 type  4   force =    -0.00931799    0.00072459    0.00896812
     atom   21 type  4   force =     0.00940154   -0.00028792   -0.00972985
     atom   22 type  4   force =     0.00977988    0.00038259    0.00960512
     atom   23 type  5   force =     0.00000000    0.00000000    0.00000000
     The Hubbard contrib.    to forces
     atom    1 type  1   force =     0.00000000    0.00000000    0.00000000
     atom    2 type  1   force =     0.00000000    0.00000000    0.00000000
     atom    3 type  1   force =     0.00000000    0.00000000    0.00000000
     atom    4 type  1   force =     0.00000000    0.00000000    0.00000000
     atom    5 type  1   force =     0.00000000    0.00000000    0.00000000
     atom    6 type  2   force =     0.00000000    0.00000000    0.00000000
     atom    7 type  2   force =     0.00000000    0.00000000    0.00000000
     atom    8 type  3   force =     0.00000000    0.00000000    0.00000000
     atom    9 type  3   force =     0.00000000    0.00000000    0.00000000
     atom   10 type  3   force =     0.00000000    0.00000000    0.00000000
     atom   11 type  3   force =     0.00000000    0.00000000    0.00000000
     atom   12 type  3   force =     0.00000000    0.00000000    0.00000000
     atom   13 type  3   force =     0.00000000    0.00000000    0.00000000
     atom   14 type  3   force =     0.00000000    0.00000000    0.00000000
     atom   15 type  3   force =     0.00000000    0.00000000    0.00000000
     atom   16 type  3   force =     0.00000000    0.00000000    0.00000000
     atom   17 type  3   force =     0.00000000    0.00000000    0.00000000
     atom   18 type  4   force =     0.00000000    0.00000000    0.00000000
     atom   19 type  4   force =     0.00000000    0.00000000    0.00000000
     atom   20 type  4   force =     0.00000000    0.00000000    0.00000000
     atom   21 type  4   force =     0.00000000    0.00000000    0.00000000
     atom   22 type  4   force =     0.00000000    0.00000000    0.00000000
     atom   23 type  5   force =     0.00000000    0.00000000    0.00000000
     The SCF correction term to forces
     atom    1 type  1   force =     0.00566152   -0.00216011   -0.00384413
     atom    2 type  1   force =    -0.00799698   -0.00229169   -0.01480958
     atom    3 type  1   force =    -0.01156825   -0.00063267   -0.01935965
     atom    4 type  1   force =     0.00796810   -0.00081236   -0.00584854
     atom    5 type  1   force =     0.00879981    0.00050744   -0.00878793
     atom    6 type  2   force =    -0.00158933   -0.00183019   -0.00552530
     atom    7 type  2   force =     0.00209955    0.00382775   -0.00221746
     atom    8 type  3   force =    -0.00506894    0.00232237   -0.01404588
     atom    9 type  3   force =    -0.00211309   -0.00435802   -0.01610332
     atom   10 type  3   force =    -0.01432034   -0.02540197   -0.00551650
     atom   11 type  3   force =    -0.00408748   -0.00789572    0.01395210
     atom   12 type  3   force =    -0.01485124    0.00607451   -0.00802872
     atom   13 type  3   force =    -0.00614589    0.00067623    0.01778110
     atom   14 type  3   force =     0.00328685   -0.01078501   -0.00434292
     atom   15 type  3   force =     0.01151819   -0.00599341    0.00923374
     atom   16 type  3   force =    -0.00576499    0.00319549   -0.00796379
     atom   17 type  3   force =     0.00738545    0.00648127    0.01316696
     atom   18 type  4   force =    -0.00859604    0.01108406   -0.01628478
     atom   19 type  4   force =    -0.01159868    0.01280574   -0.00348694
     atom   20 type  4   force =    -0.00591059    0.00538718    0.00872782
     atom   21 type  4   force =     0.00517813    0.00542378   -0.00245386
     atom   22 type  4   force =     0.01342559    0.00155956    0.00379343
     atom   23 type  5   force =     0.00242708    0.00074621    0.00113797

     Total force =     0.494069     Total SCF correction =     0.073899
     SCF correction compared to forces is large: reduce conv_thr to get better values


     Computing stress (Cartesian axis) and pressure


     negative rho (up, down):  9.088E-01 9.088E-01
          total   stress  (Ry/bohr**3)                   (kbar)     P=       86.18
   0.00069841   0.00000584   0.00003036          102.74        0.86        4.47
   0.00000584   0.00067101   0.00000494            0.86       98.71        0.73
   0.00003036   0.00000494   0.00038819            4.47        0.73       57.10


     Entering Dynamics:    iteration =     3
                           time      =   0.0006 pico-seconds


ATOMIC_POSITIONS (angstrom)
Hf            2.6701877263        2.8272110860        6.6041288621
Hf            1.2531490114        1.2863746397        5.0586288962
Hf            1.2556458971        7.3899017199        5.0882316803
Hf            4.0872274346        1.2863740796        5.0586277174
[...]
     4.7585   4.9156   5.0700   5.1251   5.1705   5.2851   5.3108   5.3241
     5.4110   5.5735   5.6101   5.7453   5.7516   5.7773   5.7894   5.8327
     5.9609   6.0895   6.1690   6.2417   6.2970   6.3407   6.3866   6.3897
     6.4686   6.6351   6.6862   6.7140   6.9288   6.9888   7.0321   7.0853
     7.1224   7.1673   7.2762   7.3192   7.3727   7.4719   7.5359   7.5735
     7.6381   7.7078   7.9157   7.9901   8.0828   8.1145   8.1440   8.1802
     8.2658   8.3532   8.3684   8.3858   8.5207   8.5549   8.6384   8.7532
     8.8229   8.9212   8.9794   9.0826   9.2062   9.2880   9.3000

     the Fermi energy is     7.2643 ev

!    total energy              =   -2943.04418788 Ry
     estimated scf accuracy    <       0.00068966 Ry
     smearing contrib. (-TS)   =      -0.10313156 Ry
     internal energy E=F+TS    =   -2942.94105632 Ry

     total magnetization       =    -0.00 Bohr mag/cell
     absolute magnetization    =     0.00 Bohr mag/cell

     convergence has been achieved in   4 iterations

     negative rho (up, down):  9.088E-01 9.088E-01

     Forces acting on atoms (cartesian axes, Ry/au):

     atom    1 type  1   force =    -0.00260248   -0.02108630    0.00048682
     atom    2 type  1   force =    -0.11926087   -0.01209549   -0.00907907
     atom    3 type  1   force =    -0.11682227    0.00898019   -0.00440956
     atom    4 type  1   force =     0.11675191   -0.01404355   -0.01404402
     atom    5 type  1   force =     0.11958503    0.01231380   -0.00530184
     atom    6 type  2   force =    -0.01533471   -0.02539616    0.00016549
     atom    7 type  2   force =    -0.02437041    0.01055981   -0.00799000
     atom    8 type  3   force =    -0.11825612    0.00695006   -0.00110478
     atom    9 type  3   force =     0.04125214   -0.05705353   -0.08935697
     atom   10 type  3   force =    -0.02111179   -0.03080691   -0.05251450
     atom   11 type  3   force =    -0.02398386   -0.03241354    0.05933021
     atom   12 type  3   force =    -0.02086078    0.03597614   -0.05103610
     atom   13 type  3   force =    -0.01391545    0.02821481    0.06442266
     atom   14 type  3   force =     0.02456429   -0.02861640   -0.05181465
     atom   15 type  3   force =     0.02081163   -0.03679049    0.05812716
     atom   16 type  3   force =     0.02174265    0.03503002   -0.04592715
     atom   17 type  3   force =     0.01166682    0.03975289    0.06223466
     atom   18 type  4   force =    -0.00464899    0.02987125   -0.01208851
     atom   19 type  4   force =    -0.12958845   -0.00422560   -0.10970431
     atom   20 type  4   force =    -0.13038152    0.00557010    0.11216599
     atom   21 type  4   force =     0.12778616   -0.00679834   -0.11472069
     atom   22 type  4   force =     0.14943380    0.00578690    0.09616666
     atom   23 type  5   force =     0.10754325    0.05032034    0.11599249
     The non-local contrib.  to forces
     atom    1 type  1   force =     0.00083148   -0.01164820    0.02494061
     atom    2 type  1   force =    -0.24743177   -0.16194522    0.01111663
     atom    3 type  1   force =    -0.24277070    0.15453385   -0.02563806
     atom    4 type  1   force =     0.25023469   -0.16330527    0.02417012
     atom    5 type  1   force =     0.26258234    0.13877681   -0.00939478
     atom    6 type  2   force =     0.01310603   -0.05589899   -0.06047708
     atom    7 type  2   force =    -0.01002761    0.07181738    0.05998422
     atom    8 type  3   force =    -0.25721683    0.00315058   -0.00262379
     atom    9 type  3   force =     0.10921472   -0.04442380   -0.08954098
     atom   10 type  3   force =    -0.21236161    0.00120901   -0.20698341
     atom   11 type  3   force =    -0.21763643    0.01145254    0.19509675
     atom   12 type  3   force =    -0.20442035   -0.02056179   -0.17409287
     atom   13 type  3   force =    -0.20600678   -0.00964176    0.20289344
     atom   14 type  3   force =     0.21057238    0.00591542   -0.21808331
     atom   15 type  3   force =     0.22243024    0.00392602    0.18193833
     atom   16 type  3   force =     0.19491055   -0.01818054   -0.18476860
     atom   17 type  3   force =     0.22852412   -0.01465083    0.17871594
     atom   18 type  4   force =    -0.00389968    0.05861593   -0.06145908
     atom   19 type  4   force =     0.05909375    0.00985465    0.07644914
     atom   20 type  4   force =     0.05111727   -0.01914034   -0.06419367
     atom   21 type  4   force =    -0.05482690    0.01615489    0.07626367
     atom   22 type  4   force =    -0.05362437   -0.01092188   -0.08033853
     atom   23 type  5   force =    -0.05564469   -0.02845029   -0.03885881
     The ionic contribution  to forces
     atom    1 type  1   force =    -0.34995605   -4.82817403   14.16703002
     atom    2 type  1   force =   -39.72241253   -6.17496794    0.74670394
     atom    3 type  1   force =   -39.70326610    6.19137675   -0.76154762
     atom    4 type  1   force =    39.55467892   -6.35270227    0.70824751
     atom    5 type  1   force =    39.37374073    6.55559139   -0.91706983
     atom    6 type  2   force =    -0.31883802   -3.79907145  -14.20549740
     atom    7 type  2   force =    -0.61488100    3.79461648   14.08226661
     atom    8 type  3   force =   -52.35295446    0.05067262   -0.11719033
     atom    9 type  3   force =    50.07854017   -0.69186190   -1.62422509
     atom   10 type  3   force =   -36.05948680   -2.09760523  -23.05531275
     atom   11 type  3   force =   -35.14436338   -0.85864724   22.08216809
     atom   12 type  3   force =   -35.24710970    0.81375858  -22.11410750
     atom   13 type  3   force =   -36.05975914    2.22758925   23.07802540
     atom   14 type  3   force =    35.97773514   -2.14086539  -23.11129847
     atom   15 type  3   force =    34.99910820   -0.94040889   22.17015067
     atom   16 type  3   force =    35.15286612    0.86494974  -22.17877287
     atom   17 type  3   force =    35.80902015    2.44543763   23.27052533
     atom   18 type  4   force =    -0.28729590    4.53911663  -14.13060819
     atom   19 type  4   force =   -35.90444529    0.94506620  -25.50287192
     atom   20 type  4   force =   -35.91143048   -0.97830525   25.52084035
     atom   21 type  4   force =    35.78008827    0.93968566  -25.69805272
     atom   22 type  4   force =    35.35843676   -1.15682487   26.18197619
     atom   23 type  5   force =     5.59198436    0.65157353    1.40862057
     The local contribution  to forces
     atom    1 type  1   force =     0.34527168    4.82333912  -14.21536876
     atom    2 type  1   force =    39.85640018    6.33253607   -0.79381557
     atom    3 type  1   force =    39.83426530   -6.34422143    0.75828701
     atom    4 type  1   force =   -39.69299508    6.50953628   -0.77606484
     atom    5 type  1   force =   -39.52267837   -6.68635105    0.89051246
     atom    6 type  2   force =     0.28927986    3.82808830   14.25529922
     atom    7 type  2   force =     0.59356817   -3.86369653  -14.18198245
     atom    8 type  3   force =    52.51602832   -0.04877128    0.09042551
     atom    9 type  3   force =   -50.15330729    0.67915442    1.60587803
     atom   10 type  3   force =    36.26683378    2.05178465   23.24150305
     atom   11 type  3   force =    35.35668367    0.81077483  -22.23986074
     atom   12 type  3   force =    35.44672845   -0.74109589   22.26792366
     atom   13 type  3   force =    36.26235096   -2.18395262  -23.23772068
     atom   14 type  3   force =   -36.17835367    2.09297798   23.31169483
     atom   15 type  3   force =   -35.21701639    0.90372059  -22.31315086
     atom   16 type  3   force =   -35.34075294   -0.79592253   22.35163836
     atom   17 type  3   force =   -36.04375358   -2.38480709  -23.40491894
     atom   18 type  4   force =     0.28351739   -4.56641363   14.16789231
     atom   19 type  4   force =    35.71620570   -0.96038390   25.34579298
     atom   20 type  4   force =    35.73107119    1.00161057  -25.36362249
     atom   21 type  4   force =   -35.59720575   -0.96359229   25.53444120
     atom   22 type  4   force =   -35.15076260    1.16723178  -26.02728267
     atom   23 type  5   force =    -5.42598476   -0.57292289   -1.25648682
     The core correction contribution to forces
     atom    1 type  1   force =     0.00175090    0.00058586   -0.00074247
     atom    2 type  1   force =    -0.01209295   -0.00184383    0.00011529
     atom    3 type  1   force =    -0.01269143    0.00244603   -0.00151336
     atom    4 type  1   force =     0.01290403   -0.00220914    0.00312655
     atom    5 type  1   force =     0.01383048    0.00207718    0.00043274
     atom    6 type  2   force =    -0.00057895    0.00289725    0.00273570
     atom    7 type  2   force =     0.00072375   -0.00362680   -0.00230187
     atom    8 type  3   force =    -0.03106749    0.00064207    0.00014762
     atom    9 type  3   force =     0.01320385   -0.00576780   -0.01188016
     atom   10 type  3   force =    -0.02148073    0.00935451   -0.01604772
     atom   11 type  3   force =    -0.02467614    0.00922851    0.01833193
     atom   12 type  3   force =    -0.02163896   -0.01018961   -0.01526976
     atom   13 type  3   force =    -0.02209515   -0.00983244    0.01618412
     atom   14 type  3   force =     0.02174902    0.00911779   -0.01673170
     atom   15 type  3   force =     0.02441022    0.00958158    0.01429415
     atom   16 type  3   force =     0.02182891   -0.01007711   -0.01629907
     atom   17 type  3   force =     0.02376554   -0.00892412    0.01460540
     atom   18 type  4   force =     0.00023444   -0.00302860    0.00293240
     atom   19 type  4   force =    -0.00967060   -0.00000552   -0.00968540
     atom   20 type  4   force =    -0.00931844    0.00069360    0.00903965
     atom   21 type  4   force =     0.00940874   -0.00031761   -0.00987006
     atom   22 type  4   force =     0.00978247    0.00049535    0.00949525
     atom   23 type  5   force =     0.00000000    0.00000000    0.00000000
     The Hubbard contrib.    to forces
     atom    1 type  1   force =     0.00000000    0.00000000    0.00000000
     atom    2 type  1   force =     0.00000000    0.00000000    0.00000000
     atom    3 type  1   force =     0.00000000    0.00000000    0.00000000
     atom    4 type  1   force =     0.00000000    0.00000000    0.00000000
     atom    5 type  1   force =     0.00000000    0.00000000    0.00000000
     atom    6 type  2   force =     0.00000000    0.00000000    0.00000000
     atom    7 type  2   force =     0.00000000    0.00000000    0.00000000
     atom    8 type  3   force =     0.00000000    0.00000000    0.00000000
     atom    9 type  3   force =     0.00000000    0.00000000    0.00000000
     atom   10 type  3   force =     0.00000000    0.00000000    0.00000000
     atom   11 type  3   force =     0.00000000    0.00000000    0.00000000
     atom   12 type  3   force =     0.00000000    0.00000000    0.00000000
     atom   13 type  3   force =     0.00000000    0.00000000    0.00000000
     atom   14 type  3   force =     0.00000000    0.00000000    0.00000000
     atom   15 type  3   force =     0.00000000    0.00000000    0.00000000
     atom   16 type  3   force =     0.00000000    0.00000000    0.00000000
     atom   17 type  3   force =     0.00000000    0.00000000    0.00000000
     atom   18 type  4   force =     0.00000000    0.00000000    0.00000000
     atom   19 type  4   force =     0.00000000    0.00000000    0.00000000
     atom   20 type  4   force =     0.00000000    0.00000000    0.00000000
     atom   21 type  4   force =     0.00000000    0.00000000    0.00000000
     atom   22 type  4   force =     0.00000000    0.00000000    0.00000000
     atom   23 type  5   force =     0.00000000    0.00000000    0.00000000
     The SCF correction term to forces
     atom    1 type  1   force =    -0.00033231   -0.00509722    0.02285325
     atom    2 type  1   force =     0.00644438   -0.00578274    0.02502647
     atom    3 type  1   force =     0.00780882    0.00493682    0.02422830
     atom    4 type  1   force =    -0.00790247   -0.00527131    0.02470247
     atom    5 type  1   force =    -0.00772196    0.00231132    0.02844340
     atom    6 type  2   force =     0.00186453   -0.00131942    0.00633088
     atom    7 type  2   force =     0.00641445    0.01154112    0.03226932
     atom    8 type  3   force =     0.00712251    0.00134791    0.02636205
     atom    9 type  3   force =    -0.00623115    0.00593737    0.02863705
     atom   10 type  3   force =     0.00555174    0.00454199   -0.01744783
     atom   11 type  3   force =     0.00617659   -0.00513035    0.00182001
     atom   12 type  3   force =     0.00574795   -0.00584332   -0.01726379
     atom   13 type  3   force =     0.01176284    0.00414421    0.00326622
     atom   14 type  3   force =    -0.00697040    0.00432964   -0.01917016
     atom   15 type  3   force =    -0.00795247   -0.01351796    0.00312071
     atom   16 type  3   force =    -0.00694183   -0.00564771   -0.01949913
     atom   17 type  3   force =    -0.00572124    0.00278913    0.00153276
     atom   18 type  4   force =     0.00296293    0.00167275    0.00737988
     atom   19 type  4   force =     0.00939615    0.00133480   -0.02116327
     atom   20 type  4   force =     0.00834710    0.00080335    0.00832797
     atom   21 type  4   force =    -0.00951004    0.00136284   -0.01927695
     atom   22 type  4   force =    -0.01423029    0.00589836    0.01054226
     atom   23 type  5   force =    -0.00264350    0.00021182    0.00094338

     Total force =     0.521002     Total SCF correction =     0.100557
     SCF correction compared to forces is large: reduce conv_thr to get better values


     Computing stress (Cartesian axis) and pressure


     negative rho (up, down):  9.088E-01 9.088E-01
          total   stress  (Ry/bohr**3)                   (kbar)     P=       87.48
   0.00069514   0.00001595   0.00004489          102.26        2.35        6.60
   0.00001595   0.00068077   0.00001317            2.35      100.15        1.94
   0.00004489   0.00001317   0.00040821            6.60        1.94       60.05


     Entering Dynamics:    iteration =    20
                           time      =   0.0041 pico-seconds


ATOMIC_POSITIONS (angstrom)
Hf            2.6713156949        2.8275435390        6.6051221459
Hf            1.2528881646        1.2867405425        5.0595266644
Hf            1.2554111322        7.3905604289        5.0891847963
Hf            4.0895955633        1.2867410062        5.0595010163
Hf            4.0871294803        7.3905885338        5.0892013329
Nb            2.6713838726        2.7972974330        3.5169367236
Nb            2.6708855085        5.8772313242        6.6358442098
Ta            1.2092440269        4.3416777503        5.0722833331
Ta            4.1125176298        4.3310067861        5.0535995960
Ta            1.3082348793        1.3143786529        2.0592368031
Ta            1.3037832916        1.3086175294        8.0963086704
Ta            1.3050473301        7.3768611281        2.0466987716
Ta            1.3088125219        7.3660515483        8.0877854635
Ta            4.0342471566        1.3144609822        2.0592317766
Ta            4.0386977969        1.3086053092        8.0963056756
Ta            4.0374727007        7.3768292061        2.0467380312
Ta            4.0336846453        7.3661114437        8.0877467673
Zr            2.6712860281        5.8675007400        3.5282750641
Zr            1.2421824791        4.3226272335        1.9984885316
Zr            1.2386902724        4.3548503015        8.1533738173
Zr            4.1003144052        4.3225881925        1.9983544281
Zr            4.1040449841        4.3548761504        8.1532514894
H             5.3249006549        4.9345400917        6.1630112198


     kinetic energy (Ekin) =           4.01008841 Ry
     temperature           =       19186.14797029 K 
     Ekin + Etot (const)   =       -2939.03409948 Ry
     Ions kinetic stress =           70.82 (kbar)
                                    100.39          49.95          93.36
                                     49.95          24.93          46.56
                                     93.36          46.56          87.15



     Linear momentum :   -0.0000000000   -0.0000000000   -0.0000000000

     The maximum number of steps has been reached.

     End of molecular dynamics calculation

     diffusion coefficients :
     atom     1   D =       0.00000001 cm^2/s
     atom     2   D =       0.00000001 cm^2/s
     atom     3   D =       0.00000001 cm^2/s
     atom     4   D =       0.00000003 cm^2/s
     atom     5   D =       0.00000004 cm^2/s
     atom     6   D =       0.00000002 cm^2/s
     atom     7   D =       0.00000001 cm^2/s
     atom     8   D =       0.00000001 cm^2/s
     atom     9   D =       0.00000301 cm^2/s
     atom    10   D =       0.00000001 cm^2/s
     atom    11   D =       0.00000002 cm^2/s
     atom    12   D =       0.00000001 cm^2/s
     atom    13   D =       0.00000002 cm^2/s
     atom    14   D =       0.00000001 cm^2/s
     atom    15   D =       0.00000002 cm^2/s
     atom    16   D =       0.00000001 cm^2/s
     atom    17   D =       0.00000002 cm^2/s
     atom    18   D =       0.00000002 cm^2/s
     atom    19   D =       0.00000002 cm^2/s
     atom    20   D =       0.00000007 cm^2/s
     atom    21   D =       0.00000008 cm^2/s
     atom    22   D =       0.00000013 cm^2/s
     atom    23   D =       0.00032391 cm^2/s

     < D > =       0.00001424 cm^2/s

     Writing all to output data dir outdir/pwscf.save/

     init_run     :      9.82s CPU     12.52s WALL (       1 calls)
     electrons    :   2529.88s CPU   3013.27s WALL (      20 calls)
     update_pot   :     19.83s CPU     21.12s WALL (      19 calls)
     forces       :    235.89s CPU    276.55s WALL (      20 calls)
     stress       :    382.53s CPU    419.88s WALL (      20 calls)

     Called by init_run:
     wfcinit      :      7.16s CPU      9.46s WALL (       1 calls)
     potinit      :      0.48s CPU      0.52s WALL (       1 calls)
     hinit0       :      0.97s CPU      1.09s WALL (       1 calls)

     Called by electrons:
     c_bands      :   2018.75s CPU   2416.59s WALL (      99 calls)
     sum_band     :    331.55s CPU    392.62s WALL (      99 calls)
     v_of_rho     :     11.14s CPU     12.99s WALL (     119 calls)
     newd         :    199.74s CPU    226.42s WALL (     119 calls)
     mix_rho      :      1.06s CPU      1.32s WALL (      99 calls)

     Called by c_bands:
     init_us_2    :      3.99s CPU      4.18s WALL (     478 calls)
     init_us_2:cp :      3.99s CPU      4.18s WALL (     478 calls)
     regterg      :   2004.37s CPU   2399.33s WALL (     198 calls)

     Called by *egterg:
     rdiaghg      :     63.08s CPU     80.57s WALL (    1566 calls)
     h_psi        :   1054.06s CPU   1169.71s WALL (    1606 calls)
     s_psi        :    352.85s CPU    353.58s WALL (    1606 calls)
     g_psi        :      0.73s CPU      0.78s WALL (    1406 calls)

     Called by h_psi:
     h_psi:calbec :    510.44s CPU    590.58s WALL (    1606 calls)
     vloc_psi     :    105.41s CPU    139.51s WALL (    1606 calls)
     add_vuspsi   :    436.77s CPU    438.11s WALL (    1606 calls)

     General routines
     calbec       :    869.18s CPU   1025.03s WALL (    2004 calls)
     fft          :      9.36s CPU     26.16s WALL (    2484 calls)
     ffts         :      0.23s CPU      0.29s WALL (      99 calls)
     fftw         :    112.59s CPU    150.83s WALL (  103734 calls)

     Parallel routines

     PWSCF        :  53m30.37s CPU      1h 3m WALL


   This run was terminated on:  20:53:33  16Jun2023            

=------------------------------------------------------------------------------=
   JOB DONE.
=------------------------------------------------------------------------------=
