
     Program PWSCF v.7.2 starts on 16Jun2023 at 14:41:14 

     This program is part of the open-source Quantum ESPRESSO suite
     for quantum simulation of materials; please cite
         "P. Giannozzi et al., J. Phys.:Condens. Matter 21 395502 (2009);
         "P. Giannozzi et al., J. Phys.:Condens. Matter 29 465901 (2017);
         "P. Giannozzi et al., J. Chem. Phys. 152 154105 (2020);
          URL http://www.quantum-espresso.org", 
     in publications or presentations arising from this work. More details at
     http://www.quantum-espresso.org/quote

     Parallel version (MPI), running on    42 processors

     MPI processes distributed on     1 nodes
     172691 MiB available memory on the printing compute node when the environment starts

     Reading input from md_data/md_Hf5Nb2Ta10Zr5H_20steps_50eV_incident30_polar30.in
Warning: card &CELL ignored
Warning: card / ignored

     Current dimensions of program PWSCF are:
     Max number of different atomic species (ntypx) = 10
     Max number of k-points (npk) =  40000
     Max angular momentum in pseudopotentials (lmaxx) =  4

     File outdir/pwscf.md deleted, as requested

     gamma-point specific algorithms are used

     R & G space division:  proc/nbgrp/npool/nimage =      42
     Subspace diagonalization in iterative solution of the eigenvalue problem:
     one sub-group per band group will be used
     custom distributed-memory algorithm (size of sub-group:  2*  2 procs)


     Parallelization info
     --------------------
     sticks:   dense  smooth     PW     G-vecs:    dense   smooth      PW
     Min         262     262     63                23470    23470    2920
     Max         265     265     66                23484    23484    2942
     Sum       11057   11057   2753               986005   986005  123175

     Using Slab Decomposition



     bravais-lattice index     =            0
     lattice parameter (alat)  =      17.6500  a.u.
     unit-cell volume          =    5552.8853 (a.u.)^3
     number of atoms/cell      =           23
     number of atomic types    =            5
     number of electrons       =       277.00
     number of Kohn-Sham states=          167
     kinetic-energy cutoff     =     120.0000  Ry
     charge density cutoff     =     480.0000  Ry
     scf convergence threshold =      1.0E-03
     mixing beta               =       0.7000
     number of iterations used =            8  TF        mixing
     energy convergence thresh.=      0.0E+00
     force convergence thresh. =      0.0E+00
     Exchange-correlation=  SLA  PW   PBX  PBC
                           (   1   4   3   4   0   0   0)
     nstep                     =           20


     celldm(1)=  17.650041  celldm(2)=   0.000000  celldm(3)=   0.000000
     celldm(4)=   0.000000  celldm(5)=   0.000000  celldm(6)=   0.000000

     crystal axes: (cart. coord. in units of alat)
               a(1) = (   1.000000   0.000000   0.000000 )  
               a(2) = (   0.000000   0.929336   0.000000 )  
               a(3) = (   0.000000   0.000000   1.086698 )  

     reciprocal axes: (cart. coord. in units 2 pi/alat)
               b(1) = (  1.000000  0.000000  0.000000 )  
               b(2) = (  0.000000  1.076037  0.000000 )  
               b(3) = (  0.000000  0.000000  0.920219 )  


     PseudoPot. # 1 for Hf read from file:
     q-e/pseudo/hf_pbe_v1.uspp.F.UPF
     MD5 check sum: 8ee9378dfe14276e333edf04c5e4aa26
     Pseudo is Ultrasoft + core correction, Zval = 12.0
     Generated by new atomic code, or converted to UPF format
     Using radial grid of  921 points,  8 beta functions with: 
                l(1) =   0
                l(2) =   0
                l(3) =   0
                l(4) =   1
                l(5) =   1
                l(6) =   2
                l(7) =   2
                l(8) =   3
     Q(r) pseudized with  6 coefficients,  rinner =    1.200   1.200   1.200
                                                       1.200   1.200   1.200
                                                       1.200

     PseudoPot. # 2 for Nb read from file:
     q-e/pseudo/nb_pbe_v1.uspp.F.UPF
     MD5 check sum: 573aab8a2fa660278ed4a62cd769473f
     Pseudo is Ultrasoft + core correction, Zval = 13.0
     Generated by new atomic code, or converted to UPF format
     Using radial grid of  887 points,  6 beta functions with: 
                l(1) =   0
                l(2) =   0
                l(3) =   1
                l(4) =   1
                l(5) =   2
                l(6) =   2
     Q(r) pseudized with  6 coefficients,  rinner =    1.000   1.000   1.000
                                                       1.000   1.000

     PseudoPot. # 3 for Ta read from file:
     q-e/pseudo/ta_pbe_v1.uspp.F.UPF
     MD5 check sum: f8bbe9446314a3b8ea5d9f3e3836c939
     Pseudo is Ultrasoft + core correction, Zval = 13.0
     Generated by new atomic code, or converted to UPF format
     Using radial grid of  921 points,  7 beta functions with: 
                l(1) =   0
                l(2) =   0
                l(3) =   1
                l(4) =   1
                l(5) =   2
                l(6) =   2
                l(7) =   3
     Q(r) pseudized with  6 coefficients,  rinner =    1.300   1.300   1.300
                                                       1.300   1.300   1.300
                                                       1.300

     PseudoPot. # 4 for Zr read from file:
     q-e/pseudo/zr_pbe_v1.uspp.F.UPF
     MD5 check sum: 5db81b1e868ab7776c4564c113de050b
     Pseudo is Ultrasoft + core correction, Zval = 12.0
     Generated by new atomic code, or converted to UPF format
     Using radial grid of  887 points,  6 beta functions with: 
                l(1) =   0
                l(2) =   0
                l(3) =   1
                l(4) =   1
                l(5) =   2
                l(6) =   2
     Q(r) pseudized with  6 coefficients,  rinner =    1.200   1.200   1.200
                                                       1.200   1.200

     PseudoPot. # 5 for H  read from file:
     q-e/pseudo/h_pbe_v1.4.uspp.F.UPF
     MD5 check sum: 761ae9a214b05c3daf00ab9f6b793d6f
     Pseudo is Ultrasoft, Zval =  1.0
     Generated by new atomic code, or converted to UPF format
     Using radial grid of  615 points,  2 beta functions with: 
                l(1) =   0
                l(2) =   0
     Q(r) pseudized with  8 coefficients,  rinner =    0.700

     atomic species   valence    mass     pseudopotential
        Hf            12.00   178.49000     Hf( 1.00)
        Nb            13.00    92.90637     Nb( 1.00)
        Ta            13.00   180.94788     Ta( 1.00)
        Zr            12.00    91.22400     Zr( 1.00)
        H              1.00     2.01400     H ( 1.00)

     Starting magnetic structure 
     atomic species   magnetization
        Hf           0.000
        Nb           0.000
        Ta           0.000
        Zr           0.000
        H            0.000

     No symmetry found



   Cartesian axes

     site n.     atom                  positions (alat units)
         1           Hf  tau(   1) = (   0.2858672   0.3026898   0.7070626  )
         2           Hf  tau(   2) = (   0.1341532   0.1377178   0.5415917  )
         3           Hf  tau(   3) = (   0.1344204   0.7911996   0.5447610  )
         4           Hf  tau(   4) = (   0.4375813   0.1377178   0.5415917  )
         5           Hf  tau(   5) = (   0.4373140   0.7911996   0.5447610  )
         6           Nb  tau(   6) = (   0.2858672   0.2994572   0.3764008  )
         7           Nb  tau(   7) = (   0.2858672   0.6291626   0.7103852  )
         8           Ta  tau(   8) = (   0.1294832   0.4647675   0.5429471  )
         9           Ta  tau(   9) = (   0.4422513   0.4647675   0.5429471  )
        10           Ta  tau(  10) = (   0.1399628   0.1406984   0.2204260  )
        11           Ta  tau(  11) = (   0.1394848   0.1400847   0.8666573  )
        12           Ta  tau(  12) = (   0.1396156   0.7897030   0.2190832  )
        13           Ta  tau(  13) = (   0.1400119   0.7885528   0.8657390  )
        14           Ta  tau(  14) = (   0.4317717   0.1406984   0.2204260  )
        15           Ta  tau(  15) = (   0.4322496   0.1400847   0.8666573  )
        16           Ta  tau(  16) = (   0.4321189   0.7897030   0.2190832  )
        17           Ta  tau(  17) = (   0.4317226   0.7885528   0.8657390  )
        18           Zr  tau(  18) = (   0.2858672   0.6280820   0.3776642  )
        19           Zr  tau(  19) = (   0.1331729   0.4627493   0.2141328  )
        20           Zr  tau(  20) = (   0.1328036   0.4661802   0.8725649  )
        21           Zr  tau(  21) = (   0.4385616   0.4627493   0.2141328  )
        22           Zr  tau(  22) = (   0.4389309   0.4661802   0.8725649  )
        23           H   tau(  23) = (   0.6276957   0.5573903   0.5965931  )

     number of k points=     1  Gaussian smearing, width (Ry)=  0.0220
                       cart. coord. in units 2pi/alat
        k(    1) = (   0.0000000   0.0000000   0.0000000), wk =   1.0000000

     Dense  grid:   493003 G-vectors     FFT dimensions: ( 125, 120, 135)

     Estimated max dynamical RAM per process >     133.03 MB

     Estimated total dynamical RAM >       5.46 GB

     Check: negative core charge=   -0.000002
     Generating pointlists ...
     new r_m :   0.1117 (alat units)  1.9717 (a.u.) for type    1
     new r_m :   0.1098 (alat units)  1.9374 (a.u.) for type    2
     new r_m :   0.0883 (alat units)  1.5589 (a.u.) for type    3
     new r_m :   0.1112 (alat units)  1.9625 (a.u.) for type    4
     new r_m :   0.0883 (alat units)  1.5589 (a.u.) for type    5

     Initial potential from superposition of free atoms

     starting charge     266.9726, renormalised to     277.0000

     negative rho (up, down):  9.217E-01 9.217E-01
     Starting wfcs are  287 randomized atomic wfcs

     total cpu time spent up to now is       12.6 secs

     Self-consistent Calculation

     iteration #  1     ecut=   120.00 Ry     beta= 0.70
     Davidson diagonalization with overlap
     ethr =  1.00E-02,  avg # of iterations =  2.0

     negative rho (up, down):  9.956E-01 9.953E-01

     total cpu time spent up to now is       50.0 secs

     total energy              =   -2930.55206247 Ry
     estimated scf accuracy    <     277.08287383 Ry

     total magnetization       =    -0.00 Bohr mag/cell
     absolute magnetization    =     0.09 Bohr mag/cell

     iteration #  2     ecut=   120.00 Ry     beta= 0.70
     Davidson diagonalization with overlap
     ethr =  1.00E-02,  avg # of iterations =  5.0

     negative rho (up, down):  9.685E-01 9.711E-01

     total cpu time spent up to now is       94.7 secs

     total energy              =   -2942.18906598 Ry
     estimated scf accuracy    <      30.22512437 Ry

     total magnetization       =     0.17 Bohr mag/cell
     absolute magnetization    =     0.40 Bohr mag/cell

     iteration #  3     ecut=   120.00 Ry     beta= 0.70
     Davidson diagonalization with overlap
     ethr =  1.00E-02,  avg # of iterations =  2.0

     negative rho (up, down):  1.005E+00 1.010E+00

     total cpu time spent up to now is      114.3 secs

     total energy              =   -2942.64968572 Ry
     estimated scf accuracy    <      12.90028573 Ry

     total magnetization       =     0.08 Bohr mag/cell
     absolute magnetization    =     0.46 Bohr mag/cell

     iteration #  4     ecut=   120.00 Ry     beta= 0.70
     Davidson diagonalization with overlap
     ethr =  4.66E-03,  avg # of iterations =  3.0

     negative rho (up, down):  1.013E+00 1.016E+00

     total cpu time spent up to now is      132.2 secs

     total energy              =   -2942.91319614 Ry
     estimated scf accuracy    <       3.16054892 Ry

     total magnetization       =     0.16 Bohr mag/cell
     absolute magnetization    =     0.45 Bohr mag/cell

     iteration #  5     ecut=   120.00 Ry     beta= 0.70
     Davidson diagonalization with overlap
     ethr =  1.14E-03,  avg # of iterations =  8.0

     negative rho (up, down):  9.888E-01 9.901E-01

     total cpu time spent up to now is      156.2 secs

     total energy              =   -2943.06721469 Ry
     estimated scf accuracy    <       1.69359302 Ry

     total magnetization       =     0.11 Bohr mag/cell
     absolute magnetization    =     0.26 Bohr mag/cell

     iteration #  6     ecut=   120.00 Ry     beta= 0.70
     Davidson diagonalization with overlap
     ethr =  6.11E-04,  avg # of iterations =  2.0

     negative rho (up, down):  9.755E-01 9.763E-01

     total cpu time spent up to now is      173.4 secs

     total energy              =   -2943.11055656 Ry
     estimated scf accuracy    <       1.08433663 Ry

     total magnetization       =     0.09 Bohr mag/cell
     absolute magnetization    =     0.20 Bohr mag/cell

     iteration #  7     ecut=   120.00 Ry     beta= 0.70
     Davidson diagonalization with overlap
     ethr =  3.91E-04,  avg # of iterations =  1.0

     negative rho (up, down):  9.490E-01 9.495E-01

     total cpu time spent up to now is      201.2 secs

     total energy              =   -2943.05842001 Ry
     estimated scf accuracy    <       0.41721618 Ry

     total magnetization       =     0.09 Bohr mag/cell
     absolute magnetization    =     0.18 Bohr mag/cell

     iteration #  8     ecut=   120.00 Ry     beta= 0.70
     Davidson diagonalization with overlap
     ethr =  1.51E-04,  avg # of iterations =  5.0

     negative rho (up, down):  9.217E-01 9.217E-01

     total cpu time spent up to now is      238.5 secs

     total energy              =   -2943.05939934 Ry
     estimated scf accuracy    <       0.21364174 Ry

     total magnetization       =     0.08 Bohr mag/cell
     absolute magnetization    =     0.14 Bohr mag/cell

     iteration #  9     ecut=   120.00 Ry     beta= 0.70
     Davidson diagonalization with overlap
     ethr =  7.71E-05,  avg # of iterations = 10.5

     negative rho (up, down):  9.081E-01 9.081E-01

     total cpu time spent up to now is      267.5 secs

     total energy              =   -2943.05390159 Ry
     estimated scf accuracy    <       0.06087438 Ry

     total magnetization       =     0.07 Bohr mag/cell
     absolute magnetization    =     0.11 Bohr mag/cell

     iteration # 10     ecut=   120.00 Ry     beta= 0.70
     Davidson diagonalization with overlap
     c_bands:  1 eigenvalues not converged
     ethr =  2.20E-05,  avg # of iterations = 18.0

     negative rho (up, down):  9.084E-01 9.084E-01

     total cpu time spent up to now is      291.6 secs

     total energy              =   -2943.05945834 Ry
     estimated scf accuracy    <       0.03851708 Ry

     total magnetization       =     0.06 Bohr mag/cell
     absolute magnetization    =     0.08 Bohr mag/cell

     iteration # 11     ecut=   120.00 Ry     beta= 0.70
     Davidson diagonalization with overlap
     ethr =  1.39E-05,  avg # of iterations =  1.5

     negative rho (up, down):  9.092E-01 9.092E-01

     total cpu time spent up to now is      307.8 secs

     total energy              =   -2943.06291763 Ry
     estimated scf accuracy    <       0.00903732 Ry

     total magnetization       =     0.05 Bohr mag/cell
     absolute magnetization    =     0.07 Bohr mag/cell

     iteration # 12     ecut=   120.00 Ry     beta= 0.70
     Davidson diagonalization with overlap
     ethr =  3.26E-06,  avg # of iterations = 10.5

     negative rho (up, down):  9.093E-01 9.093E-01

     total cpu time spent up to now is      329.3 secs

     total energy              =   -2943.06562070 Ry
     estimated scf accuracy    <       0.00244834 Ry

     total magnetization       =     0.05 Bohr mag/cell
     absolute magnetization    =     0.06 Bohr mag/cell

     iteration # 13     ecut=   120.00 Ry     beta= 0.70
     Davidson diagonalization with overlap
     ethr =  8.84E-07,  avg # of iterations =  7.0

     negative rho (up, down):  9.090E-01 9.090E-01

     Magnetic moment per site  (integrated on atomic sphere of radius R)
     atom   1 (R=0.112)  charge=  9.4619  magn=  0.0002
     atom   2 (R=0.112)  charge=  9.0595  magn=  0.0003
     atom   3 (R=0.112)  charge=  9.0583  magn=  0.0002
     atom   4 (R=0.112)  charge=  9.0578  magn= -0.0002
     atom   5 (R=0.112)  charge=  9.0501  magn=  0.0005
     atom   6 (R=0.110)  charge= 10.3491  magn=  0.0005
     atom   7 (R=0.110)  charge= 10.3487  magn= -0.0000
     atom   8 (R=0.088)  charge=  8.1255  magn= -0.0001
     atom   9 (R=0.088)  charge=  8.1159  magn=  0.0003
     atom  10 (R=0.088)  charge=  8.1059  magn=  0.0006
     atom  11 (R=0.088)  charge=  8.1033  magn=  0.0008
     atom  12 (R=0.088)  charge=  8.1063  magn=  0.0010
     atom  13 (R=0.088)  charge=  8.1037  magn=  0.0007
     atom  14 (R=0.088)  charge=  8.1055  magn=  0.0011
     atom  15 (R=0.088)  charge=  8.1023  magn=  0.0006
     atom  16 (R=0.088)  charge=  8.1058  magn=  0.0001
     atom  17 (R=0.088)  charge=  8.1084  magn=  0.0017
     atom  18 (R=0.111)  charge=  9.4532  magn=  0.0003
     atom  19 (R=0.111)  charge=  9.0000  magn=  0.0004
     atom  20 (R=0.111)  charge=  8.9968  magn=  0.0002
     atom  21 (R=0.111)  charge=  8.9994  magn=  0.0003
     atom  22 (R=0.111)  charge=  8.9961  magn=  0.0004
     atom  23 (R=0.088)  charge=  0.9730  magn=  0.0000

     total cpu time spent up to now is      358.9 secs

     End of self-consistent calculation

 ------ SPIN UP ------------


          k = 0.0000 0.0000 0.0000 ( 61588 PWs)   bands (ev):

   -60.7969 -60.7877 -60.7524 -60.7427 -60.7176 -60.7115 -60.6733 -60.6682
   -60.5299 -60.4052 -54.4014 -54.3530 -54.2738 -54.2267 -52.7107 -46.2809
   -46.2730 -41.6637 -41.6530 -41.5682 -41.5517 -39.8135 -27.7971 -27.7910
   -27.7128 -27.7032 -27.6101 -27.6039 -27.4841 -27.4737 -27.3817 -27.3473
   -27.3121 -27.2850 -27.2710 -27.2522 -27.2399 -27.1858 -27.1788 -27.1568
   -27.1020 -27.0773 -27.0171 -26.9754 -26.9686 -26.9618 -26.9529 -26.9064
   -26.9014 -26.8947 -26.8715 -26.8690 -24.1867 -23.9741 -23.6746 -23.5831
   -23.3304 -23.1978 -23.1753 -23.0734 -22.9472 -22.8744 -22.8532 -22.6327
   -22.5208 -22.4687 -22.4118 -22.3693 -22.2946 -22.2498 -21.7716 -21.7063
   -21.6407 -20.2185 -19.9702 -19.8578 -19.8472 -19.6412 -19.6226 -19.6141
   -19.6000 -19.5961 -19.5542 -19.3967 -19.3932 -18.1587 -17.9570 -17.8327
     1.4542   2.9141   2.9878   3.1269   3.3033   3.4486   3.5060   3.6742
     3.7363   3.8448   3.9011   4.0591   4.2134   4.4931   4.6586   4.6797
     4.7575   4.8297   5.0260   5.0787   5.1544   5.2525   5.2746   5.3088
     5.3882   5.5425   5.5959   5.7069   5.7170   5.7404   5.7459   5.7814
     5.9279   6.0865   6.1690   6.2106   6.2551   6.2781   6.3477   6.3742
     6.4463   6.5985   6.6470   6.6937   6.8588   6.9212   6.9889   7.0342
     7.0853   7.1365   7.2484   7.2690   7.3060   7.4182   7.5408   7.5725
     7.6023   7.7180   7.8820   7.9017   8.0689   8.0930   8.1010   8.1892
     8.2408   8.2912   8.3382   8.3655   8.4533   8.5422   8.6215   8.6655
     8.8048   8.8873   8.9332   9.0548   9.1314   9.2190   9.2721

 ------ SPIN DOWN ----------


          k = 0.0000 0.0000 0.0000 ( 61588 PWs)   bands (ev):

   -60.7961 -60.7866 -60.7517 -60.7416 -60.7170 -60.7105 -60.6726 -60.6672
   -60.5299 -60.4048 -54.4012 -54.3528 -54.2737 -54.2266 -52.7106 -46.2809
   -46.2723 -41.6635 -41.6528 -41.5682 -41.5514 -39.8131 -27.7958 -27.7895
   -27.7116 -27.7016 -27.6088 -27.6023 -27.4828 -27.4728 -27.3812 -27.3463
   -27.3114 -27.2841 -27.2697 -27.2513 -27.2389 -27.1850 -27.1779 -27.1564
   -27.1018 -27.0767 -27.0167 -26.9743 -26.9671 -26.9603 -26.9517 -26.9055
   -26.8999 -26.8937 -26.8705 -26.8678 -24.1865 -23.9740 -23.6743 -23.5829
   -23.3302 -23.1975 -23.1748 -23.0731 -22.9470 -22.8742 -22.8530 -22.6325
   -22.5204 -22.4681 -22.4115 -22.3691 -22.2942 -22.2495 -21.7713 -21.7061
   -21.6405 -20.2182 -19.9701 -19.8577 -19.8470 -19.6410 -19.6224 -19.6139
   -19.6000 -19.5958 -19.5543 -19.3965 -19.3926 -18.1584 -17.9565 -17.8322
     1.4553   2.9158   2.9886   3.1277   3.3043   3.4507   3.5067   3.6749
     3.7373   3.8454   3.9029   4.0598   4.2146   4.4938   4.6592   4.6812
     4.7584   4.8309   5.0275   5.0798   5.1554   5.2533   5.2758   5.3103
     5.3899   5.5432   5.5965   5.7082   5.7178   5.7413   5.7464   5.7824
     5.9287   6.0882   6.1701   6.2116   6.2561   6.2796   6.3485   6.3751
     6.4479   6.5994   6.6479   6.6949   6.8599   6.9228   6.9921   7.0364
     7.0902   7.1387   7.2515   7.2726   7.3073   7.4234   7.5421   7.5748
     7.6042   7.7202   7.8834   7.9031   8.0714   8.0942   8.1025   8.1925
     8.2429   8.2920   8.3411   8.3669   8.4545   8.5436   8.6229   8.6665
     8.8060   8.8907   8.9345   9.0562   9.1323   9.2198   9.2716

     the Fermi energy is     7.2241 ev

!    total energy              =   -2943.06690491 Ry
     estimated scf accuracy    <       0.00050598 Ry
     smearing contrib. (-TS)   =      -0.09959305 Ry
     internal energy E=F+TS    =   -2942.96731186 Ry

     total magnetization       =     0.04 Bohr mag/cell
     absolute magnetization    =     0.05 Bohr mag/cell

     convergence has been achieved in  13 iterations

     negative rho (up, down):  9.090E-01 9.090E-01

     Forces acting on atoms (cartesian axes, Ry/au):

     atom    1 type  1   force =    -0.00494979   -0.02535695    0.01205132
     atom    2 type  1   force =    -0.11392523   -0.01816899   -0.00271321
     atom    3 type  1   force =    -0.11625886    0.01501887    0.00275274
     atom    4 type  1   force =     0.11282082   -0.01433697   -0.00541097
     atom    5 type  1   force =     0.13242047   -0.00184033    0.00653284
     atom    6 type  2   force =    -0.01162251   -0.01794394    0.00524494
     atom    7 type  2   force =    -0.01778963    0.01073516   -0.01081791
     atom    8 type  3   force =    -0.11749442    0.00425956   -0.00289061
     atom    9 type  3   force =     0.16618542    0.01584636    0.00173767
     atom   10 type  3   force =    -0.01983820   -0.03056163   -0.05957162
     atom   11 type  3   force =    -0.02079266   -0.03504754    0.05683443
     atom   12 type  3   force =    -0.01938933    0.03677127   -0.05543732
     atom   13 type  3   force =    -0.01803660    0.03151184    0.06235214
     atom   14 type  3   force =     0.02226944   -0.03003193   -0.05973528
     atom   15 type  3   force =     0.01903036   -0.03734545    0.05669248
     atom   16 type  3   force =     0.01994607    0.03764082   -0.05330231
     atom   17 type  3   force =     0.01527498    0.03754459    0.06159490
     atom   18 type  4   force =    -0.00424866    0.02419826   -0.00926949
     atom   19 type  4   force =    -0.12982709   -0.00537434   -0.11641223
     atom   20 type  4   force =    -0.13366660    0.00484197    0.11636660
     atom   21 type  4   force =     0.12703817   -0.00919033   -0.11750144
     atom   22 type  4   force =     0.14040774    0.00371331    0.11444405
     atom   23 type  5   force =    -0.02755390    0.00311639   -0.00354172
     The non-local contrib.  to forces
     atom    1 type  1   force =    -0.00262156   -0.01267751    0.03290929
     atom    2 type  1   force =    -0.24628419   -0.16307061    0.01523734
     atom    3 type  1   force =    -0.24030801    0.15698701   -0.02483200
     atom    4 type  1   force =     0.24849355   -0.16383193    0.02037797
     atom    5 type  1   force =     0.25527364    0.14570655   -0.01597234
     atom    6 type  2   force =     0.00659970   -0.05456479   -0.06816570
     atom    7 type  2   force =    -0.02431989    0.06157771    0.05973249
     atom    8 type  3   force =    -0.26858839    0.00300138   -0.00112508
     atom    9 type  3   force =     0.09285162   -0.06807101   -0.03424561
     atom   10 type  3   force =    -0.21139855    0.00368027   -0.20876786
     atom   11 type  3   force =    -0.21444322    0.00518874    0.19829136
     atom   12 type  3   force =    -0.20679155   -0.02003472   -0.17765152
     atom   13 type  3   force =    -0.21294523   -0.00404962    0.20601931
     atom   14 type  3   force =     0.20506447    0.00283469   -0.21873575
     atom   15 type  3   force =     0.21432136    0.00294371    0.19673255
     atom   16 type  3   force =     0.20660482   -0.02110533   -0.18265508
     atom   17 type  3   force =     0.23474519   -0.01473160    0.19247409
     atom   18 type  4   force =    -0.01239232    0.05570283   -0.06230424
     atom   19 type  4   force =     0.06309099    0.00796026    0.07116575
     atom   20 type  4   force =     0.05757616   -0.01810518   -0.06260087
     atom   21 type  4   force =    -0.05883609    0.00939236    0.07352448
     atom   22 type  4   force =    -0.05757879   -0.01100074   -0.06951874
     atom   23 type  5   force =    -0.03820345   -0.01445224   -0.01023519
     The ionic contribution  to forces
     atom    1 type  1   force =    -0.20374446   -4.72282459   14.04858143
     atom    2 type  1   force =   -39.66137728   -6.14024484    0.75411400
     atom    3 type  1   force =   -39.63872725    6.19925127   -0.74905321
     atom    4 type  1   force =    39.50373471   -6.20512431    0.72848827
     atom    5 type  1   force =    39.16420244    6.62984043   -0.84947940
     atom    6 type  2   force =    -0.15642003   -3.64258626  -13.99342179
     atom    7 type  2   force =    -0.42444769    3.66024063   14.05938859
     atom    8 type  3   force =   -52.07815298    0.00336504   -0.11453112
     atom    9 type  3   force =    50.56412991   -0.67773058   -0.51196171
     atom   10 type  3   force =   -36.04353957   -2.09498259  -23.08574298
     atom   11 type  3   force =   -35.11955934   -0.85341763   22.10781101
     atom   12 type  3   force =   -35.22983798    0.83136784  -22.15888439
     atom   13 type  3   force =   -36.02396664    2.23530955   23.11459450
     atom   14 type  3   force =    35.96627657   -2.11097245  -23.13096648
     atom   15 type  3   force =    35.01061269   -0.88421725   22.17293648
     atom   16 type  3   force =    35.10891312    0.89290325  -22.25789646
     atom   17 type  3   force =    35.80928202    2.37597523   23.29033113
     atom   18 type  4   force =    -0.25508260    4.39554356  -14.02818266
     atom   19 type  4   force =   -35.88143481    0.92992975  -25.56698128
     atom   20 type  4   force =   -35.86667585   -0.99114941   25.57902518
     atom   21 type  4   force =    35.73530697    0.88909038  -25.71822252
     atom   22 type  4   force =    35.55877495   -1.09623065   25.89911308
     atom   23 type  5   force =     4.16173310    0.37666364    0.41094032
     The local contribution  to forces
     atom    1 type  1   force =     0.20308572    4.70649787  -14.06972536
     atom    2 type  1   force =    39.81567310    6.28219514   -0.77496624
     atom    3 type  1   force =    39.78528152   -6.33702585    0.77524260
     atom    4 type  1   force =   -39.66010659    6.35387815   -0.76062144
     atom    5 type  1   force =   -39.30567383   -6.77770591    0.87153705
     atom    6 type  2   force =     0.14345933    3.67454471   14.05448976
     atom    7 type  2   force =     0.43527800   -3.70888042  -14.13099915
     atom    8 type  3   force =    52.26429727   -0.00464809    0.10724783
     atom    9 type  3   force =   -50.50243529    0.76816393    0.54630213
     atom   10 type  3   force =    36.26025783    2.05437294   23.24978263
     atom   11 type  3   force =    35.34210066    0.80659181  -22.26656452
     atom   12 type  3   force =    35.44248329   -0.76132774   22.29483517
     atom   13 type  3   force =    36.24598743   -2.18676146  -23.27278146
     atom   14 type  3   force =   -36.17152941    2.07166021   23.30440497
     atom   15 type  3   force =   -35.23407502    0.83324434  -22.32601611
     atom   16 type  3   force =   -35.31926906   -0.81847895   22.39947053
     atom   17 type  3   force =   -36.05284909   -2.31223425  -23.43376161
     atom   18 type  4   force =     0.26623959   -4.42715795   14.07215907
     atom   19 type  4   force =    35.69941842   -0.94790018   25.38783369
     atom   20 type  4   force =    35.68441704    1.00918642  -25.40635801
     atom   21 type  4   force =   -35.55637391   -0.91339021   25.53799808
     atom   22 type  4   force =   -35.36740986    1.10869846  -25.72376247
     atom   23 type  5   force =    -4.15142137   -0.35973504   -0.40494946
     The core correction contribution to forces
     atom    1 type  1   force =     0.00066596    0.00090118   -0.00086968
     atom    2 type  1   force =    -0.01181073   -0.00159984    0.00023097
     atom    3 type  1   force =    -0.01266009    0.00267392   -0.00154645
     atom    4 type  1   force =     0.01231509   -0.00214516    0.00224142
     atom    5 type  1   force =     0.00999194    0.00610170   -0.00116780
     atom    6 type  2   force =    -0.00036909    0.00251264    0.00277707
     atom    7 type  2   force =     0.00089317   -0.00303723   -0.00224137
     atom    8 type  3   force =    -0.03249299    0.00094289   -0.00018955
     atom    9 type  3   force =     0.01225769   -0.00931310   -0.00458754
     atom   10 type  3   force =    -0.02176370    0.00933787   -0.01666762
     atom   11 type  3   force =    -0.02409100    0.00894194    0.01817608
     atom   12 type  3   force =    -0.02234648   -0.01000002   -0.01539818
     atom   13 type  3   force =    -0.02331105   -0.00918514    0.01642989
     atom   14 type  3   force =     0.02207668    0.00997200   -0.01613024
     atom   15 type  3   force =     0.02349465    0.01026259    0.01509920
     atom   16 type  3   force =     0.02332871   -0.01178516   -0.01489984
     atom   17 type  3   force =     0.02387535   -0.00988691    0.01438547
     atom   18 type  4   force =     0.00059767   -0.00289223    0.00291637
     atom   19 type  4   force =    -0.00991687    0.00007734   -0.00947688
     atom   20 type  4   force =    -0.00976140    0.00059587    0.00907597
     atom   21 type  4   force =     0.00979259    0.00005430   -0.00961185
     atom   22 type  4   force =     0.01016403    0.00043357    0.00908010
     atom   23 type  5   force =     0.00000000    0.00000000    0.00000000
     The Hubbard contrib.    to forces
     atom    1 type  1   force =     0.00000000    0.00000000    0.00000000
     atom    2 type  1   force =     0.00000000    0.00000000    0.00000000
     atom    3 type  1   force =     0.00000000    0.00000000    0.00000000
     atom    4 type  1   force =     0.00000000    0.00000000    0.00000000
     atom    5 type  1   force =     0.00000000    0.00000000    0.00000000
     atom    6 type  2   force =     0.00000000    0.00000000    0.00000000
     atom    7 type  2   force =     0.00000000    0.00000000    0.00000000
     atom    8 type  3   force =     0.00000000    0.00000000    0.00000000
     atom    9 type  3   force =     0.00000000    0.00000000    0.00000000
     atom   10 type  3   force =     0.00000000    0.00000000    0.00000000
     atom   11 type  3   force =     0.00000000    0.00000000    0.00000000
     atom   12 type  3   force =     0.00000000    0.00000000    0.00000000
     atom   13 type  3   force =     0.00000000    0.00000000    0.00000000
     atom   14 type  3   force =     0.00000000    0.00000000    0.00000000
     atom   15 type  3   force =     0.00000000    0.00000000    0.00000000
     atom   16 type  3   force =     0.00000000    0.00000000    0.00000000
     atom   17 type  3   force =     0.00000000    0.00000000    0.00000000
     atom   18 type  4   force =     0.00000000    0.00000000    0.00000000
     atom   19 type  4   force =     0.00000000    0.00000000    0.00000000
     atom   20 type  4   force =     0.00000000    0.00000000    0.00000000
     atom   21 type  4   force =     0.00000000    0.00000000    0.00000000
     atom   22 type  4   force =     0.00000000    0.00000000    0.00000000
     atom   23 type  5   force =     0.00000000    0.00000000    0.00000000
     The SCF correction term to forces
     atom    1 type  1   force =    -0.00207705    0.00273945    0.00081534
     atom    2 type  1   force =    -0.00986773    0.00454451    0.00233041
     atom    3 type  1   force =    -0.00958663   -0.00687415    0.00260151
     atom    4 type  1   force =     0.00864245    0.00287963    0.00376250
     atom    5 type  1   force =     0.00888466   -0.00578975    0.00127503
     atom    6 type  2   force =    -0.00463403    0.00214311    0.00922530
     atom    7 type  2   force =    -0.00493483    0.00082782    0.00296122
     atom    8 type  3   force =    -0.00229893    0.00159169    0.00536700
     atom    9 type  3   force =    -0.00036013    0.00279047    0.00589011
     atom   10 type  3   force =    -0.00313582   -0.00297676    0.00148390
     atom   11 type  3   force =    -0.00454136   -0.00235904   -0.00121981
     atom   12 type  3   force =    -0.00263823   -0.00324074    0.00132130
     atom   13 type  3   force =    -0.00354272   -0.00380814   -0.00225040
     atom   14 type  3   force =     0.00063953   -0.00353303    0.00135191
     atom   15 type  3   force =     0.00493507    0.00041450   -0.00239993
     atom   16 type  3   force =     0.00062687   -0.00389964    0.00233825
     atom   17 type  3   force =     0.00047991   -0.00158454   -0.00217449
     atom   18 type  4   force =    -0.00335261    0.00299539    0.00580167
     atom   19 type  4   force =    -0.00072643    0.00455184    0.00070619
     atom   20 type  4   force =     0.00103584    0.00430761   -0.00311597
     atom   21 type  4   force =    -0.00259300    0.00565618   -0.00152994
     atom   22 type  4   force =    -0.00328420    0.00180601   -0.00080822
     atom   23 type  5   force =     0.00059620    0.00063337    0.00036230

     Total force =     0.516873     Total SCF correction =     0.032440


     Computing stress (Cartesian axis) and pressure


     negative rho (up, down):  9.090E-01 9.090E-01
          total   stress  (Ry/bohr**3)                   (kbar)     P=       83.31
   0.00067296   0.00000208  -0.00000266           99.00        0.31       -0.39
   0.00000208   0.00064317  -0.00000882            0.31       94.61       -1.30
  -0.00000266  -0.00000882   0.00038290           -0.39       -1.30       56.33


     Molecular Dynamics Calculation

     Starting temperature  =   300.00 K

     temperature is set once at start

     mass Hf               =   178.49
     mass Nb               =    92.91
     mass Ta               =   180.95
     mass Zr               =    91.22
     mass H                =     2.01
     Time step             =     4.20 a.u.,  0.2032 femto-seconds

     Entering Dynamics:    iteration =     1
                           time      =   0.0002 pico-seconds


ATOMIC_POSITIONS (angstrom)
Hf            2.6700767936        2.8271607910        6.6039867857
Hf            1.2530643903        1.2863221494        5.0584883696
Hf            1.2555605418        7.3898432150        5.0880900677
Hf            4.0870894492        1.2863222594        5.0584882922
Hf            4.0845937931        7.3898427313        5.0880901761
Nb            2.6700762950        2.7969681058        3.5156057271
Nb            2.6700759551        5.8764177573        6.6350195683
Ta            1.2094467095        4.3409664614        5.0711479718
Ta            4.1307085396        4.3409667893        5.0711481028
Ta            1.3073291013        1.3141602138        2.0587996455
Ta            1.3028647044        1.3084286335        8.0946030321
Ta            1.3040860520        7.3758656540        2.0462578322
Ta            1.3077872666        7.3651223295        8.0860262067
Ta            4.0328248387        1.3141602288        2.0587996409
Ta            4.0372891170        1.3084285684        8.0946030281
Ta            4.0360678350        7.3758656786        2.0462578927
Ta            4.0323665265        7.3651225002        8.0860261852
Zr            2.6700766971        5.8663256911        3.5274056314
Zr            1.2439043098        4.3221161521        2.0000156866
Zr            1.2404548880        4.3541620456        8.1497843028
Zr            4.0962494048        4.3221159379        2.0000156254
Zr            4.0996993616        4.3541619822        8.1497841949
H             5.7347993871        5.1421291680        5.5352765503


     kinetic energy (Ekin) =           4.04925691 Ry
     temperature           =       19373.54852167 K 
     Ekin + Etot (const)   =       -2939.01764800 Ry
     Ions kinetic stress =           71.51 (kbar)
                                    160.91          80.45          46.45
                                     80.45          40.23          23.22
                                     46.45          23.22          13.41



     Linear momentum :    0.0000000000    0.0000000000    0.0000000000

     File outdir/pwscf.msd.dat deleted, as requested

     Writing config-only to output data dir outdir/pwscf.save/
     NEW-OLD atomic charge density approx. for the potential

     Check: negative core charge=   -0.000002

     negative rho (up, down):  9.089E-01 9.089E-01
     Generating pointlists ...
     new r_m :   0.0818 (alat units)  1.4438 (a.u.) for type    3
     new r_m :   0.0818 (alat units)  1.4438 (a.u.) for type    5

     total cpu time spent up to now is      420.7 secs

     Self-consistent Calculation

     iteration #  1     ecut=   120.00 Ry     beta= 0.70
     Davidson diagonalization with overlap
     ethr =  1.00E-06,  avg # of iterations = 11.5

     negative rho (up, down):  9.089E-01 9.089E-01

     total cpu time spent up to now is      452.5 secs

     total energy              =   -2943.06700164 Ry
     estimated scf accuracy    <       0.02187630 Ry

     total magnetization       =     0.04 Bohr mag/cell
     absolute magnetization    =     0.04 Bohr mag/cell

     iteration #  2     ecut=   120.00 Ry     beta= 0.70
     Davidson diagonalization with overlap
     ethr =  7.90E-06,  avg # of iterations =  2.0

     negative rho (up, down):  9.089E-01 9.089E-01

     total cpu time spent up to now is      470.1 secs

     total energy              =   -2943.06851036 Ry
     estimated scf accuracy    <       0.00868477 Ry

     total magnetization       =     0.04 Bohr mag/cell
     absolute magnetization    =     0.04 Bohr mag/cell

     iteration #  3     ecut=   120.00 Ry     beta= 0.70
     Davidson diagonalization with overlap
     ethr =  3.14E-06,  avg # of iterations =  1.0

     negative rho (up, down):  9.090E-01 9.090E-01

     Magnetic moment per site  (integrated on atomic sphere of radius R)
     atom   1 (R=0.112)  charge=  9.4638  magn= -0.0000
     atom   2 (R=0.112)  charge=  9.0578  magn=  0.0001
     atom   3 (R=0.112)  charge=  9.0576  magn=  0.0001
     atom   4 (R=0.112)  charge=  9.0572  magn= -0.0000
     atom   5 (R=0.112)  charge=  9.0507  magn=  0.0002
     atom   6 (R=0.110)  charge= 10.3493  magn=  0.0001
     atom   7 (R=0.110)  charge= 10.3498  magn= -0.0000
     atom   8 (R=0.082)  charge=  7.4362  magn= -0.0001
     atom   9 (R=0.082)  charge=  7.4323  magn=  0.0001
     atom  10 (R=0.082)  charge=  7.4176  magn=  0.0004
     atom  11 (R=0.082)  charge=  7.4200  magn=  0.0006
     atom  12 (R=0.082)  charge=  7.4168  magn=  0.0007
     atom  13 (R=0.082)  charge=  7.4196  magn=  0.0004
     atom  14 (R=0.082)  charge=  7.4180  magn=  0.0007
     atom  15 (R=0.082)  charge=  7.4202  magn=  0.0005
     atom  16 (R=0.082)  charge=  7.4169  magn=  0.0004
     atom  17 (R=0.082)  charge=  7.4242  magn=  0.0010
     atom  18 (R=0.111)  charge=  9.4529  magn=  0.0000
     atom  19 (R=0.111)  charge=  8.9969  magn=  0.0007
     atom  20 (R=0.111)  charge=  8.9974  magn=  0.0004
     atom  21 (R=0.111)  charge=  8.9974  magn=  0.0008
     atom  22 (R=0.111)  charge=  8.9972  magn=  0.0007
     atom  23 (R=0.082)  charge=  0.9463  magn=  0.0000

     total cpu time spent up to now is      485.8 secs

     End of self-consistent calculation

 ------ SPIN UP ------------


          k = 0.0000 0.0000 0.0000 ( 61588 PWs)   bands (ev):

   -60.7753 -60.7720 -60.7307 -60.7272 -60.7007 -60.6891 -60.6575 -60.6441
   -60.5013 -60.2792 -54.3825 -54.3333 -54.2543 -54.2071 -52.6980 -46.2608
   -46.2572 -41.6477 -41.6392 -41.5501 -41.5374 -39.7985 -27.7808 -27.7692
   -27.6917 -27.6863 -27.5929 -27.5829 -27.4726 -27.4458 -27.3516 -27.3274
   -27.2827 -27.2616 -27.2574 -27.2345 -27.2168 -27.1689 -27.1537 -27.1299
   -27.0746 -26.9859 -26.9601 -26.9506 -26.9462 -26.9254 -26.9109 -26.8892
   -26.8719 -26.8604 -26.8446 -26.8155 -24.1676 -23.9541 -23.6572 -23.5649
   -23.3123 -23.1783 -23.1562 -23.0540 -22.9282 -22.8570 -22.8337 -22.6145
   -22.5033 -22.4513 -22.3939 -22.3499 -22.2773 -22.2305 -21.7572 -21.6914
   -21.6281 -20.2025 -19.9543 -19.8429 -19.8310 -19.6251 -19.6080 -19.5973
   -19.5824 -19.5800 -19.5369 -19.3799 -19.3770 -18.1432 -17.9410 -17.8179
     1.4507   2.8769   2.9359   3.1471   3.3148   3.4667   3.5213   3.6940
     3.7569   3.8584   3.9196   4.0658   4.2290   4.5120   4.6707   4.6931
     4.7754   4.8208   5.0428   5.0912   5.1630   5.2720   5.2911   5.3215
     5.4014   5.5605   5.6245   5.7287   5.7338   5.7570   5.7743   5.7979
     5.9450   6.1057   6.1881   6.2307   6.2710   6.3036   6.3654   6.3901
     6.4569   6.6198   6.6631   6.7107   6.8775   6.9385   7.0041   7.0487
     7.0961   7.1514   7.2598   7.2790   7.3233   7.4327   7.5570   7.5811
     7.6223   7.7323   7.8987   7.9197   8.0882   8.0970   8.1170   8.2041
     8.2607   8.3105   8.3554   8.3825   8.4775   8.5568   8.6352   8.6821
     8.8225   8.8969   8.9574   9.0694   9.1465   9.2478   9.2915

 ------ SPIN DOWN ----------


          k = 0.0000 0.0000 0.0000 ( 61588 PWs)   bands (ev):

   -60.7745 -60.7712 -60.7299 -60.7266 -60.6999 -60.6884 -60.6567 -60.6434
   -60.5013 -60.2790 -54.3824 -54.3332 -54.2542 -54.2071 -52.6980 -46.2608
   -46.2571 -41.6472 -41.6386 -41.5498 -41.5368 -39.7985 -27.7796 -27.7681
   -27.6905 -27.6852 -27.5916 -27.5818 -27.4716 -27.4448 -27.3511 -27.3266
   -27.2825 -27.2608 -27.2566 -27.2335 -27.2160 -27.1682 -27.1530 -27.1297
   -27.0745 -26.9854 -26.9590 -26.9496 -26.9451 -26.9245 -26.9105 -26.8880
   -26.8708 -26.8594 -26.8437 -26.8154 -24.1675 -23.9540 -23.6570 -23.5649
   -23.3121 -23.1781 -23.1560 -23.0539 -22.9281 -22.8569 -22.8337 -22.6144
   -22.5032 -22.4512 -22.3938 -22.3498 -22.2772 -22.2305 -21.7571 -21.6914
   -21.6280 -20.2018 -19.9539 -19.8423 -19.8305 -19.6246 -19.6074 -19.5968
   -19.5818 -19.5796 -19.5365 -19.3794 -19.3762 -18.1431 -17.9409 -17.8177
     1.4514   2.8773   2.9373   3.1476   3.3153   3.4684   3.5218   3.6944
     3.7575   3.8589   3.9212   4.0664   4.2299   4.5124   4.6713   4.6941
     4.7761   4.8217   5.0440   5.0922   5.1638   5.2727   5.2920   5.3226
     5.4029   5.5611   5.6250   5.7297   5.7346   5.7578   5.7745   5.7987
     5.9455   6.1071   6.1889   6.2315   6.2717   6.3047   6.3661   6.3910
     6.4583   6.6206   6.6638   6.7116   6.8784   6.9399   7.0068   7.0507
     7.1005   7.1533   7.2628   7.2819   7.3244   7.4370   7.5582   7.5832
     7.6240   7.7341   7.8999   7.9210   8.0903   8.0983   8.1182   8.2070
     8.2625   8.3113   8.3579   8.3838   8.4785   8.5581   8.6365   8.6832
     8.8234   8.8999   8.9586   9.0704   9.1476   9.2484   9.2903

     the Fermi energy is     7.2378 ev

!    total energy              =   -2943.06844257 Ry
     estimated scf accuracy    <       0.00085312 Ry
     smearing contrib. (-TS)   =      -0.09975602 Ry
     internal energy E=F+TS    =   -2942.96868654 Ry

     total magnetization       =     0.04 Bohr mag/cell
     absolute magnetization    =     0.04 Bohr mag/cell

     convergence has been achieved in   3 iterations

     negative rho (up, down):  9.090E-01 9.090E-01

     Forces acting on atoms (cartesian axes, Ry/au):

     atom    1 type  1   force =    -0.00755313   -0.02876586    0.02027878
     atom    2 type  1   force =    -0.12108732   -0.01698134    0.00514681
     atom    3 type  1   force =    -0.12286606    0.01340066    0.01052854
     atom    4 type  1   force =     0.11975304   -0.01581446    0.00300913
     atom    5 type  1   force =     0.13719655   -0.00233460    0.01437363
     atom    6 type  2   force =    -0.01244536   -0.02020111    0.00102390
     atom    7 type  2   force =    -0.01751212    0.01190696   -0.01205297
     atom    8 type  3   force =    -0.12262839    0.00530044    0.00021020
     atom    9 type  3   force =     0.14720788    0.00342576   -0.00433612
     atom   10 type  3   force =    -0.02136984   -0.02906601   -0.06188808
     atom   11 type  3   force =    -0.02138351   -0.03570119    0.05334261
     atom   12 type  3   force =    -0.02240231    0.03522146   -0.05866571
     atom   13 type  3   force =    -0.01815060    0.03193451    0.05910696
     atom   14 type  3   force =     0.02374279   -0.02869213   -0.06245581
     atom   15 type  3   force =     0.01994142   -0.03827799    0.05312755
     atom   16 type  3   force =     0.02289646    0.03596112   -0.05619583
     atom   17 type  3   force =     0.01535035    0.03797616    0.05787773
     atom   18 type  4   force =    -0.00461598    0.02613945   -0.01072317
     atom   19 type  4   force =    -0.12969031   -0.00462518   -0.11823724
     atom   20 type  4   force =    -0.13339357    0.00480749    0.11243516
     atom   21 type  4   force =     0.12577793   -0.00809350   -0.12069310
     atom   22 type  4   force =     0.13786248    0.00422263    0.11222237
     atom   23 type  5   force =     0.00536960    0.01825672    0.00256469
     The non-local contrib.  to forces
     atom    1 type  1   force =    -0.00406500   -0.01452232    0.03736121
     atom    2 type  1   force =    -0.24973901   -0.16153587    0.02029926
     atom    3 type  1   force =    -0.24448797    0.15503320   -0.02019424
     atom    4 type  1   force =     0.25149829   -0.16439796    0.02548848
     atom    5 type  1   force =     0.25988843    0.14377030   -0.01259399
     atom    6 type  2   force =     0.00722099   -0.05522773   -0.06944908
     atom    7 type  2   force =    -0.02274855    0.06137799    0.06109826
     atom    8 type  3   force =    -0.26834110    0.00263259    0.00245674
     atom    9 type  3   force =     0.07022103   -0.07991314   -0.03836796
     atom   10 type  3   force =    -0.21182618    0.00341950   -0.21042924
     atom   11 type  3   force =    -0.21329605    0.00502065    0.19634325
     atom   12 type  3   force =    -0.20723836   -0.02116395   -0.17879627
     atom   13 type  3   force =    -0.20954541   -0.00470547    0.20412978
     atom   14 type  3   force =     0.20404263    0.00334115   -0.21972669
     atom   15 type  3   force =     0.21231009    0.00233357    0.19478596
     atom   16 type  3   force =     0.20663448   -0.02269055   -0.18299870
     atom   17 type  3   force =     0.22902551   -0.01300271    0.19331435
     atom   18 type  4   force =    -0.01379406    0.05637400   -0.06101584
     atom   19 type  4   force =     0.06342038    0.00861388    0.07064939
     atom   20 type  4   force =     0.05805095   -0.01744984   -0.06428060
     atom   21 type  4   force =    -0.05943871    0.01001328    0.07153301
     atom   22 type  4   force =    -0.05825998   -0.01052179   -0.06804860
     atom   23 type  5   force =    -0.04834347   -0.01991684   -0.01360340
     The ionic contribution  to forces
     atom    1 type  1   force =    -0.22582558   -4.73763794   14.06061584
     atom    2 type  1   force =   -39.67281253   -6.14457513    0.75570459
     atom    3 type  1   force =   -39.65887889    6.19995997   -0.74627567
     atom    4 type  1   force =    39.50386446   -6.22612264    0.72944516
     atom    5 type  1   force =    39.17842455    6.66525054   -0.84390047
     atom    6 type  2   force =    -0.17515828   -3.65509217  -14.00476144
     atom    7 type  2   force =    -0.45945962    3.67990700   14.08092601
     atom    8 type  3   force =   -52.11341910    0.00688554   -0.11171394
     atom    9 type  3   force =    50.29706792   -0.81040139   -0.58801396
     atom   10 type  3   force =   -36.04966220   -2.09731228  -23.08743653
     atom   11 type  3   force =   -35.12756620   -0.85614300   22.10844930
     atom   12 type  3   force =   -35.23829488    0.83213415  -22.15991348
     atom   13 type  3   force =   -36.03607374    2.23488904   23.11368880
     atom   14 type  3   force =    35.96678467   -2.11722334  -23.13723028
     atom   15 type  3   force =    35.01327795   -0.89301337   22.17863069
     atom   16 type  3   force =    35.11155594    0.89918814  -22.26528307
     atom   17 type  3   force =    35.82168204    2.38002143   23.29334217
     atom   18 type  4   force =    -0.28102418    4.40835861  -14.04426185
     atom   19 type  4   force =   -35.89160581    0.93116502  -25.56971195
     atom   20 type  4   force =   -35.88254139   -0.98850280   25.57992977
     atom   21 type  4   force =    35.73291519    0.88830526  -25.74051430
     atom   22 type  4   force =    35.56278897   -1.09341563   25.92972455
     atom   23 type  5   force =     4.62396070    0.49337500    0.46856004
     The local contribution  to forces
     atom    1 type  1   force =     0.21596734    4.70970221  -14.04671371
     atom    2 type  1   force =    39.79889536    6.29071245   -0.74502097
     atom    3 type  1   force =    39.77899974   -6.34291403    0.80549578
     atom    4 type  1   force =   -39.63671922    6.37196385   -0.72743994
     atom    5 type  1   force =   -39.30234667   -6.81350071    0.90005734
     atom    6 type  2   force =     0.14963499    3.67979355   14.07472154
     atom    7 type  2   force =     0.46219932   -3.71359677  -14.11862960
     atom    8 type  3   force =    52.27221362   -0.00484774    0.13893160
     atom    9 type  3   force =   -50.19106659    0.92078748    0.66429140
     atom   10 type  3   force =    36.24787862    2.06267462   23.24692017
     atom   11 type  3   force =    35.33794396    0.79975454  -22.27378946
     atom   12 type  3   force =    35.42597145   -0.76874484   22.28682872
     atom   13 type  3   force =    36.24555365   -2.17955139  -23.27762697
     atom   14 type  3   force =   -36.15791593    2.08260526   23.30397825
     atom   15 type  3   force =   -35.22528199    0.83266115  -22.33944151
     atom   16 type  3   force =   -35.30191283   -0.83276071   22.39871366
     atom   17 type  3   force =   -36.05411960   -2.31046040  -23.44709226
     atom   18 type  4   force =     0.28606064   -4.43552185   14.10086391
     atom   19 type  4   force =    35.70039567   -0.94631480   25.38147526
     atom   20 type  4   force =    35.69776356    1.00885647  -25.41432592
     atom   21 type  4   force =   -35.55237001   -0.90757296   25.54449620
     atom   22 type  4   force =   -35.37712010    1.10861320  -25.75664501
     atom   23 type  5   force =    -4.57250519   -0.45640597   -0.44980651
     The core correction contribution to forces
     atom    1 type  1   force =     0.00071459    0.00081755   -0.00115256
     atom    2 type  1   force =    -0.01181061   -0.00155362    0.00032104
     atom    3 type  1   force =    -0.01271852    0.00274208   -0.00155025
     atom    4 type  1   force =     0.01232049   -0.00227278    0.00232482
     atom    5 type  1   force =     0.01049849    0.00570093   -0.00121066
     atom    6 type  2   force =    -0.00038225    0.00256359    0.00287777
     atom    7 type  2   force =     0.00080729   -0.00296888   -0.00229084
     atom    8 type  3   force =    -0.03212012    0.00090533   -0.00031871
     atom    9 type  3   force =     0.00976214   -0.01053869   -0.00558376
     atom   10 type  3   force =    -0.02167733    0.00925677   -0.01669837
     atom   11 type  3   force =    -0.02401722    0.00904668    0.01809469
     atom   12 type  3   force =    -0.02228623   -0.01003126   -0.01533683
     atom   13 type  3   force =    -0.02304599   -0.00932809    0.01632562
     atom   14 type  3   force =     0.02205448    0.00987531   -0.01626152
     atom   15 type  3   force =     0.02330913    0.01032265    0.01512978
     atom   16 type  3   force =     0.02317061   -0.01172655   -0.01485209
     atom   17 type  3   force =     0.02337934   -0.00991367    0.01453395
     atom   18 type  4   force =     0.00063950   -0.00286495    0.00292130
     atom   19 type  4   force =    -0.00992840    0.00007482   -0.00949316
     atom   20 type  4   force =    -0.00978887    0.00058198    0.00913107
     atom   21 type  4   force =     0.00976711    0.00006314   -0.00960084
     atom   22 type  4   force =     0.01014245    0.00041923    0.00901601
     atom   23 type  5   force =     0.00000000    0.00000000    0.00000000
     The Hubbard contrib.    to forces
     atom    1 type  1   force =     0.00000000    0.00000000    0.00000000
     atom    2 type  1   force =     0.00000000    0.00000000    0.00000000
     atom    3 type  1   force =     0.00000000    0.00000000    0.00000000
     atom    4 type  1   force =     0.00000000    0.00000000    0.00000000
     atom    5 type  1   force =     0.00000000    0.00000000    0.00000000
     atom    6 type  2   force =     0.00000000    0.00000000    0.00000000
     atom    7 type  2   force =     0.00000000    0.00000000    0.00000000
     atom    8 type  3   force =     0.00000000    0.00000000    0.00000000
     atom    9 type  3   force =     0.00000000    0.00000000    0.00000000
     atom   10 type  3   force =     0.00000000    0.00000000    0.00000000
     atom   11 type  3   force =     0.00000000    0.00000000    0.00000000
     atom   12 type  3   force =     0.00000000    0.00000000    0.00000000
     atom   13 type  3   force =     0.00000000    0.00000000    0.00000000
     atom   14 type  3   force =     0.00000000    0.00000000    0.00000000
     atom   15 type  3   force =     0.00000000    0.00000000    0.00000000
     atom   16 type  3   force =     0.00000000    0.00000000    0.00000000
     atom   17 type  3   force =     0.00000000    0.00000000    0.00000000
     atom   18 type  4   force =     0.00000000    0.00000000    0.00000000
     atom   19 type  4   force =     0.00000000    0.00000000    0.00000000
     atom   20 type  4   force =     0.00000000    0.00000000    0.00000000
     atom   21 type  4   force =     0.00000000    0.00000000    0.00000000
     atom   22 type  4   force =     0.00000000    0.00000000    0.00000000
     atom   23 type  5   force =     0.00000000    0.00000000    0.00000000
     The SCF correction term to forces
     atom    1 type  1   force =     0.00554637    0.01286851   -0.02809868
     atom    2 type  1   force =     0.01427032   -0.00003530   -0.02442379
     atom    3 type  1   force =     0.01411043   -0.00142669   -0.02521376
     atom    4 type  1   force =    -0.01132013    0.00500894   -0.02507607
     atom    5 type  1   force =    -0.00937740   -0.00356178   -0.02624528
     atom    6 type  2   force =     0.00613005    0.00775552   -0.00063157
     atom    7 type  2   force =     0.00158028   -0.01281852   -0.03142347
     atom    8 type  3   force =     0.01892916   -0.00028141   -0.02741217
     atom    9 type  3   force =    -0.03888577   -0.01651463   -0.03492851
     atom   10 type  3   force =     0.01380810   -0.00711075    0.00748922
     atom   11 type  3   force =     0.00544284    0.00661382    0.00597816
     atom   12 type  3   force =     0.01933656    0.00302123    0.01028547
     atom   13 type  3   force =     0.00485174   -0.00937571    0.00432306
     atom   14 type  3   force =    -0.01133222   -0.00729664    0.00851774
     atom   15 type  3   force =    -0.00378291    0.00941189    0.00575596
     atom   16 type  3   force =    -0.01666089    0.00394466    0.00995770
     atom   17 type  3   force =    -0.00472609   -0.00867463    0.00551284
     atom   18 type  4   force =     0.00339297   -0.00021248   -0.00749737
     atom   19 type  4   force =     0.00791869    0.00182977    0.01057654
     atom   20 type  4   force =     0.00301303    0.00131555    0.00371415
     atom   21 type  4   force =    -0.00520481    0.00109166    0.01512616
     atom   22 type  4   force =     0.00020198   -0.00087851   -0.00009126
     atom   23 type  5   force =     0.00214842    0.00119841   -0.00085211

     Total force =     0.517174     Total SCF correction =     0.109692
     SCF correction compared to forces is large: reduce conv_thr to get better values


     Computing stress (Cartesian axis) and pressure


     negative rho (up, down):  9.090E-01 9.090E-01
          total   stress  (Ry/bohr**3)                   (kbar)     P=       83.91
   0.00067295   0.00000845   0.00000020           98.99        1.24        0.03
   0.00000845   0.00065527  -0.00000785            1.24       96.39       -1.15
   0.00000020  -0.00000785   0.00038303            0.03       -1.15       56.35


     Entering Dynamics:    iteration =     2
                           time      =   0.0004 pico-seconds


ATOMIC_POSITIONS (angstrom)
Hf            2.6701531968        2.8271969023        6.6040105163
Hf            1.2531311525        1.2863591431        5.0585108084
Hf            1.2556271349        7.3898829041        5.0881129721
Hf            4.0871765359        1.2863594299        5.0585105309
Hf            4.0846824430        7.3898810338        5.0881134096
Nb            2.6701512610        2.7970033791        3.5156283504
Nb            2.6701500227        5.8764581509        6.6350398646
Ta            1.2095134222        4.3410053713        5.0711701232
Ta            4.1307985532        4.3410059210        5.0711701279
Ta            1.3074043089        1.3141961931        2.0588166781
Ta            1.3029398842        1.3084641102        8.0946298810
Ta            1.3041612139        7.3759071775        2.0462751642
Ta            1.3078627074        7.3651635181        8.0860535380
Ta            4.0329037914        1.3141962442        2.0588166367
Ta            4.0373677628        1.3084638343        8.0946298608
Ta            4.0361466740        7.3759072686        2.0462754248
Ta            4.0324448062        7.3651642015        8.0860534256
Zr            2.6701529190        5.8663684734        3.5274261285
Zr            1.2439594404        4.3221538205        2.0000180987
Zr            1.2405093873        4.3542013464        8.1498256793
Zr            4.0963476356        4.3221530027        2.0000177007
Zr            4.0997996997        4.3542011541        8.1498254396
H             5.6069484142        5.0783258215        5.4983863478


     kinetic energy (Ekin) =           4.05070236 Ry
     temperature           =       19380.46423804 K 
     Ekin + Etot (const)   =       -2939.01774020 Ry
     Ions kinetic stress =           71.54 (kbar)
                                    161.05          80.42          46.47
                                     80.42          40.16          23.21
                                     46.47          23.21          13.41



     Linear momentum :    0.0000000000    0.0000000000    0.0000000000

     Writing config-only to output data dir outdir/pwscf.save/
     NEW-OLD atomic charge density approx. for the potential

     Check: negative core charge=   -0.000002

     negative rho (up, down):  9.089E-01 9.089E-01
     Generating pointlists ...
     new r_m :   0.0753 (alat units)  1.3286 (a.u.) for type    3
     new r_m :   0.0753 (alat units)  1.3286 (a.u.) for type    5

     total cpu time spent up to now is      523.0 secs

     Self-consistent Calculation

     iteration #  1     ecut=   120.00 Ry     beta= 0.70
     Davidson diagonalization with overlap
     c_bands:  1 eigenvalues not converged
     c_bands:  1 eigenvalues not converged
     ethr =  1.00E-06,  avg # of iterations = 20.0

     negative rho (up, down):  9.091E-01 9.091E-01

     total cpu time spent up to now is      589.5 secs

     total energy              =   -2943.02934571 Ry
     estimated scf accuracy    <       0.27532845 Ry

     total magnetization       =     0.04 Bohr mag/cell
     absolute magnetization    =     0.04 Bohr mag/cell

     iteration #  2     ecut=   120.00 Ry     beta= 0.70
     Davidson diagonalization with overlap
     ethr =  9.94E-05,  avg # of iterations =  2.0

     negative rho (up, down):  9.091E-01 9.091E-01

     total cpu time spent up to now is      605.1 secs

     total energy              =   -2943.04668999 Ry
     estimated scf accuracy    <       0.17675357 Ry

     total magnetization       =     0.03 Bohr mag/cell
     absolute magnetization    =     0.04 Bohr mag/cell

     iteration #  3     ecut=   120.00 Ry     beta= 0.70
     Davidson diagonalization with overlap
     ethr =  6.38E-05,  avg # of iterations =  1.0

     negative rho (up, down):  9.090E-01 9.090E-01

     total cpu time spent up to now is      620.8 secs

     total energy              =   -2943.05634752 Ry
     estimated scf accuracy    <       0.00386695 Ry

     total magnetization       =     0.03 Bohr mag/cell
     absolute magnetization    =     0.04 Bohr mag/cell

     iteration #  4     ecut=   120.00 Ry     beta= 0.70
     Davidson diagonalization with overlap
     c_bands:  1 eigenvalues not converged
     ethr =  1.40E-06,  avg # of iterations = 17.0

     negative rho (up, down):  9.089E-01 9.089E-01

     total cpu time spent up to now is      642.4 secs

     total energy              =   -2943.05647847 Ry
     estimated scf accuracy    <       0.00197138 Ry

     total magnetization       =     0.03 Bohr mag/cell
     absolute magnetization    =     0.04 Bohr mag/cell

     iteration #  5     ecut=   120.00 Ry     beta= 0.70
     Davidson diagonalization with overlap
     ethr =  7.12E-07,  avg # of iterations =  1.5

     negative rho (up, down):  9.089E-01 9.089E-01

     Magnetic moment per site  (integrated on atomic sphere of radius R)
     atom   1 (R=0.112)  charge=  9.4635  magn= -0.0000
     atom   2 (R=0.112)  charge=  9.0584  magn=  0.0001
     atom   3 (R=0.112)  charge=  9.0583  magn=  0.0002
     atom   4 (R=0.112)  charge=  9.0579  magn=  0.0000
     atom   5 (R=0.112)  charge=  9.0511  magn=  0.0002
     atom   6 (R=0.110)  charge= 10.3512  magn= -0.0000
     atom   7 (R=0.110)  charge= 10.3483  magn= -0.0000
     atom   8 (R=0.075)  charge=  6.6168  magn= -0.0001
     atom   9 (R=0.075)  charge=  6.6262  magn=  0.0000
     atom  10 (R=0.075)  charge=  6.6013  magn=  0.0003
     atom  11 (R=0.075)  charge=  6.5992  magn=  0.0003
     atom  12 (R=0.075)  charge=  6.6011  magn=  0.0005
     atom  13 (R=0.075)  charge=  6.6001  magn=  0.0002
     atom  14 (R=0.075)  charge=  6.6001  magn=  0.0004
     atom  15 (R=0.075)  charge=  6.5979  magn=  0.0003
     atom  16 (R=0.075)  charge=  6.6007  magn=  0.0005
     atom  17 (R=0.075)  charge=  6.6002  magn=  0.0005
     atom  18 (R=0.111)  charge=  9.4545  magn= -0.0001
     atom  19 (R=0.111)  charge=  8.9977  magn=  0.0007
     atom  20 (R=0.111)  charge=  8.9946  magn=  0.0004
     atom  21 (R=0.111)  charge=  8.9970  magn=  0.0008
     atom  22 (R=0.111)  charge=  8.9942  magn=  0.0007
     atom  23 (R=0.075)  charge=  0.9157  magn=  0.0000

     total cpu time spent up to now is      659.1 secs

     End of self-consistent calculation

 ------ SPIN UP ------------


          k = 0.0000 0.0000 0.0000 ( 61588 PWs)   bands (ev):

   -60.7855 -60.7746 -60.7409 -60.7297 -60.7060 -60.6974 -60.6617 -60.6554
   -60.5151 -60.2265 -54.3890 -54.3416 -54.2588 -54.2134 -52.7035 -46.2643
   -46.2624 -41.6421 -41.6379 -41.5481 -41.5374 -39.8041 -27.7860 -27.7788
   -27.7021 -27.6910 -27.5979 -27.5897 -27.4726 -27.4619 -27.3561 -27.3343
   -27.2868 -27.2740 -27.2579 -27.2372 -27.2258 -27.1737 -27.1667 -27.1404
   -27.0868 -26.9697 -26.9643 -26.9570 -26.9492 -26.9246 -26.8903 -26.8890
   -26.8801 -26.8607 -26.8581 -26.7971 -24.1726 -23.9597 -23.6631 -23.5733
   -23.3176 -23.1840 -23.1637 -23.0595 -22.9334 -22.8661 -22.8404 -22.6223
   -22.5088 -22.4576 -22.3992 -22.3540 -22.2820 -22.2348 -21.7615 -21.6957
   -21.6343 -20.2042 -19.9494 -19.8407 -19.8351 -19.6200 -19.6063 -19.5980
   -19.5826 -19.5812 -19.5366 -19.3777 -19.3751 -18.1504 -17.9465 -17.8232
     1.4142   2.7283   2.9257   3.1382   3.3002   3.4628   3.5109   3.6867
     3.7473   3.8531   3.9132   4.0514   4.2199   4.4971   4.6535   4.6864
     4.7630   4.7987   5.0368   5.0765   5.1549   5.2657   5.2851   5.3114
     5.3932   5.5528   5.6279   5.7226   5.7270   5.7515   5.7687   5.7882
     5.9372   6.1007   6.1829   6.2254   6.2642   6.3087   6.3610   6.3808
     6.4480   6.6162   6.6587   6.7062   6.8743   6.9331   6.9968   7.0442
     7.0921   7.1471   7.2502   7.2686   7.3175   7.4285   7.5546   7.5680
     7.6160   7.7245   7.8939   7.9150   8.0816   8.0917   8.1111   8.1968
     8.2530   8.3040   8.3500   8.3775   8.4802   8.5504   8.6302   8.6771
     8.8189   8.8949   8.9585   9.0644   9.1356   9.2443   9.2750

 ------ SPIN DOWN ----------


          k = 0.0000 0.0000 0.0000 ( 61588 PWs)   bands (ev):

   -60.7849 -60.7741 -60.7403 -60.7292 -60.7053 -60.6968 -60.6610 -60.6548
   -60.5153 -60.2264 -54.3889 -54.3415 -54.2588 -54.2133 -52.7035 -46.2644
   -46.2624 -41.6416 -41.6372 -41.5476 -41.5367 -39.8041 -27.7851 -27.7780
   -27.7012 -27.6901 -27.5970 -27.5889 -27.4719 -27.4610 -27.3557 -27.3337
   -27.2867 -27.2733 -27.2573 -27.2366 -27.2250 -27.1731 -27.1660 -27.1403
   -27.0868 -26.9693 -26.9634 -26.9562 -26.9482 -26.9242 -26.8896 -26.8880
   -26.8797 -26.8599 -26.8574 -26.7971 -24.1725 -23.9596 -23.6630 -23.5732
   -23.3175 -23.1839 -23.1635 -23.0594 -22.9333 -22.8660 -22.8403 -22.6222
   -22.5088 -22.4577 -22.3990 -22.3540 -22.2819 -22.2348 -21.7615 -21.6956
   -21.6343 -20.2034 -19.9488 -19.8400 -19.8346 -19.6194 -19.6055 -19.5974
   -19.5821 -19.5805 -19.5361 -19.3768 -19.3744 -18.1505 -17.9465 -17.8232
     1.4147   2.7286   2.9268   3.1385   3.3005   3.4641   3.5113   3.6869
     3.7478   3.8535   3.9144   4.0519   4.2206   4.4975   4.6539   4.6872
     4.7636   4.7993   5.0378   5.0772   5.1555   5.2663   5.2858   5.3122
     5.3944   5.5533   5.6282   5.7233   5.7278   5.7522   5.7688   5.7889
     5.9377   6.1018   6.1835   6.2260   6.2648   6.3095   6.3616   6.3815
     6.4491   6.6168   6.6594   6.7069   6.8751   6.9342   6.9988   7.0461
     7.0956   7.1487   7.2531   7.2708   7.3183   7.4318   7.5558   7.5698
     7.6175   7.7258   7.8948   7.9159   8.0834   8.0929   8.1121   8.1990
     8.2546   8.3046   8.3520   8.3786   8.4811   8.5515   8.6312   8.6781
     8.8197   8.8976   8.9596   9.0653   9.1367   9.2448   9.2753

     the Fermi energy is     7.2312 ev

!    total energy              =   -2943.05633895 Ry
     estimated scf accuracy    <       0.00030591 Ry
     smearing contrib. (-TS)   =      -0.10008257 Ry
     internal energy E=F+TS    =   -2942.95625637 Ry

     total magnetization       =     0.03 Bohr mag/cell
     absolute magnetization    =     0.03 Bohr mag/cell

     convergence has been achieved in   5 iterations

     negative rho (up, down):  9.089E-01 9.089E-01

     Forces acting on atoms (cartesian axes, Ry/au):

     atom    1 type  1   force =    -0.00572530   -0.02518368    0.01056402
     atom    2 type  1   force =    -0.11488049   -0.01667280   -0.00609415
     atom    3 type  1   force =    -0.11667977    0.01318151   -0.00129617
     atom    4 type  1   force =     0.11412289   -0.01361404   -0.00899225
     atom    5 type  1   force =     0.12918522   -0.00166054    0.00221561
     atom    6 type  2   force =    -0.01260315   -0.02059639    0.00466399
     atom    7 type  2   force =    -0.01680571    0.01114492   -0.00998027
     atom    8 type  3   force =    -0.11991433    0.00517542   -0.00213578
     atom    9 type  3   force =     0.08420764   -0.03032269   -0.02687419
     atom   10 type  3   force =    -0.01790131   -0.03082082   -0.05704592
     atom   11 type  3   force =    -0.01946425   -0.03435076    0.05787610
     atom   12 type  3   force =    -0.01801684    0.03667261   -0.05374776
     atom   13 type  3   force =    -0.01702725    0.03055894    0.06367628
     atom   14 type  3   force =     0.02068239   -0.03087371   -0.05773642
     atom   15 type  3   force =     0.01797729   -0.03643890    0.05791864
     atom   16 type  3   force =     0.01849057    0.03778201   -0.05134730
     atom   17 type  3   force =     0.01393311    0.03632190    0.06301209
     atom   18 type  4   force =    -0.00347053    0.02704528   -0.00891466
     atom   19 type  4   force =    -0.12980818   -0.00467493   -0.11368272
     atom   20 type  4   force =    -0.13192553    0.00452363    0.11566779
     atom   21 type  4   force =     0.12606552   -0.00839613   -0.11488422
     atom   22 type  4   force =     0.13517852    0.00389953    0.11525723
     atom   23 type  5   force =     0.06437950    0.04729964    0.02188008
     The non-local contrib.  to forces
     atom    1 type  1   force =    -0.00221775   -0.01082005    0.02988028
     atom    2 type  1   force =    -0.24548040   -0.16233132    0.01363836
     atom    3 type  1   force =    -0.24014880    0.15555317   -0.02733260
     atom    4 type  1   force =     0.24782899   -0.16464150    0.01797656
     atom    5 type  1   force =     0.25704915    0.14304083   -0.02021544
     atom    6 type  2   force =     0.00827913   -0.05532535   -0.07002296
     atom    7 type  2   force =    -0.02119108    0.06076369    0.06026474
     atom    8 type  3   force =    -0.25940115    0.00079297   -0.00370631
     atom    9 type  3   force =     0.02538948   -0.10287896   -0.05705378
     atom   10 type  3   force =    -0.20907563    0.00109584   -0.21067925
     atom   11 type  3   force =    -0.21434578    0.00668960    0.19866841
     atom   12 type  3   force =    -0.20281438   -0.01964311   -0.17741711
     atom   13 type  3   force =    -0.20947409   -0.00584692    0.20664371
     atom   14 type  3   force =     0.20072708    0.00175972   -0.21852200
     atom   15 type  3   force =     0.21260467    0.00329161    0.19749381
     atom   16 type  3   force =     0.20214454   -0.02092695   -0.18135397
     atom   17 type  3   force =     0.22666255   -0.01188026    0.19911696
     atom   18 type  4   force =    -0.01351929    0.05581511   -0.06236430
     atom   19 type  4   force =     0.06463342    0.00913929    0.07346915
     atom   20 type  4   force =     0.05895612   -0.01720835   -0.06447930
     atom   21 type  4   force =    -0.05951195    0.01021295    0.07430101
     atom   22 type  4   force =    -0.05879085   -0.01105713   -0.06610985
     atom   23 type  5   force =    -0.06079791   -0.02671010   -0.01757295
     The ionic contribution  to forces
     atom    1 type  1   force =    -0.24868094   -4.75378002   14.07448460
     atom    2 type  1   force =   -39.68437601   -6.14911386    0.75721873
     atom    3 type  1   force =   -39.67794687    6.20136247   -0.74373066
     atom    4 type  1   force =    39.50474327   -6.24906016    0.73057554
     atom    5 type  1   force =    39.19838187    6.69726341   -0.83679493
     atom    6 type  2   force =    -0.19501777   -3.66893745  -14.01771032
     atom    7 type  2   force =    -0.49306250    3.70191975   14.10480746
     atom    8 type  3   force =   -52.14975840    0.00983031   -0.10926383
     atom    9 type  3   force =    49.95906192   -0.97867850   -0.68469708
     atom   10 type  3   force =   -36.05579097   -2.09967576  -23.08920820
     atom   11 type  3   force =   -35.13532374   -0.85883774   22.10922297
     atom   12 type  3   force =   -35.24650122    0.83297025  -22.16109275
     atom   13 type  3   force =   -36.04709080    2.23466067   23.11311783
     atom   14 type  3   force =    35.96763743   -2.12386063  -23.14362943
     atom   15 type  3   force =    35.01647919   -0.90185292   22.18430224
     atom   16 type  3   force =    35.11505583    0.90522097  -22.27204511
     atom   17 type  3   force =    35.83513476    2.38254597   23.29473538
     atom   18 type  4   force =    -0.30731214    4.42300227  -14.06199270
     atom   19 type  4   force =   -35.90190568    0.93234978  -25.57256642
     atom   20 type  4   force =   -35.89776810   -0.98605439   25.58120963
     atom   21 type  4   force =    35.73136720    0.88798163  -25.76381513
     atom   22 type  4   force =    35.57008518   -1.08895868   25.95919973
     atom   23 type  5   force =     5.14258851    0.64970263    0.54767246
     The local contribution  to forces
     atom    1 type  1   force =     0.24338546    4.73740856  -14.10395588
     atom    2 type  1   force =    39.83182646    6.29687643   -0.79337731
     atom    3 type  1   force =    39.81835401   -6.34514182    0.75435173
     atom    4 type  1   force =   -39.65648405    6.40374770   -0.77661486
     atom    5 type  1   force =   -39.34503833   -6.84418491    0.84366125
     atom    6 type  2   force =     0.17430441    3.69515990   14.08063618
     atom    7 type  2   force =     0.49503783   -3.75013614  -14.18777486
     atom    8 type  3   force =    52.32742819   -0.00808357    0.09476124
     atom    9 type  3   force =   -49.91645088    1.06037776    0.70465148
     atom   10 type  3   force =    36.27473479    2.05201032   23.26313545
     atom   11 type  3   force =    35.36229784    0.80944253  -22.26457283
     atom   12 type  3   force =    35.45847125   -0.75849897   22.30342490
     atom   13 type  3   force =    36.26885924   -2.18611500  -23.26744214
     atom   14 type  3   force =   -36.17632177    2.07548312   23.32419987
     atom   15 type  3   force =   -35.24393877    0.85248572  -22.33486923
     atom   16 type  3   force =   -35.32853127   -0.82559121   22.41931753
     atom   17 type  3   force =   -36.07908882   -2.32197757  -23.44060163
     atom   18 type  4   force =     0.31507541   -4.44551076   14.10424190
     atom   19 type  4   force =    35.71710134   -0.94757017   25.39964553
     atom   20 type  4   force =    35.72068952    1.00493067  -25.40896720
     atom   21 type  4   force =   -35.55630858   -0.90920966   25.58942201
     atom   22 type  4   force =   -35.39281118    1.10109568  -25.78496763
     atom   23 type  5   force =    -5.01913530   -0.57631196   -0.51108593
     The core correction contribution to forces
     atom    1 type  1   force =     0.00083748    0.00097495   -0.00144527
     atom    2 type  1   force =    -0.01170893   -0.00169320    0.00032113
     atom    3 type  1   force =    -0.01249559    0.00288093   -0.00155751
     atom    4 type  1   force =     0.01212855   -0.00246597    0.00222850
     atom    5 type  1   force =     0.01079701    0.00528987   -0.00110310
     atom    6 type  2   force =    -0.00037329    0.00268604    0.00300692
     atom    7 type  2   force =     0.00077246   -0.00294749   -0.00228530
     atom    8 type  3   force =    -0.03161975    0.00077261   -0.00037068
     atom    9 type  3   force =     0.00669983   -0.01206181   -0.00667577
     atom   10 type  3   force =    -0.02145232    0.00928729   -0.01670874
     atom   11 type  3   force =    -0.02421837    0.00912229    0.01821851
     atom   12 type  3   force =    -0.02215119   -0.01006986   -0.01537723
     atom   13 type  3   force =    -0.02318701   -0.00934686    0.01642150
     atom   14 type  3   force =     0.02194530    0.00988397   -0.01629825
     atom   15 type  3   force =     0.02348922    0.01023266    0.01534337
     atom   16 type  3   force =     0.02289451   -0.01168305   -0.01485818
     atom   17 type  3   force =     0.02334558   -0.00970346    0.01499278
     atom   18 type  4   force =     0.00066426   -0.00284474    0.00295219
     atom   19 type  4   force =    -0.00996641    0.00004468   -0.00957661
     atom   20 type  4   force =    -0.00977866    0.00056105    0.00917189
     atom   21 type  4   force =     0.00974654    0.00002616   -0.00963584
     atom   22 type  4   force =     0.01009963    0.00041019    0.00892143
     atom   23 type  5   force =     0.00000000    0.00000000    0.00000000
     The Hubbard contrib.    to forces
     atom    1 type  1   force =     0.00000000    0.00000000    0.00000000
     atom    2 type  1   force =     0.00000000    0.00000000    0.00000000
     atom    3 type  1   force =     0.00000000    0.00000000    0.00000000
     atom    4 type  1   force =     0.00000000    0.00000000    0.00000000
     atom    5 type  1   force =     0.00000000    0.00000000    0.00000000
     atom    6 type  2   force =     0.00000000    0.00000000    0.00000000
     atom    7 type  2   force =     0.00000000    0.00000000    0.00000000
     atom    8 type  3   force =     0.00000000    0.00000000    0.00000000
     atom    9 type  3   force =     0.00000000    0.00000000    0.00000000
     atom   10 type  3   force =     0.00000000    0.00000000    0.00000000
     atom   11 type  3   force =     0.00000000    0.00000000    0.00000000
     atom   12 type  3   force =     0.00000000    0.00000000    0.00000000
     atom   13 type  3   force =     0.00000000    0.00000000    0.00000000
     atom   14 type  3   force =     0.00000000    0.00000000    0.00000000
     atom   15 type  3   force =     0.00000000    0.00000000    0.00000000
     atom   16 type  3   force =     0.00000000    0.00000000    0.00000000
     atom   17 type  3   force =     0.00000000    0.00000000    0.00000000
     atom   18 type  4   force =     0.00000000    0.00000000    0.00000000
     atom   19 type  4   force =     0.00000000    0.00000000    0.00000000
     atom   20 type  4   force =     0.00000000    0.00000000    0.00000000
     atom   21 type  4   force =     0.00000000    0.00000000    0.00000000
     atom   22 type  4   force =     0.00000000    0.00000000    0.00000000
     atom   23 type  5   force =     0.00000000    0.00000000    0.00000000
     The SCF correction term to forces
     atom    1 type  1   force =     0.00087159    0.00107529    0.01053479
     atom    2 type  1   force =    -0.00522047   -0.00036843    0.01503944
     atom    3 type  1   force =    -0.00452138   -0.00143084    0.01590736
     atom    4 type  1   force =     0.00582728   -0.00115169    0.01577649
     atom    5 type  1   force =     0.00791666   -0.00302732    0.01560232
     atom    6 type  2   force =     0.00012551    0.00586287    0.00768866
     atom    7 type  2   force =     0.00155870    0.00158752    0.01394219
     atom    8 type  3   force =    -0.00664208    0.00190552    0.01537829
     atom    9 type  3   force =     0.00942842    0.00296124    0.01583545
     atom   10 type  3   force =    -0.00639604    0.00650390   -0.00465069
     atom   11 type  3   force =    -0.00795307   -0.00072502   -0.00472645
     atom   12 type  3   force =    -0.00510015   -0.00804329   -0.00435108
     atom   13 type  3   force =    -0.00621346   -0.00275054   -0.00613012
     atom   14 type  3   force =     0.00661549    0.00590251   -0.00455212
     atom   15 type  3   force =     0.00926412   -0.00055356   -0.00541707
     atom   16 type  3   force =     0.00684810   -0.00919534   -0.00347308
     atom   17 type  3   force =     0.00780018   -0.00262037   -0.00629691
     atom   18 type  4   force =     0.00154238   -0.00337419    0.00718274
     atom   19 type  4   force =     0.00025030    0.00140391   -0.00571988
     atom   20 type  4   force =    -0.00410326    0.00233706   -0.00233275
     atom   21 type  4   force =     0.00069346    0.00263520   -0.00622178
     atom   22 type  4   force =     0.00651688    0.00245188   -0.00285196
     atom   23 type  5   force =     0.00164535    0.00066148    0.00180100

     Total force =     0.500219     Total SCF correction =     0.057044
     SCF correction compared to forces is large: reduce conv_thr to get better values


     Computing stress (Cartesian axis) and pressure


     negative rho (up, down):  9.089E-01 9.089E-01
          total   stress  (Ry/bohr**3)                   (kbar)     P=       86.03
[...]
     3.7559   3.8606   3.9277   4.0542   4.2167   4.5061   4.6592   4.6935
     4.7685   4.8069   5.0474   5.0892   5.1702   5.2793   5.2960   5.3245
     5.4021   5.5606   5.6584   5.7357   5.7388   5.7611   5.7789   5.8037
     5.9477   6.1109   6.1878   6.2389   6.2779   6.3254   6.3727   6.3884
     6.4501   6.6256   6.6700   6.7206   6.8929   6.9432   7.0034   7.0551
     7.1016   7.1561   7.2533   7.2762   7.3245   7.4393   7.5603   7.5646
     7.6320   7.7373   7.9042   7.9359   8.0930   8.0973   8.1209   8.2021
     8.2656   8.3188   8.3628   8.3877   8.4960   8.5626   8.6394   8.6851
     8.8302   8.9029   8.9745   9.0754   9.1544   9.2630   9.2802

     the Fermi energy is     7.2382 ev

!    total energy              =   -2943.03600480 Ry
     estimated scf accuracy    <       0.00018324 Ry
     smearing contrib. (-TS)   =      -0.10070190 Ry
     internal energy E=F+TS    =   -2942.93530290 Ry

     total magnetization       =     0.00 Bohr mag/cell
     absolute magnetization    =     0.00 Bohr mag/cell

     convergence has been achieved in   5 iterations

     negative rho (up, down):  9.090E-01 9.090E-01

     Forces acting on atoms (cartesian axes, Ry/au):

     atom    1 type  1   force =    -0.00781223   -0.02807437    0.01856499
     atom    2 type  1   force =    -0.11680254   -0.01719504    0.00280755
     atom    3 type  1   force =    -0.11779463    0.01267495    0.00757049
     atom    4 type  1   force =     0.11644566   -0.01479494   -0.00019849
     atom    5 type  1   force =     0.12999131   -0.00441288    0.01122735
     atom    6 type  2   force =    -0.01708534   -0.02384670   -0.00269464
     atom    7 type  2   force =    -0.01784012    0.01141053   -0.00903002
     atom    8 type  3   force =    -0.12459689    0.00676765    0.00063999
     atom    9 type  3   force =     0.03851826   -0.05891431   -0.04352808
     atom   10 type  3   force =    -0.01882813   -0.02757715   -0.05967211
     atom   11 type  3   force =    -0.02148067   -0.03418870    0.05386329
     atom   12 type  3   force =    -0.01950187    0.03429719   -0.05686076
     atom   13 type  3   force =    -0.01783716    0.03072083    0.05948169
     atom   14 type  3   force =     0.02155853   -0.02888697   -0.06078394
     atom   15 type  3   force =     0.01937220   -0.03766322    0.05470909
     atom   16 type  3   force =     0.01956764    0.03585820   -0.05483976
     atom   17 type  3   force =     0.01487791    0.03717398    0.05932222
     atom   18 type  4   force =    -0.00355394    0.02664601   -0.01165196
     atom   19 type  4   force =    -0.12684462   -0.00402038   -0.11524947
     atom   20 type  4   force =    -0.13178970    0.00488753    0.11212075
     atom   21 type  4   force =     0.12266781   -0.00767052   -0.11698258
     atom   22 type  4   force =     0.13403367    0.00481354    0.11182885
     atom   23 type  5   force =     0.12473484    0.08199478    0.03935553
     The non-local contrib.  to forces
     atom    1 type  1   force =     0.00057256   -0.00898636    0.02916996
     atom    2 type  1   force =    -0.24586184   -0.16273052    0.01868115
     atom    3 type  1   force =    -0.24003663    0.15504151   -0.02188438
     atom    4 type  1   force =     0.24853650   -0.16769598    0.02317817
     atom    5 type  1   force =     0.25906043    0.13982833   -0.01577020
     atom    6 type  2   force =     0.01069096   -0.05548812   -0.06780583
     atom    7 type  2   force =    -0.01845627    0.06287225    0.06058215
     atom    8 type  3   force =    -0.25708233    0.00064008   -0.00094204
     atom    9 type  3   force =     0.02219206   -0.10790593   -0.05696737
     atom   10 type  3   force =    -0.21204023    0.00136233   -0.21332574
     atom   11 type  3   force =    -0.21497245    0.00606562    0.19696962
     atom   12 type  3   force =    -0.20487109   -0.02128082   -0.17810541
     atom   13 type  3   force =    -0.20760224   -0.00545747    0.20444780
     atom   14 type  3   force =     0.20307911    0.00284160   -0.21959553
     atom   15 type  3   force =     0.21183633    0.00144558    0.19584799
     atom   16 type  3   force =     0.20353117   -0.02228145   -0.18129524
     atom   17 type  3   force =     0.22333049   -0.00914597    0.19985376
     atom   18 type  4   force =    -0.01293765    0.05664647   -0.05989774
     atom   19 type  4   force =     0.06512464    0.00982197    0.07193595
     atom   20 type  4   force =     0.05790232   -0.01692946   -0.06536636
     atom   21 type  4   force =    -0.06038886    0.01107629    0.07269738
     atom   22 type  4   force =    -0.05710569   -0.01060161   -0.06462077
     atom   23 type  5   force =    -0.06945478   -0.03370582   -0.02184761
     The ionic contribution  to forces
     atom    1 type  1   force =    -0.29269705   -4.80355701   14.24462116
     atom    2 type  1   force =   -39.70861012   -6.17269326    0.76592014
     atom    3 type  1   force =   -39.68111847    6.19489520   -0.73459938
     atom    4 type  1   force =    39.54861678   -6.32827791    0.75158741
     atom    5 type  1   force =    39.25118421    6.63777854   -0.81780972
     atom    6 type  2   force =    -0.30650190   -3.78808169  -14.20331143
     atom    7 type  2   force =    -0.44717376    3.73555233   14.17366655
     atom    8 type  3   force =   -52.32744171    0.04680024   -0.08673169
     atom    9 type  3   force =    49.64320989   -0.96041816   -0.70384398
     atom   10 type  3   force =   -36.05110380   -2.09611636  -23.07384532
     atom   11 type  3   force =   -35.12676772   -0.84980714   22.08747163
     atom   12 type  3   force =   -35.23759070    0.81734028  -22.13765583
     atom   13 type  3   force =   -36.03002816    2.21205406   23.08181185
     atom   14 type  3   force =    35.96622140   -2.13121731  -23.13699851
     atom   15 type  3   force =    35.01894357   -0.89164817   22.16156490
     atom   16 type  3   force =    35.11958675    0.88310011  -22.23908807
     atom   17 type  3   force =    35.83965874    2.34138151   23.24441633
     atom   18 type  4   force =    -0.31194476    4.51156511  -14.12926664
     atom   19 type  4   force =   -35.88699727    0.94102119  -25.52644413
     atom   20 type  4   force =   -35.86896821   -0.97312556   25.52031861
     atom   21 type  4   force =    35.73820975    0.91544988  -25.74263668
     atom   22 type  4   force =    35.58333663   -1.05913173   25.85750117
     atom   23 type  5   force =     5.56797591    0.81713586    0.64335165
     The local contribution  to forces
     atom    1 type  1   force =     0.28364114    4.77664338  -14.24604124
     atom    2 type  1   force =    39.84876003    6.31749551   -0.76845240
     atom    3 type  1   force =    39.81529082   -6.33878392    0.77931646
     atom    4 type  1   force =   -39.69132372    6.48033035   -0.76344244
     atom    5 type  1   force =   -39.38778128   -6.78674549    0.85929031
     atom    6 type  2   force =     0.28006096    3.81714968   14.26968662
     atom    7 type  2   force =     0.44830569   -3.77551025  -14.23268163
     atom    8 type  3   force =    52.48779479   -0.04036232    0.10043537
     atom    9 type  3   force =   -49.62552194    1.02485599    0.73632384
     atom   10 type  3   force =    36.26699175    2.06132061   23.24260659
     atom   11 type  3   force =    35.34249674    0.79607092  -22.25495291
     atom   12 type  3   force =    35.44693974   -0.75545009   22.27279475
     atom   13 type  3   force =    36.24152533   -2.16350263  -23.24946016
     atom   14 type  3   force =   -36.16820794    2.09272453   23.30986103
     atom   15 type  3   force =   -35.22973471    0.83783036  -22.32350442
     atom   16 type  3   force =   -35.32455521   -0.81786263   22.37864629
     atom   17 type  3   force =   -36.06670044   -2.28204404  -23.40539875
     atom   18 type  4   force =     0.32213392   -4.53862893   14.17912275
     atom   19 type  4   force =    35.70981570   -0.95454366   25.34600108
     atom   20 type  4   force =    35.68433464    0.99514903  -25.35455467
     atom   21 type  4   force =   -35.56727848   -0.93330593   25.55797125
     atom   22 type  4   force =   -35.39461080    1.07504785  -25.69094819
     atom   23 type  5   force =    -5.37213692   -0.70080292   -0.57999668
     The core correction contribution to forces
     atom    1 type  1   force =     0.00107030    0.00126440   -0.00198609
     atom    2 type  1   force =    -0.01161531   -0.00164521    0.00039173
     atom    3 type  1   force =    -0.01236234    0.00291104   -0.00153126
     atom    4 type  1   force =     0.01205721   -0.00257993    0.00228909
     atom    5 type  1   force =     0.01085907    0.00514476   -0.00116345
     atom    6 type  2   force =    -0.00045982    0.00275948    0.00300926
     atom    7 type  2   force =     0.00070422   -0.00306407   -0.00231254
     atom    8 type  3   force =    -0.03121598    0.00069662   -0.00039096
     atom    9 type  3   force =     0.00544120   -0.01306065   -0.00729318
     atom   10 type  3   force =    -0.02164647    0.00913655   -0.01690013
     atom   11 type  3   force =    -0.02427177    0.00911640    0.01825402
     atom   12 type  3   force =    -0.02240567   -0.01002571   -0.01537591
     atom   13 type  3   force =    -0.02304379   -0.00932381    0.01633359
     atom   14 type  3   force =     0.02202019    0.00985661   -0.01640478
     atom   15 type  3   force =     0.02327721    0.01012335    0.01544142
     atom   16 type  3   force =     0.02286594   -0.01157572   -0.01486771
     atom   17 type  3   force =     0.02292960   -0.00949104    0.01526291
     atom   18 type  4   force =     0.00068058   -0.00290217    0.00292182
     atom   19 type  4   force =    -0.00994047    0.00001621   -0.00952784
     atom   20 type  4   force =    -0.00976647    0.00056332    0.00918654
     atom   21 type  4   force =     0.00976757    0.00000184   -0.00960930
     atom   22 type  4   force =     0.01010297    0.00041899    0.00877707
     atom   23 type  5   force =     0.00000000    0.00000000    0.00000000
     The Hubbard contrib.    to forces
     atom    1 type  1   force =     0.00000000    0.00000000    0.00000000
     atom    2 type  1   force =     0.00000000    0.00000000    0.00000000
     atom    3 type  1   force =     0.00000000    0.00000000    0.00000000
     atom    4 type  1   force =     0.00000000    0.00000000    0.00000000
     atom    5 type  1   force =     0.00000000    0.00000000    0.00000000
     atom    6 type  2   force =     0.00000000    0.00000000    0.00000000
     atom    7 type  2   force =     0.00000000    0.00000000    0.00000000
     atom    8 type  3   force =     0.00000000    0.00000000    0.00000000
     atom    9 type  3   force =     0.00000000    0.00000000    0.00000000
     atom   10 type  3   force =     0.00000000    0.00000000    0.00000000
     atom   11 type  3   force =     0.00000000    0.00000000    0.00000000
     atom   12 type  3   force =     0.00000000    0.00000000    0.00000000
     atom   13 type  3   force =     0.00000000    0.00000000    0.00000000
     atom   14 type  3   force =     0.00000000    0.00000000    0.00000000
     atom   15 type  3   force =     0.00000000    0.00000000    0.00000000
     atom   16 type  3   force =     0.00000000    0.00000000    0.00000000
     atom   17 type  3   force =     0.00000000    0.00000000    0.00000000
     atom   18 type  4   force =     0.00000000    0.00000000    0.00000000
     atom   19 type  4   force =     0.00000000    0.00000000    0.00000000
     atom   20 type  4   force =     0.00000000    0.00000000    0.00000000
     atom   21 type  4   force =     0.00000000    0.00000000    0.00000000
     atom   22 type  4   force =     0.00000000    0.00000000    0.00000000
     atom   23 type  5   force =     0.00000000    0.00000000    0.00000000
     The SCF correction term to forces
     atom    1 type  1   force =    -0.00013635    0.00648209   -0.00646855
     atom    2 type  1   force =     0.00078753    0.00229931   -0.01300282
     atom    3 type  1   force =     0.00069481   -0.00146800   -0.01300071
     atom    4 type  1   force =    -0.00117828    0.00334940   -0.01308048
     atom    5 type  1   force =    -0.00306829   -0.00049814   -0.01258935
     atom    6 type  2   force =    -0.00061271   -0.00026518   -0.00354302
     atom    7 type  2   force =    -0.00095717   -0.00851886   -0.00755431
     atom    8 type  3   force =     0.00361116   -0.00108609   -0.01100045
     atom    9 type  3   force =    -0.00654012   -0.00246469   -0.01101715
     atom   10 type  3   force =    -0.00076656   -0.00335940    0.00252273
     atom   11 type  3   force =     0.00229735    0.00428638    0.00685117
     atom   12 type  3   force =    -0.00131133    0.00363440    0.00221189
     atom   13 type  3   force =     0.00157452   -0.00312845    0.00707885
     atom   14 type  3   force =    -0.00129142   -0.00317152    0.00308410
     atom   15 type  3   force =    -0.00468737    0.00450653    0.00608945
     atom   16 type  3   force =    -0.00159818    0.00439876    0.00249522
     atom   17 type  3   force =    -0.00407767   -0.00360561    0.00591821
     atom   18 type  4   force =    -0.00122320   -0.00011359   -0.00380191
     atom   19 type  4   force =    -0.00458439   -0.00041521    0.00351571
     atom   20 type  4   force =     0.00497085   -0.00084893    0.00326688
     atom   21 type  4   force =     0.00262066   -0.00097172    0.00532501
     atom   22 type  4   force =    -0.00742661   -0.00099908    0.00184981
     atom   23 type  5   force =    -0.00138654   -0.00071146   -0.00142158

     Total force =     0.515340     Total SCF correction =     0.042209


     Computing stress (Cartesian axis) and pressure


     negative rho (up, down):  9.090E-01 9.090E-01
          total   stress  (Ry/bohr**3)                   (kbar)     P=       87.91
   0.00073357   0.00003818   0.00001647          107.91        5.62        2.42
   0.00003818   0.00067122   0.00000119            5.62       98.74        0.17
   0.00001647   0.00000119   0.00038798            2.42        0.17       57.07


     Entering Dynamics:    iteration =    20
                           time      =   0.0041 pico-seconds


ATOMIC_POSITIONS (angstrom)
Hf            2.6715632563        2.8276362301        6.6045725897
Hf            1.2531767227        1.2868728381        5.0589029808
Hf            1.2556637423        7.3907045857        5.0885592378
Hf            4.0899180070        1.2868925736        5.0588774790
Hf            4.0875054665        7.3905961417        5.0885882576
Nb            2.6715542440        2.7973576481        3.5162005772
Nb            2.6713727397        5.8774000968        6.6351657907
Ta            1.2095132388        4.3418123648        5.0716098694
Ta            4.1081463314        4.3283891182        5.0637230655
Ta            1.3085443858        1.3145548215        2.0585547478
Ta            1.3040899767        1.3087563392        8.0956548078
Ta            1.3053235569        7.3769917827        2.0460433004
Ta            1.3090328680        7.3661953176        8.0871334597
Ta            4.0345100965        1.3145805498        2.0585653546
Ta            4.0389584784        1.3087588662        8.0956573672
Ta            4.0377518635        7.3769964242        2.0460738404
Ta            4.0340007307        7.3662306622        8.0871163277
Zr            2.6715972349        5.8676575142        3.5276834308
Zr            1.2424211788        4.3227474597        1.9978368668
Zr            1.2389125623        4.3549891018        8.1527610716
Zr            4.1005654274        4.3226790547        1.9978590235
Zr            4.1041379215        4.3549767585        8.1527593418
H             5.5980981806        5.1284284468        5.5242310457


     kinetic energy (Ekin) =           4.01873529 Ry
     temperature           =       19227.51872759 K 
     Ekin + Etot (const)   =       -2939.01726951 Ry
     Ions kinetic stress =           70.98 (kbar)
                                    151.57          83.48          47.91
                                     83.48          46.06          26.43
                                     47.91          26.43          15.30



     Linear momentum :    0.0000000000    0.0000000000   -0.0000000000

     The maximum number of steps has been reached.

     End of molecular dynamics calculation

     diffusion coefficients :
     atom     1   D =       0.00000001 cm^2/s
     atom     2   D =       0.00000000 cm^2/s
     atom     3   D =       0.00000000 cm^2/s
     atom     4   D =       0.00000004 cm^2/s
     atom     5   D =       0.00000004 cm^2/s
     atom     6   D =       0.00000001 cm^2/s
     atom     7   D =       0.00000001 cm^2/s
     atom     8   D =       0.00000000 cm^2/s
     atom     9   D =       0.00000294 cm^2/s
     atom    10   D =       0.00000001 cm^2/s
     atom    11   D =       0.00000001 cm^2/s
     atom    12   D =       0.00000001 cm^2/s
     atom    13   D =       0.00000002 cm^2/s
     atom    14   D =       0.00000001 cm^2/s
     atom    15   D =       0.00000002 cm^2/s
     atom    16   D =       0.00000002 cm^2/s
     atom    17   D =       0.00000002 cm^2/s
     atom    18   D =       0.00000002 cm^2/s
     atom    19   D =       0.00000003 cm^2/s
     atom    20   D =       0.00000005 cm^2/s
     atom    21   D =       0.00000010 cm^2/s
     atom    22   D =       0.00000012 cm^2/s
     atom    23   D =       0.00032123 cm^2/s

     < D > =       0.00001412 cm^2/s

     Writing all to output data dir outdir/pwscf.save/

     init_run     :      8.43s CPU     11.77s WALL (       1 calls)
     electrons    :   2378.57s CPU   2965.41s WALL (      20 calls)
     update_pot   :     19.37s CPU     21.49s WALL (      19 calls)
     forces       :    205.45s CPU    243.93s WALL (      20 calls)
     stress       :    328.51s CPU    359.57s WALL (      20 calls)

     Called by init_run:
     wfcinit      :      6.21s CPU      8.85s WALL (       1 calls)
     potinit      :      0.30s CPU      0.50s WALL (       1 calls)
     hinit0       :      0.84s CPU      1.04s WALL (       1 calls)

     Called by electrons:
     c_bands      :   1891.35s CPU   2371.14s WALL (     101 calls)
     sum_band     :    320.33s CPU    393.39s WALL (     101 calls)
     v_of_rho     :     10.44s CPU     12.83s WALL (     121 calls)
     newd         :    181.62s CPU    218.24s WALL (     121 calls)
     mix_rho      :      0.95s CPU      1.29s WALL (     101 calls)

     Called by c_bands:
     init_us_2    :      3.85s CPU      3.99s WALL (     486 calls)
     init_us_2:cp :      3.84s CPU      3.99s WALL (     486 calls)
     regterg      :   1877.54s CPU   2353.40s WALL (     202 calls)

     Called by *egterg:
     rdiaghg      :     63.77s CPU     82.67s WALL (    1681 calls)
     h_psi        :    975.35s CPU   1119.99s WALL (    1721 calls)
     s_psi        :    319.36s CPU    320.20s WALL (    1721 calls)
     g_psi        :      0.65s CPU      0.73s WALL (    1517 calls)

     Called by h_psi:
     h_psi:calbec :    476.13s CPU    580.02s WALL (    1721 calls)
     vloc_psi     :    101.53s CPU    140.96s WALL (    1721 calls)
     add_vuspsi   :    396.43s CPU    397.66s WALL (    1721 calls)

     General routines
     calbec       :    805.35s CPU    985.38s WALL (    2123 calls)
     fft          :     11.94s CPU     36.07s WALL (    2514 calls)
     ffts         :      0.23s CPU      0.30s WALL (     101 calls)
     fftw         :    111.18s CPU    154.90s WALL (  105736 calls)

     Parallel routines

     PWSCF        :  49m26.71s CPU      1h 0m WALL


   This run was terminated on:  15:41:49  16Jun2023            

=------------------------------------------------------------------------------=
   JOB DONE.
=------------------------------------------------------------------------------=
