
     Program PWSCF v.7.2 starts on 12Jun2023 at  1:15:45 

     This program is part of the open-source Quantum ESPRESSO suite
     for quantum simulation of materials; please cite
         "P. Giannozzi et al., J. Phys.:Condens. Matter 21 395502 (2009);
         "P. Giannozzi et al., J. Phys.:Condens. Matter 29 465901 (2017);
         "P. Giannozzi et al., J. Chem. Phys. 152 154105 (2020);
          URL http://www.quantum-espresso.org", 
     in publications or presentations arising from this work. More details at
     http://www.quantum-espresso.org/quote

     Parallel version (MPI), running on    42 processors

     MPI processes distributed on     1 nodes
     185191 MiB available memory on the printing compute node when the environment starts

     Reading input from md_data/md_Hf5Nb2Ta10Zr5H_20steps_1000eV_incident45_polar30.in
Warning: card &CELL ignored
Warning: card / ignored

     Current dimensions of program PWSCF are:
     Max number of different atomic species (ntypx) = 10
     Max number of k-points (npk) =  40000
     Max angular momentum in pseudopotentials (lmaxx) =  4

     File outdir/pwscf.update deleted, as requested

     File outdir/pwscf.md deleted, as requested

     gamma-point specific algorithms are used

     R & G space division:  proc/nbgrp/npool/nimage =      42
     Subspace diagonalization in iterative solution of the eigenvalue problem:
     one sub-group per band group will be used
     custom distributed-memory algorithm (size of sub-group:  2*  2 procs)


     Parallelization info
     --------------------
     sticks:   dense  smooth     PW     G-vecs:    dense   smooth      PW
     Min         239     239     59                21459    21459    2676
     Max         242     242     62                21470    21470    2688
     Sum       10131   10131   2529               901547   901547  112647

     Using Slab Decomposition



     bravais-lattice index     =            0
     lattice parameter (alat)  =      16.1383  a.u.
     unit-cell volume          =    5077.2634 (a.u.)^3
     number of atoms/cell      =           23
     number of atomic types    =            5
     number of electrons       =       277.00
     number of Kohn-Sham states=          167
     kinetic-energy cutoff     =     120.0000  Ry
     charge density cutoff     =     480.0000  Ry
     scf convergence threshold =      1.0E-03
     mixing beta               =       0.7000
     number of iterations used =            8  TF        mixing
     energy convergence thresh.=      0.0E+00
     force convergence thresh. =      0.0E+00
     Exchange-correlation=  SLA  PW   PBX  PBC
                           (   1   4   3   4   0   0   0)
     nstep                     =           20


     celldm(1)=  16.138261  celldm(2)=   0.000000  celldm(3)=   0.000000
     celldm(4)=   0.000000  celldm(5)=   0.000000  celldm(6)=   0.000000

     crystal axes: (cart. coord. in units of alat)
               a(1) = (   1.000000   0.000000   0.000000 )  
               a(2) = (   0.000000   1.016393   0.000000 )  
               a(3) = (   0.000000   0.000000   1.188496 )  

     reciprocal axes: (cart. coord. in units 2 pi/alat)
               b(1) = (  1.000000  0.000000  0.000000 )  
               b(2) = (  0.000000  0.983871  0.000000 )  
               b(3) = (  0.000000  0.000000  0.841400 )  


     PseudoPot. # 1 for Hf read from file:
     q-e/pseudo/hf_pbe_v1.uspp.F.UPF
     MD5 check sum: 8ee9378dfe14276e333edf04c5e4aa26
     Pseudo is Ultrasoft + core correction, Zval = 12.0
     Generated by new atomic code, or converted to UPF format
     Using radial grid of  921 points,  8 beta functions with: 
                l(1) =   0
                l(2) =   0
                l(3) =   0
                l(4) =   1
                l(5) =   1
                l(6) =   2
                l(7) =   2
                l(8) =   3
     Q(r) pseudized with  6 coefficients,  rinner =    1.200   1.200   1.200
                                                       1.200   1.200   1.200
                                                       1.200

     PseudoPot. # 2 for Nb read from file:
     q-e/pseudo/nb_pbe_v1.uspp.F.UPF
     MD5 check sum: 573aab8a2fa660278ed4a62cd769473f
     Pseudo is Ultrasoft + core correction, Zval = 13.0
     Generated by new atomic code, or converted to UPF format
     Using radial grid of  887 points,  6 beta functions with: 
                l(1) =   0
                l(2) =   0
                l(3) =   1
                l(4) =   1
                l(5) =   2
                l(6) =   2
     Q(r) pseudized with  6 coefficients,  rinner =    1.000   1.000   1.000
                                                       1.000   1.000

     PseudoPot. # 3 for Ta read from file:
     q-e/pseudo/ta_pbe_v1.uspp.F.UPF
     MD5 check sum: f8bbe9446314a3b8ea5d9f3e3836c939
     Pseudo is Ultrasoft + core correction, Zval = 13.0
     Generated by new atomic code, or converted to UPF format
     Using radial grid of  921 points,  7 beta functions with: 
                l(1) =   0
                l(2) =   0
                l(3) =   1
                l(4) =   1
                l(5) =   2
                l(6) =   2
                l(7) =   3
     Q(r) pseudized with  6 coefficients,  rinner =    1.300   1.300   1.300
                                                       1.300   1.300   1.300
                                                       1.300

     PseudoPot. # 4 for Zr read from file:
     q-e/pseudo/zr_pbe_v1.uspp.F.UPF
     MD5 check sum: 5db81b1e868ab7776c4564c113de050b
     Pseudo is Ultrasoft + core correction, Zval = 12.0
     Generated by new atomic code, or converted to UPF format
     Using radial grid of  887 points,  6 beta functions with: 
                l(1) =   0
                l(2) =   0
                l(3) =   1
                l(4) =   1
                l(5) =   2
                l(6) =   2
     Q(r) pseudized with  6 coefficients,  rinner =    1.200   1.200   1.200
                                                       1.200   1.200

     PseudoPot. # 5 for H  read from file:
     q-e/pseudo/h_pbe_v1.4.uspp.F.UPF
     MD5 check sum: 761ae9a214b05c3daf00ab9f6b793d6f
     Pseudo is Ultrasoft, Zval =  1.0
     Generated by new atomic code, or converted to UPF format
     Using radial grid of  615 points,  2 beta functions with: 
                l(1) =   0
                l(2) =   0
     Q(r) pseudized with  8 coefficients,  rinner =    0.700

     atomic species   valence    mass     pseudopotential
        Hf            12.00   178.49000     Hf( 1.00)
        Nb            13.00    92.90637     Nb( 1.00)
        Ta            13.00   180.94788     Ta( 1.00)
        Zr            12.00    91.22400     Zr( 1.00)
        H              1.00     2.01400     H ( 1.00)

     Starting magnetic structure 
     atomic species   magnetization
        Hf           0.000
        Nb           0.000
        Ta           0.000
        Zr           0.000
        H            0.000

     No symmetry found



   Cartesian axes

     site n.     atom                  positions (alat units)
         1           Hf  tau(   1) = (   0.3126464   0.3310449   0.7732979  )
         2           Hf  tau(   2) = (   0.1467202   0.1506188   0.5923263  )
         3           Hf  tau(   3) = (   0.1470125   0.8653167   0.5957925  )
         4           Hf  tau(   4) = (   0.4785725   0.1506188   0.5923263  )
         5           Hf  tau(   5) = (   0.4782802   0.8653167   0.5957925  )
         6           Nb  tau(   6) = (   0.3126464   0.3275094   0.4116608  )
         7           Nb  tau(   7) = (   0.3126464   0.6881006   0.7769319  )
         8           Ta  tau(   8) = (   0.1416128   0.5083054   0.5938087  )
         9           Ta  tau(   9) = (   0.4836800   0.5083054   0.5938087  )
        10           Ta  tau(  10) = (   0.1530741   0.1538785   0.2410748  )
        11           Ta  tau(  11) = (   0.1525513   0.1532074   0.9478430  )
        12           Ta  tau(  12) = (   0.1526943   0.8636799   0.2396062  )
        13           Ta  tau(  13) = (   0.1531277   0.8624219   0.9468387  )
        14           Ta  tau(  14) = (   0.4722187   0.1538785   0.2410748  )
        15           Ta  tau(  15) = (   0.4727414   0.1532074   0.9478430  )
        16           Ta  tau(  16) = (   0.4725984   0.8636799   0.2396062  )
        17           Ta  tau(  17) = (   0.4721650   0.8624219   0.9468387  )
        18           Zr  tau(  18) = (   0.3126464   0.6869187   0.4130426  )
        19           Zr  tau(  19) = (   0.1456481   0.5060981   0.2341920  )
        20           Zr  tau(  20) = (   0.1452442   0.5098505   0.9543040  )
        21           Zr  tau(  21) = (   0.4796447   0.5060981   0.2341920  )
        22           Zr  tau(  22) = (   0.4800486   0.5098505   0.9543040  )
        23           H   tau(  23) = (   0.6161590   0.6229269   0.6601716  )

     number of k points=     1  Gaussian smearing, width (Ry)=  0.0220
                       cart. coord. in units 2pi/alat
        k(    1) = (   0.0000000   0.0000000   0.0000000), wk =   1.0000000

     Dense  grid:   450774 G-vectors     FFT dimensions: ( 120, 120, 135)

     Estimated max dynamical RAM per process >     123.77 MB

     Estimated total dynamical RAM >       5.08 GB

     Check: negative core charge=   -0.000002
     Generating pointlists ...
     new r_m :   0.1181 (alat units)  1.9052 (a.u.) for type    1
     new r_m :   0.1201 (alat units)  1.9374 (a.u.) for type    2
     new r_m :   0.0773 (alat units)  1.2471 (a.u.) for type    3
     new r_m :   0.1216 (alat units)  1.9625 (a.u.) for type    4
     new r_m :   0.0773 (alat units)  1.2471 (a.u.) for type    5

     Initial potential from superposition of free atoms

     starting charge     266.9726, renormalised to     277.0000

     negative rho (up, down):  9.226E-01 9.226E-01
     Starting wfcs are  287 randomized atomic wfcs

     total cpu time spent up to now is       22.0 secs

     Self-consistent Calculation

     iteration #  1     ecut=   120.00 Ry     beta= 0.70
     Davidson diagonalization with overlap
     ethr =  1.00E-02,  avg # of iterations =  2.0

     negative rho (up, down):  9.852E-01 9.851E-01

     total cpu time spent up to now is       47.5 secs

     total energy              =   -2931.88113744 Ry
     estimated scf accuracy    <     287.24461499 Ry

     total magnetization       =    -0.00 Bohr mag/cell
     absolute magnetization    =     0.11 Bohr mag/cell

     iteration #  2     ecut=   120.00 Ry     beta= 0.70
     Davidson diagonalization with overlap
     ethr =  1.00E-02,  avg # of iterations =  5.0

     negative rho (up, down):  9.444E-01 9.451E-01

     total cpu time spent up to now is       64.5 secs

     total energy              =   -2942.19949088 Ry
     estimated scf accuracy    <      34.81744859 Ry

     total magnetization       =    -0.06 Bohr mag/cell
     absolute magnetization    =     0.39 Bohr mag/cell

     iteration #  3     ecut=   120.00 Ry     beta= 0.70
     Davidson diagonalization with overlap
     ethr =  1.00E-02,  avg # of iterations =  2.0

     negative rho (up, down):  9.721E-01 9.744E-01

     total cpu time spent up to now is       79.2 secs

     total energy              =   -2942.66134207 Ry
     estimated scf accuracy    <      14.80646083 Ry

     total magnetization       =    -0.01 Bohr mag/cell
     absolute magnetization    =     0.46 Bohr mag/cell

     iteration #  4     ecut=   120.00 Ry     beta= 0.70
     Davidson diagonalization with overlap
     ethr =  5.35E-03,  avg # of iterations =  4.0

     negative rho (up, down):  9.664E-01 9.698E-01

     total cpu time spent up to now is       93.6 secs

     total energy              =   -2942.93067980 Ry
     estimated scf accuracy    <       3.17459475 Ry

     total magnetization       =    -0.22 Bohr mag/cell
     absolute magnetization    =     0.57 Bohr mag/cell

     iteration #  5     ecut=   120.00 Ry     beta= 0.70
     Davidson diagonalization with overlap
     ethr =  1.15E-03,  avg # of iterations =  7.0

     negative rho (up, down):  9.431E-01 9.448E-01

     total cpu time spent up to now is      112.3 secs

     total energy              =   -2943.07160122 Ry
     estimated scf accuracy    <       1.62800254 Ry

     total magnetization       =    -0.12 Bohr mag/cell
     absolute magnetization    =     0.28 Bohr mag/cell

     iteration #  6     ecut=   120.00 Ry     beta= 0.70
     Davidson diagonalization with overlap
     ethr =  5.88E-04,  avg # of iterations =  2.0

     negative rho (up, down):  9.307E-01 9.316E-01

     total cpu time spent up to now is      126.5 secs

     total energy              =   -2943.07350701 Ry
     estimated scf accuracy    <       1.11890042 Ry

     total magnetization       =    -0.09 Bohr mag/cell
     absolute magnetization    =     0.21 Bohr mag/cell

     iteration #  7     ecut=   120.00 Ry     beta= 0.70
     Davidson diagonalization with overlap
     ethr =  4.04E-04,  avg # of iterations =  2.0

     negative rho (up, down):  9.129E-01 9.130E-01

     total cpu time spent up to now is      140.1 secs

     total energy              =   -2943.04694683 Ry
     estimated scf accuracy    <       0.30647776 Ry

     total magnetization       =    -0.09 Bohr mag/cell
     absolute magnetization    =     0.18 Bohr mag/cell

     iteration #  8     ecut=   120.00 Ry     beta= 0.70
     Davidson diagonalization with overlap
     ethr =  1.11E-04,  avg # of iterations = 12.0

     negative rho (up, down):  9.070E-01 9.070E-01

     total cpu time spent up to now is      156.3 secs

     total energy              =   -2943.05098466 Ry
     estimated scf accuracy    <       0.24076859 Ry

     total magnetization       =    -0.08 Bohr mag/cell
     absolute magnetization    =     0.14 Bohr mag/cell

     iteration #  9     ecut=   120.00 Ry     beta= 0.70
     Davidson diagonalization with overlap
     ethr =  8.69E-05,  avg # of iterations =  2.0

     negative rho (up, down):  9.080E-01 9.080E-01

     total cpu time spent up to now is      169.7 secs

     total energy              =   -2943.05629391 Ry
     estimated scf accuracy    <       0.05208172 Ry

     total magnetization       =    -0.06 Bohr mag/cell
     absolute magnetization    =     0.10 Bohr mag/cell

     iteration # 10     ecut=   120.00 Ry     beta= 0.70
     Davidson diagonalization with overlap
     ethr =  1.88E-05,  avg # of iterations = 10.0

     negative rho (up, down):  9.090E-01 9.090E-01

     total cpu time spent up to now is      187.1 secs

     total energy              =   -2943.06014148 Ry
     estimated scf accuracy    <       0.04983533 Ry

     total magnetization       =    -0.05 Bohr mag/cell
     absolute magnetization    =     0.08 Bohr mag/cell

     iteration # 11     ecut=   120.00 Ry     beta= 0.70
     Davidson diagonalization with overlap
     ethr =  1.80E-05,  avg # of iterations =  1.0

     negative rho (up, down):  9.098E-01 9.098E-01

     total cpu time spent up to now is      199.5 secs

     total energy              =   -2943.06355017 Ry
     estimated scf accuracy    <       0.00642951 Ry

     total magnetization       =    -0.05 Bohr mag/cell
     absolute magnetization    =     0.08 Bohr mag/cell

     iteration # 12     ecut=   120.00 Ry     beta= 0.70
     Davidson diagonalization with overlap
     ethr =  2.32E-06,  avg # of iterations = 15.0

     negative rho (up, down):  9.100E-01 9.100E-01

     total cpu time spent up to now is      219.9 secs

     total energy              =   -2943.06517649 Ry
     estimated scf accuracy    <       0.00121222 Ry

     total magnetization       =    -0.05 Bohr mag/cell
     absolute magnetization    =     0.06 Bohr mag/cell

     iteration # 13     ecut=   120.00 Ry     beta= 0.70
     Davidson diagonalization with overlap
     ethr =  4.38E-07,  avg # of iterations =  3.5

     negative rho (up, down):  9.098E-01 9.098E-01

     Magnetic moment per site  (integrated on atomic sphere of radius R)
     atom   1 (R=0.118)  charge=  9.1887    0.0000
     atom   2 (R=0.118)  charge=  8.8379   -0.0001
     atom   3 (R=0.118)  charge=  8.8376   -0.0003
     atom   4 (R=0.118)  charge=  8.8398   -0.0001
     atom   5 (R=0.118)  charge=  8.8328   -0.0003
     atom   6 (R=0.120)  charge= 10.3504   -0.0002
     atom   7 (R=0.120)  charge= 10.3516   -0.0001
     atom   8 (R=0.077)  charge=  5.9459   -0.0001
     atom   9 (R=0.077)  charge=  5.9637   -0.0000
     atom  10 (R=0.077)  charge=  5.9287   -0.0004
     atom  11 (R=0.077)  charge=  5.9284   -0.0003
     atom  12 (R=0.077)  charge=  5.9279   -0.0009
     atom  13 (R=0.077)  charge=  5.9289   -0.0003
     atom  14 (R=0.077)  charge=  5.9289   -0.0007
     atom  15 (R=0.077)  charge=  5.9288   -0.0004
     atom  16 (R=0.077)  charge=  5.9284   -0.0005
     atom  17 (R=0.077)  charge=  5.9305   -0.0004
     atom  18 (R=0.122)  charge=  9.4536    0.0002
     atom  19 (R=0.122)  charge=  8.9958   -0.0023
     atom  20 (R=0.122)  charge=  8.9941    0.0009
     atom  21 (R=0.122)  charge=  8.9948   -0.0016
     atom  22 (R=0.122)  charge=  8.9974   -0.0000
     atom  23 (R=0.077)  charge=  0.9042   -0.0000

     total cpu time spent up to now is      235.4 secs

     End of self-consistent calculation

 ------ SPIN UP ------------


          k = 0.0000 0.0000 0.0000 ( 56324 PWs)   bands (ev):

   -59.7646 -59.7612 -59.7188 -59.7186 -59.6821 -59.6741 -59.6366 -59.6362
   -59.5076 -59.1609 -53.3504 -53.3009 -53.2213 -53.1661 -51.6700 -45.2545
   -45.2370 -40.6207 -40.6043 -40.5308 -40.5036 -38.7808 -26.7653 -26.7581
   -26.6760 -26.6754 -26.5796 -26.5742 -26.4550 -26.4432 -26.3413 -26.3092
   -26.2777 -26.2472 -26.2415 -26.2094 -26.1959 -26.1522 -26.1394 -26.1257
   -26.0638 -25.9431 -25.9424 -25.9406 -25.9249 -25.8821 -25.8682 -25.8593
   -25.8409 -25.8394 -25.8274 -25.8190 -23.1362 -22.9195 -22.6292 -22.5318
   -22.2772 -22.1495 -22.1315 -22.0228 -21.8971 -21.8272 -21.7994 -21.5772
   -21.4904 -21.4369 -21.3736 -21.3349 -21.2491 -21.2049 -20.7317 -20.6609
   -20.6007 -19.1707 -18.9182 -18.8061 -18.8031 -18.6099 -18.5790 -18.5759
   -18.5662 -18.5505 -18.5165 -18.3446 -18.3350 -17.1268 -16.9207 -16.7984
     2.2564   3.3360   3.9475   4.1661   4.3429   4.4803   4.5468   4.7030
     4.7343   4.8344   4.9497   5.0773   5.2255   5.5155   5.6892   5.7050
     5.7932   5.8308   6.0598   6.1197   6.2007   6.2946   6.3093   6.3615
     6.4018   6.5721   6.6517   6.7329   6.7562   6.7699   6.7907   6.8512
     6.9845   7.0866   7.1894   7.2687   7.2850   7.3268   7.3875   7.3923
     7.4117   7.6289   7.6926   7.7608   7.9398   7.9971   8.0070   8.1212
     8.1634   8.2173   8.3084   8.3207   8.3346   8.4670   8.5459   8.5751
     8.6337   8.8025   8.8966   8.9730   9.0983   9.1032   9.2589   9.3215
     9.3364   9.3628   9.3822   9.4238   9.4700   9.6342   9.6882   9.7319
     9.9125   9.9799  10.0914  10.1274  10.1681  10.2774  10.2944

 ------ SPIN DOWN ----------


          k = 0.0000 0.0000 0.0000 ( 56324 PWs)   bands (ev):

   -59.7651 -59.7623 -59.7195 -59.7193 -59.6834 -59.6746 -59.6379 -59.6367
   -59.5079 -59.1610 -53.3506 -53.3011 -53.2214 -53.1662 -51.6700 -45.2546
   -45.2373 -40.6204 -40.6060 -40.5302 -40.5053 -38.7807 -26.7662 -26.7597
   -26.6774 -26.6767 -26.5807 -26.5755 -26.4557 -26.4448 -26.3417 -26.3100
   -26.2783 -26.2481 -26.2422 -26.2103 -26.1968 -26.1528 -26.1407 -26.1262
   -26.0644 -25.9441 -25.9436 -25.9414 -25.9265 -25.8829 -25.8694 -25.8603
   -25.8422 -25.8399 -25.8278 -25.8192 -23.1364 -22.9196 -22.6295 -22.5319
   -22.2774 -22.1498 -22.1318 -22.0230 -21.8973 -21.8274 -21.7994 -21.5772
   -21.4907 -21.4371 -21.3738 -21.3351 -21.2494 -21.2051 -20.7318 -20.6608
   -20.6006 -19.1725 -18.9167 -18.8073 -18.8052 -18.6102 -18.5784 -18.5770
   -18.5666 -18.5517 -18.5161 -18.3437 -18.3374 -17.1265 -16.9207 -16.7986
     2.2557   3.3353   3.9457   4.1655   4.3421   4.4790   4.5455   4.7026
     4.7337   4.8335   4.9477   5.0765   5.2244   5.5149   5.6885   5.7038
     5.7924   5.8298   6.0583   6.1189   6.1994   6.2936   6.3083   6.3602
     6.4002   6.5714   6.6514   6.7322   6.7550   6.7692   6.7901   6.8505
     6.9838   7.0850   7.1883   7.2675   7.2843   7.3254   7.3858   7.3914
     7.4104   7.6281   7.6918   7.7598   7.9385   7.9943   8.0050   8.1189
     8.1607   8.2119   8.3048   8.3181   8.3324   8.4622   8.5448   8.5718
     8.6316   8.8006   8.8951   8.9711   9.0967   9.1006   9.2569   9.3181
     9.3352   9.3604   9.3806   9.4219   9.4687   9.6323   9.6868   9.7308
     9.9113   9.9780  10.0885  10.1266  10.1671  10.2765  10.2934

     the Fermi energy is     8.2757 ev

!    total energy              =   -2943.06566346 Ry
     estimated scf accuracy    <       0.00024436 Ry
     smearing contrib. (-TS)   =      -0.10600411 Ry
     internal energy E=F+TS    =   -2942.95965935 Ry

     total magnetization       =    -0.05 Bohr mag/cell
     absolute magnetization    =     0.06 Bohr mag/cell

     convergence has been achieved in  13 iterations

     negative rho (up, down):  9.098E-01 9.098E-01

     Forces acting on atoms (cartesian axes, Ry/au):

     atom    1 type  1   force =     0.00027138   -0.02307948    0.01013522
     atom    2 type  1   force =    -0.12031630   -0.01791820   -0.00093694
     atom    3 type  1   force =    -0.11996460    0.01447184    0.00589085
     atom    4 type  1   force =     0.12539401   -0.01138459   -0.00338721
     atom    5 type  1   force =     0.13075262   -0.01139694    0.00881750
     atom    6 type  2   force =    -0.01060964   -0.02218512    0.00191678
     atom    7 type  2   force =    -0.02399494    0.01096203   -0.00963625
     atom    8 type  3   force =    -0.11818110    0.00669421    0.00182506
     atom    9 type  3   force =     0.03473815   -0.08502233   -0.06694032
     atom   10 type  3   force =    -0.02238781   -0.02675673   -0.05832154
     atom   11 type  3   force =    -0.02491606   -0.03330647    0.05570748
     atom   12 type  3   force =    -0.02076550    0.03260572   -0.05549480
     atom   13 type  3   force =    -0.01237314    0.02968837    0.06141004
     atom   14 type  3   force =     0.02250855   -0.02838590   -0.05905048
     atom   15 type  3   force =     0.02006200   -0.03765624    0.05862184
     atom   16 type  3   force =     0.02175955    0.03705363   -0.05289903
     atom   17 type  3   force =     0.01169281    0.04015671    0.06150712
     atom   18 type  4   force =    -0.00012667    0.02458031   -0.00877123
     atom   19 type  4   force =    -0.13657251   -0.00588614   -0.11626829
     atom   20 type  4   force =    -0.13597442    0.00465053    0.11459373
     atom   21 type  4   force =     0.13197034   -0.00846084   -0.11567642
     atom   22 type  4   force =     0.13687622    0.00270329    0.11474688
     atom   23 type  5   force =     0.11015707    0.10787235    0.05221001
     The non-local contrib.  to forces
     atom    1 type  1   force =     0.00474057   -0.00705361    0.03121841
     atom    2 type  1   force =    -0.24842098   -0.16332278    0.01541512
     atom    3 type  1   force =    -0.24105620    0.15465979   -0.02014460
     atom    4 type  1   force =     0.24710842   -0.16929803    0.02017887
     atom    5 type  1   force =     0.24570030    0.14131176   -0.01095546
     atom    6 type  2   force =     0.00974911   -0.06391193   -0.06987777
     atom    7 type  2   force =    -0.01660447    0.07353462    0.06525484
     atom    8 type  3   force =    -0.25413179    0.00275101    0.00053122
     atom    9 type  3   force =     0.09332181   -0.10243018   -0.05269755
     atom   10 type  3   force =    -0.22339737    0.00198913   -0.21626953
     atom   11 type  3   force =    -0.22554051    0.00982355    0.20109091
     atom   12 type  3   force =    -0.21323429   -0.02502530   -0.18008479
     atom   13 type  3   force =    -0.21470082   -0.00810356    0.20600765
     atom   14 type  3   force =     0.21677067    0.00489127   -0.21929972
     atom   15 type  3   force =     0.22033132    0.00486817    0.20223149
     atom   16 type  3   force =     0.21138657   -0.02213117   -0.18235854
     atom   17 type  3   force =     0.23832451   -0.01843889    0.19206387
     atom   18 type  4   force =    -0.01077552    0.06789993   -0.05658140
     atom   19 type  4   force =     0.06646278    0.00800711    0.07320923
     atom   20 type  4   force =     0.06201329   -0.01616948   -0.06393054
     atom   21 type  4   force =    -0.06347972    0.01177066    0.06789897
     atom   22 type  4   force =    -0.05800350   -0.00909529   -0.05436142
     atom   23 type  5   force =    -0.05808069   -0.04012882   -0.02993047
     The ionic contribution  to forces
     atom    1 type  1   force =    -0.23510887   -4.81049640   14.29096586
     atom    2 type  1   force =   -35.67712726   -6.15349815    0.74348569
     atom    3 type  1   force =   -35.68711713    6.25399606   -0.76748211
     atom    4 type  1   force =    35.54768964   -6.21098584    0.71287282
     atom    5 type  1   force =    35.13761014    6.96771213   -0.96199999
     atom    6 type  2   force =    -0.16104634   -3.69321465  -14.27267522
     atom    7 type  2   force =    -0.67427098    3.72704034   14.42189695
     atom    8 type  3   force =   -47.63700849   -0.03666213   -0.14193147
     atom    9 type  3   force =    45.61086415   -1.62348681   -1.06376682
     atom   10 type  3   force =   -32.19773227   -2.09736529  -23.47894396
     atom   11 type  3   force =   -31.27301652   -0.85306825   22.50679000
     atom   12 type  3   force =   -31.38879337    0.84288512  -22.56036452
     atom   13 type  3   force =   -32.19710959    2.26501361   23.53391519
     atom   14 type  3   force =    32.13921473   -2.10984467  -23.52266297
     atom   15 type  3   force =    31.18291246   -0.88074550   22.57480069
     atom   16 type  3   force =    31.28596148    0.91081949  -22.67483787
     atom   17 type  3   force =    31.97753412    2.46220855   23.78040217
     atom   18 type  4   force =    -0.32644958    4.42202953  -14.36542747
     atom   19 type  4   force =   -32.18376600    0.92274868  -25.96068389
     atom   20 type  4   force =   -32.17471779   -1.01469542   25.99239216
     atom   21 type  4   force =    32.06596401    0.87335671  -26.12588625
     atom   22 type  4   force =    31.87110698   -1.18295271   26.43265233
     atom   23 type  5   force =     4.99440647    1.01920559    0.90648868
     The local contribution  to forces
     atom    1 type  1   force =     0.23345957    4.79009054  -14.31381109
     atom    2 type  1   force =    35.81770656    6.29696943   -0.75650552
     atom    3 type  1   force =    35.82221763   -6.39218074    0.80187041
     atom    4 type  1   force =   -35.68084364    6.37010124   -0.73436228
     atom    5 type  1   force =   -35.26027042   -7.12282157    0.98945342
     atom    6 type  2   force =     0.14406554    3.72994337   14.35183046
     atom    7 type  2   force =     0.66850282   -3.78313877  -14.49645633
     atom    8 type  3   force =    47.79919235    0.03785116    0.14745314
     atom    9 type  3   force =   -45.67254214    1.65180576    1.06050080
     atom   10 type  3   force =    32.41885649    2.06502446   23.66179424
     atom   11 type  3   force =    31.50051248    0.79800731  -22.67978933
     atom   12 type  3   force =    31.59995466   -0.77415247   22.70472666
     atom   13 type  3   force =    32.42379450   -2.21685610  -23.70203810
     atom   14 type  3   force =   -32.35118001    2.07117270   23.70751859
     atom   15 type  3   force =   -31.40514893    0.82609009  -22.74318836
     atom   16 type  3   force =   -31.49232225   -0.84064488   22.82435206
     atom   17 type  3   force =   -32.22747865   -2.39223739  -23.93301775
     atom   18 type  4   force =     0.34064632   -4.46406933   14.42297830
     atom   19 type  4   force =    31.98434461   -0.94063336   25.78492556
     atom   20 type  4   force =    31.98311228    1.03594253  -25.82829450
     atom   21 type  4   force =   -31.87177787   -0.89631798   25.95783518
     atom   22 type  4   force =   -31.68029654    1.19382995  -26.27871302
     atom   23 type  5   force =    -4.82541868   -0.87168769   -0.82412885
     The core correction contribution to forces
     atom    1 type  1   force =     0.00047485    0.00231610   -0.00153865
     atom    2 type  1   force =    -0.01086970   -0.00124611    0.00046910
     atom    3 type  1   force =    -0.01191481    0.00266190   -0.00156197
     atom    4 type  1   force =     0.01134628   -0.00233336    0.00222775
     atom    5 type  1   force =     0.00718545    0.00547273   -0.00180541
     atom    6 type  2   force =    -0.00027513    0.00330663    0.00325624
     atom    7 type  2   force =     0.00088280   -0.00367426   -0.00255819
     atom    8 type  3   force =    -0.02965689    0.00113267    0.00030768
     atom    9 type  3   force =     0.00998670   -0.01298438   -0.00715419
     atom   10 type  3   force =    -0.02280371    0.00824976   -0.01680011
     atom   11 type  3   force =    -0.02556168    0.00888120    0.01855384
     atom   12 type  3   force =    -0.02233857   -0.00993208   -0.01499998
     atom   13 type  3   force =    -0.02293924   -0.00920419    0.01594918
     atom   14 type  3   force =     0.02239007    0.00871721   -0.01687136
     atom   15 type  3   force =     0.02385516    0.00947597    0.01643543
     atom   16 type  3   force =     0.02319071   -0.01053996   -0.01481164
     atom   17 type  3   force =     0.02400028   -0.00864643    0.01440910
     atom   18 type  4   force =     0.00062607   -0.00355644    0.00276189
     atom   19 type  4   force =    -0.01006533    0.00009829   -0.00960787
     atom   20 type  4   force =    -0.00993064    0.00050130    0.00911523
     atom   21 type  4   force =     0.00988060   -0.00007469   -0.00927247
     atom   22 type  4   force =     0.01004562    0.00040307    0.00810789
     atom   23 type  5   force =     0.00000000    0.00000000    0.00000000
     The Hubbard contrib.    to forces
     atom    1 type  1   force =     0.00000000    0.00000000    0.00000000
     atom    2 type  1   force =     0.00000000    0.00000000    0.00000000
     atom    3 type  1   force =     0.00000000    0.00000000    0.00000000
     atom    4 type  1   force =     0.00000000    0.00000000    0.00000000
     atom    5 type  1   force =     0.00000000    0.00000000    0.00000000
     atom    6 type  2   force =     0.00000000    0.00000000    0.00000000
     atom    7 type  2   force =     0.00000000    0.00000000    0.00000000
     atom    8 type  3   force =     0.00000000    0.00000000    0.00000000
     atom    9 type  3   force =     0.00000000    0.00000000    0.00000000
     atom   10 type  3   force =     0.00000000    0.00000000    0.00000000
     atom   11 type  3   force =     0.00000000    0.00000000    0.00000000
     atom   12 type  3   force =     0.00000000    0.00000000    0.00000000
     atom   13 type  3   force =     0.00000000    0.00000000    0.00000000
     atom   14 type  3   force =     0.00000000    0.00000000    0.00000000
     atom   15 type  3   force =     0.00000000    0.00000000    0.00000000
     atom   16 type  3   force =     0.00000000    0.00000000    0.00000000
     atom   17 type  3   force =     0.00000000    0.00000000    0.00000000
     atom   18 type  4   force =     0.00000000    0.00000000    0.00000000
     atom   19 type  4   force =     0.00000000    0.00000000    0.00000000
     atom   20 type  4   force =     0.00000000    0.00000000    0.00000000
     atom   21 type  4   force =     0.00000000    0.00000000    0.00000000
     atom   22 type  4   force =     0.00000000    0.00000000    0.00000000
     atom   23 type  5   force =     0.00000000    0.00000000    0.00000000
     The SCF correction term to forces
     atom    1 type  1   force =    -0.00000000    0.00000000    0.00000000
     atom    2 type  1   force =    -0.00000000    0.00000000   -0.00000000
     atom    3 type  1   force =    -0.00000000   -0.00000000   -0.00000000
     atom    4 type  1   force =     0.00000000    0.00000000   -0.00000000
     atom    5 type  1   force =     0.00000000   -0.00000000   -0.00000000
     atom    6 type  2   force =    -0.00000000    0.00000000   -0.00000000
     atom    7 type  2   force =    -0.00000000   -0.00000000    0.00000000
     atom    8 type  3   force =     0.00000000    0.00000000   -0.00000000
     atom    9 type  3   force =    -0.00000000    0.00000000   -0.00000000
     atom   10 type  3   force =     0.00291734   -0.00466868   -0.00780072
     atom   11 type  3   force =    -0.00108154    0.00303584    0.00936353
     atom   12 type  3   force =     0.00387436   -0.00118345   -0.00447070
     atom   13 type  3   force =    -0.00118970   -0.00117528    0.00787759
     atom   14 type  3   force =    -0.00445863   -0.00333630   -0.00743355
     atom   15 type  3   force =    -0.00165973    0.00264113    0.00864406
     atom   16 type  3   force =    -0.00622867   -0.00046373   -0.00494157
     atom   17 type  3   force =    -0.00045916   -0.00274303    0.00795120
     atom   18 type  4   force =    -0.00394566    0.00226274   -0.01220108
     atom   19 type  4   force =     0.00667972    0.00387926   -0.00380987
     atom   20 type  4   force =     0.00377674   -0.00094229    0.00561284
     atom   21 type  4   force =    -0.00838839    0.00279057   -0.00595036
     atom   22 type  4   force =    -0.00574805    0.00050438    0.00736257
     atom   23 type  5   force =    -0.00052174    0.00046938    0.00008213

     Total force =     0.439168     Total SCF correction =     0.032978


     Computing stress (Cartesian axis) and pressure


     negative rho (up, down):  9.098E-01 9.098E-01
          total   stress  (Ry/bohr**3)                   (kbar)     P=       93.77
   0.00070793   0.00004502   0.00001666          104.14        6.62        2.45
   0.00004502   0.00076155   0.00001598            6.62      112.03        2.35
   0.00001666   0.00001598   0.00044292            2.45        2.35       65.16


     Molecular Dynamics Calculation

     Starting temperature  =   300.00 K

     temperature is set once at start

     mass Hf               =   178.49
     mass Nb               =    92.91
     mass Ta               =   180.95
     mass Zr               =    91.22
     mass H                =     2.01
     Time step             =     4.20 a.u.,  0.2032 femto-seconds

     Entering Dynamics:    iteration =     1
                           time      =   0.0002 pico-seconds


ATOMIC_POSITIONS (angstrom)
Hf            2.6699999570        2.8271230292        6.6039642186    0   0   0
Hf            1.2529906802        1.2862841814        5.0584662261    0   0   0
Hf            1.2554868986        7.3898042948        5.0880677674    0   0   0
Hf            4.0870092338        1.2862841814        5.0584662261    0   0   0
Hf            4.0845130154        7.3898042948        5.0880677674    0   0   0
Nb            2.6699999570        2.7969306055        3.5155832167    0   0   0
Nb            2.6699999570        5.8763786763        6.6349979432    0   0   0
Ta            1.2093730560        4.3409278516        5.0711258323    0   0   0
Ta            4.1306268580        4.3409278516        5.0711258323    0   0   0
Ta            1.3072520505        1.3141218322        2.0587774596
Ta            1.3027876091        1.3083901934        8.0945807789
Ta            1.3040090344        7.3758270468        2.0462356093
Ta            1.3077104482        7.3650837886        8.0860039587
Ta            4.0327478669        1.3141217861        2.0587774390
Ta            4.0372121676        1.3083900703        8.0945808614
Ta            4.0359909077        7.3758271727        2.0462356828
Ta            4.0322894465        7.3650840848        8.0860039615
Zr            2.6699999499        5.8662872232        3.5273834380
Zr            1.2438269526        4.3220776341        1.9999934733
Zr            1.2403777798        4.3541235456        8.1497619820
Zr            4.0961727031        4.3220774896        1.9999935066
Zr            4.0996221848        4.3541234362        8.1497619906
H             4.6040713044        4.7500541919        5.3089058371


     kinetic energy (Ekin) =         160.99227318 Ry
     temperature           =     1210412.83465834 K 
     Ekin + Etot (const)   =       -2782.07339028 Ry
     Ions kinetic stress =         3109.65 (kbar)
                                   4664.56        4039.58        2332.20
                                   4039.58        3498.33        2019.72
                                   2332.20        2019.72        1166.06



     File outdir/pwscf.msd.dat deleted, as requested

     Writing config-only to output data dir outdir/pwscf.save/
     NEW-OLD atomic charge density approx. for the potential

     Check: negative core charge=   -0.000002

     negative rho (up, down):  9.064E-01 9.064E-01
     Generating pointlists ...
     new r_m :   0.0323 (alat units)  0.5218 (a.u.) for type    3
     new r_m :   0.0323 (alat units)  0.5218 (a.u.) for type    5

     total cpu time spent up to now is      258.2 secs

     Self-consistent Calculation

     iteration #  1     ecut=   120.00 Ry     beta= 0.70
     Davidson diagonalization with overlap
     ethr =  1.00E-06,  avg # of iterations = 17.0

     negative rho (up, down):  9.108E-01 9.108E-01

     total cpu time spent up to now is      299.5 secs

     total energy              =   -2938.43903903 Ry
     estimated scf accuracy    <       1.31682110 Ry

     total magnetization       =    -0.05 Bohr mag/cell
     absolute magnetization    =     0.06 Bohr mag/cell

     iteration #  2     ecut=   120.00 Ry     beta= 0.70
     Davidson diagonalization with overlap
     ethr =  4.75E-04,  avg # of iterations =  6.0

     negative rho (up, down):  9.096E-01 9.096E-01

     total cpu time spent up to now is      314.8 secs

     total energy              =   -2938.67336123 Ry
     estimated scf accuracy    <       0.98621921 Ry

     total magnetization       =    -0.05 Bohr mag/cell
     absolute magnetization    =     0.05 Bohr mag/cell

     iteration #  3     ecut=   120.00 Ry     beta= 0.70
     Davidson diagonalization with overlap
     ethr =  3.56E-04,  avg # of iterations =  2.0

     negative rho (up, down):  9.089E-01 9.089E-01

     total cpu time spent up to now is      328.7 secs

     total energy              =   -2938.72103850 Ry
     estimated scf accuracy    <       0.05220035 Ry

     total magnetization       =    -0.05 Bohr mag/cell
     absolute magnetization    =     0.05 Bohr mag/cell

     iteration #  4     ecut=   120.00 Ry     beta= 0.70
     Davidson diagonalization with overlap
     ethr =  1.88E-05,  avg # of iterations = 10.0

     negative rho (up, down):  9.090E-01 9.090E-01

     total cpu time spent up to now is      346.1 secs

     total energy              =   -2938.72940372 Ry
     estimated scf accuracy    <       0.01255554 Ry

     total magnetization       =    -0.05 Bohr mag/cell
     absolute magnetization    =     0.05 Bohr mag/cell

     iteration #  5     ecut=   120.00 Ry     beta= 0.70
     Davidson diagonalization with overlap
     ethr =  4.53E-06,  avg # of iterations =  5.0

     negative rho (up, down):  9.090E-01 9.090E-01

     total cpu time spent up to now is      360.3 secs

     total energy              =   -2938.72970578 Ry
     estimated scf accuracy    <       0.00250304 Ry

     total magnetization       =    -0.04 Bohr mag/cell
     absolute magnetization    =     0.05 Bohr mag/cell

     iteration #  6     ecut=   120.00 Ry     beta= 0.70
     Davidson diagonalization with overlap
     c_bands:  1 eigenvalues not converged
     c_bands:  1 eigenvalues not converged
     ethr =  9.04E-07,  avg # of iterations = 20.0

     negative rho (up, down):  9.090E-01 9.090E-01

     Magnetic moment per site  (integrated on atomic sphere of radius R)
     atom   1 (R=0.118)  charge=  9.1800    0.0000
     atom   2 (R=0.118)  charge=  8.8357   -0.0001
     atom   3 (R=0.118)  charge=  8.8358   -0.0002
     atom   4 (R=0.118)  charge=  8.8308   -0.0001
     atom   5 (R=0.118)  charge=  8.8324   -0.0002
     atom   6 (R=0.120)  charge= 10.3233    0.0000
     atom   7 (R=0.120)  charge= 10.3436   -0.0001
     atom   8 (R=0.032)  charge=  0.0326   -0.0000
     atom   9 (R=0.032)  charge=  0.0403   -0.0000
     atom  10 (R=0.032)  charge=  0.0303   -0.0000
     atom  11 (R=0.032)  charge=  0.0306   -0.0000
     atom  12 (R=0.032)  charge=  0.0301   -0.0000
     atom  13 (R=0.032)  charge=  0.0305   -0.0000
     atom  14 (R=0.032)  charge=  0.0302   -0.0000
     atom  15 (R=0.032)  charge=  0.0308   -0.0000
     atom  16 (R=0.032)  charge=  0.0303   -0.0000
     atom  17 (R=0.032)  charge=  0.0306   -0.0000
     atom  18 (R=0.122)  charge=  9.4444    0.0001
     atom  19 (R=0.122)  charge=  8.9981   -0.0019
     atom  20 (R=0.122)  charge=  8.9958    0.0001
     atom  21 (R=0.122)  charge=  8.9917   -0.0020
     atom  22 (R=0.122)  charge=  8.9926   -0.0001
     atom  23 (R=0.032)  charge=  0.5864   -0.0000

     total cpu time spent up to now is      377.1 secs

     End of self-consistent calculation

 ------ SPIN UP ------------


          k = 0.0000 0.0000 0.0000 ( 56324 PWs)   bands (ev):

   -62.4154 -59.7794 -59.7677 -59.7344 -59.7225 -59.7052 -59.6933 -59.6879
   -59.6605 -59.6495 -53.4020 -53.3492 -53.2750 -53.2235 -51.7434 -45.3751
   -45.2864 -40.6439 -40.6328 -40.5335 -40.5239 -38.8699 -31.0764 -26.8090
   -26.7799 -26.7446 -26.6984 -26.6900 -26.6661 -26.5937 -26.5654 -26.4688
   -26.4616 -26.3965 -26.3256 -26.3131 -26.2958 -26.2622 -26.2484 -26.2233
   -26.2104 -26.1973 -26.1620 -26.1480 -25.9649 -25.9493 -25.9470 -25.9412
   -25.8853 -25.8838 -25.8643 -25.8513 -23.2006 -22.9820 -22.6905 -22.5835
   -22.3374 -22.2058 -22.1646 -22.0746 -21.9651 -21.8783 -21.8564 -21.6335
   -21.6077 -21.5040 -21.4271 -21.3922 -21.3225 -21.2753 -20.8017 -20.7338
   -20.6578 -19.2108 -18.9192 -18.8587 -18.8193 -18.6243 -18.6194 -18.5876
   -18.5713 -18.5649 -18.5293 -18.3643 -18.3497 -17.2088 -17.0036 -16.8741
     2.4968   3.8846   3.9731   4.1525   4.1942   4.4361   4.5097   4.5741
     4.6549   4.8727   4.9143   5.1100   5.1506   5.3628   5.6430   5.6849
     5.7401   5.8353   6.0298   6.0629   6.1572   6.2583   6.2968   6.3185
     6.3600   6.5241   6.6578   6.6932   6.7201   6.7252   6.7574   6.8988
     6.9432   7.1216   7.1675   7.2397   7.2490   7.3447   7.3541   7.3628
     7.4592   7.6056   7.6940   7.8282   7.9337   7.9441   7.9843   8.1114
     8.1800   8.2341   8.2585   8.2997   8.3469   8.4407   8.5183   8.5630
     8.6145   8.7613   8.8639   8.9447   9.0616   9.0895   9.1882   9.2452
     9.3070   9.3473   9.3676   9.4038   9.4522   9.5881   9.6971   9.7152
     9.8903   9.9146  10.0357  10.0802  10.1125  10.1763  10.2472

 ------ SPIN DOWN ----------


          k = 0.0000 0.0000 0.0000 ( 56324 PWs)   bands (ev):

   -62.4155 -59.7804 -59.7683 -59.7354 -59.7230 -59.7062 -59.6939 -59.6881
   -59.6615 -59.6501 -53.4021 -53.3493 -53.2751 -53.2235 -51.7434 -45.3750
   -45.2865 -40.6456 -40.6328 -40.5334 -40.5256 -38.8699 -31.0766 -26.8096
   -26.7811 -26.7452 -26.6997 -26.6909 -26.6667 -26.5950 -26.5662 -26.4702
   -26.4625 -26.3967 -26.3265 -26.3137 -26.2961 -26.2632 -26.2491 -26.2244
   -26.2110 -26.1977 -26.1632 -26.1487 -25.9662 -25.9502 -25.9477 -25.9426
   -25.8861 -25.8852 -25.8657 -25.8519 -23.2007 -22.9821 -22.6906 -22.5836
   -22.3375 -22.2059 -22.1648 -22.0747 -21.9652 -21.8784 -21.8565 -21.6336
   -21.6077 -21.5041 -21.4273 -21.3922 -21.3227 -21.2753 -20.8018 -20.7337
   -20.6578 -19.2126 -18.9188 -18.8605 -18.8211 -18.6251 -18.6204 -18.5879
   -18.5715 -18.5662 -18.5294 -18.3667 -18.3496 -17.2087 -17.0037 -16.8743
     2.4959   3.8837   3.9722   4.1520   4.1939   4.4355   4.5080   4.5737
     4.6540   4.8722   4.9127   5.1093   5.1497   5.3621   5.6423   5.6838
     5.7394   5.8345   6.0285   6.0619   6.1566   6.2572   6.2960   6.3174
     6.3585   6.5234   6.6572   6.6921   6.7192   6.7244   6.7563   6.8981
     6.9421   7.1199   7.1666   7.2389   7.2482   7.3434   7.3532   7.3615
     7.4583   7.6046   7.6933   7.8269   7.9318   7.9423   7.9824   8.1097
     8.1759   8.2303   8.2569   8.2974   8.3440   8.4362   8.5160   8.5607
     8.6127   8.7599   8.8625   8.9434   9.0601   9.0872   9.1865   9.2441
     9.3040   9.3452   9.3659   9.4019   9.4510   9.5863   9.6959   9.7140
     9.8890   9.9127  10.0348  10.0777  10.1115  10.1754  10.2462

     the Fermi energy is     8.2638 ev

!    total energy              =   -2938.72991317 Ry
     estimated scf accuracy    <       0.00039113 Ry
     smearing contrib. (-TS)   =      -0.10787876 Ry
     internal energy E=F+TS    =   -2938.62203442 Ry

     total magnetization       =    -0.04 Bohr mag/cell
     absolute magnetization    =     0.05 Bohr mag/cell

     convergence has been achieved in   6 iterations

     negative rho (up, down):  9.090E-01 9.090E-01

     Forces acting on atoms (cartesian axes, Ry/au):

     atom    1 type  1   force =     0.02055511   -0.01238417    0.01517185
     atom    2 type  1   force =    -0.12211354   -0.01606048    0.00071661
     atom    3 type  1   force =    -0.12041758    0.01247316    0.00612226
     atom    4 type  1   force =     0.13133454   -0.01296873    0.00209719
     atom    5 type  1   force =     0.11978462    0.00477154    0.00622091
     atom    6 type  2   force =     0.04050994    0.00911366    0.02311104
     atom    7 type  2   force =     0.00467999    0.00932356   -0.01639632
     atom    8 type  3   force =    -0.11853908    0.01397140    0.00776955
     atom    9 type  3   force =    -7.75903750   -6.81364428   -3.98848884
     atom   10 type  3   force =    -0.03479960   -0.03509614   -0.06223109
     atom   11 type  3   force =    -0.02354911   -0.03771096    0.05599526
     atom   12 type  3   force =    -0.02089590    0.03789383   -0.05797867
     atom   13 type  3   force =    -0.01618570    0.02964259    0.05863080
     atom   14 type  3   force =     0.01892478   -0.02314023   -0.05736028
     atom   15 type  3   force =     0.01797837   -0.03269681    0.05863794
     atom   16 type  3   force =     0.01858825    0.03299173   -0.05523478
     atom   17 type  3   force =     0.01335419    0.02769498    0.05494687
     atom   18 type  4   force =     0.01481298    0.01974642    0.00133495
     atom   19 type  4   force =    -0.13946603   -0.00669757   -0.12196711
     atom   20 type  4   force =    -0.14031342    0.00421695    0.11616433
     atom   21 type  4   force =     0.13662473   -0.00687428   -0.11509120
     atom   22 type  4   force =     0.13661319    0.00190984    0.11251441
     atom   23 type  5   force =     7.82155676    6.79352398    3.95531430
     The non-local contrib.  to forces
     atom    1 type  1   force =     0.01395674   -0.00362438    0.02988082
     atom    2 type  1   force =    -0.25022237   -0.16805426    0.01704101
     atom    3 type  1   force =    -0.24425770    0.15995534   -0.02494490
     atom    4 type  1   force =     0.24624503   -0.15370763    0.01861785
     atom    5 type  1   force =     0.23138370    0.15803343   -0.02972620
     atom    6 type  2   force =    -0.01650215   -0.05165172   -0.05231120
     atom    7 type  2   force =    -0.00690644    0.07410028    0.05471519
     atom    8 type  3   force =    -0.24761838   -0.00264573   -0.00854734
     atom    9 type  3   force =     1.31620471    0.94045323    0.52803231
     atom   10 type  3   force =    -0.22244359    0.00500471   -0.21688115
     atom   11 type  3   force =    -0.22710959    0.01151102    0.20123931
     atom   12 type  3   force =    -0.20810834   -0.02431474   -0.18351552
     atom   13 type  3   force =    -0.21164252   -0.01348236    0.20547300
     atom   14 type  3   force =     0.21411599    0.00403079   -0.21445400
     atom   15 type  3   force =     0.22463404    0.00581609    0.20393004
     atom   16 type  3   force =     0.20456422   -0.02335128   -0.18407784
     atom   17 type  3   force =     0.21237919   -0.01020011    0.20369471
     atom   18 type  4   force =    -0.00846175    0.07947500   -0.05121507
     atom   19 type  4   force =     0.07402228    0.00416827    0.07742386
     atom   20 type  4   force =     0.06423250   -0.01239725   -0.06550920
     atom   21 type  4   force =    -0.06138367    0.00678736    0.06746058
     atom   22 type  4   force =    -0.05607642   -0.01088133   -0.05551956
     atom   23 type  5   force =     0.18501582    0.15569921    0.09106161
     The ionic contribution  to forces
     atom    1 type  1   force =    -0.39371807   -4.96948220   14.46920534
     atom    2 type  1   force =   -35.74536226   -6.21882663    0.76075897
     atom    3 type  1   force =   -35.77352875    6.27429581   -0.73564824
     atom    4 type  1   force =    35.58017776   -6.44027065    0.73795204
     atom    5 type  1   force =    35.47224392    6.86819297   -0.78853467
     atom    6 type  2   force =    -0.31908426   -3.85429158  -14.42316336
     atom    7 type  2   force =    -0.70204089    3.98782384   14.63845256
     atom    8 type  3   force =   -47.92799354    0.00145559   -0.11209493
     atom    9 type  3   force =    36.09706323   -9.83942778   -5.83271109
     atom   10 type  3   force =   -32.23028389   -2.12893713  -23.50441889
     atom   11 type  3   force =   -31.30863704   -0.88712633   22.52038249
     atom   12 type  3   force =   -31.42626562    0.85445424  -22.57549117
     atom   13 type  3   force =   -32.23398103    2.25994581   23.52545498
     atom   14 type  3   force =    32.15359315   -2.17635409  -23.57564626
     atom   15 type  3   force =    31.21561651   -0.95531009   22.60857777
     atom   16 type  3   force =    31.32567686    0.94050714  -22.69256518
     atom   17 type  3   force =    32.10208190    2.39355759   23.68338726
     atom   18 type  4   force =    -0.47279299    4.62550278  -14.51161463
     atom   19 type  4   force =   -32.24974761    0.93769440  -26.01081119
     atom   20 type  4   force =   -32.25314108   -0.98340867   26.02135659
     atom   21 type  4   force =    32.09028135    0.89702506  -26.31505834
     atom   22 type  4   force =    32.01867468   -1.05218505   26.51248024
     atom   23 type  5   force =    14.98116766    9.46516498    5.59974971
     The local contribution  to forces
     atom    1 type  1   force =     0.40027002    4.95461020  -14.47032498
     atom    2 type  1   force =    35.88443999    6.37143369   -0.76999796
     atom    3 type  1   force =    35.90896027   -6.42164297    0.77883621
     atom    4 type  1   force =   -35.70543767    6.58298019   -0.74672501
     atom    5 type  1   force =   -35.59422793   -7.02179197    0.83583419
     atom    6 type  2   force =     0.37482248    3.91022695   14.49609594
     atom    7 type  2   force =     0.71569812   -4.04706656  -14.69028517
     atom    8 type  3   force =    48.09242972    0.01345496    0.13791841
     atom    9 type  3   force =   -45.42139629    1.89756128    1.22170424
     atom   10 type  3   force =    32.43565761    2.08502716   23.67057402
     atom   11 type  3   force =    31.53754657    0.82530312  -22.68185163
     atom   12 type  3   force =    31.62999491   -0.78242977   22.70895346
     atom   13 type  3   force =    32.45253870   -2.20532531  -23.68513436
     atom   14 type  3   force =   -32.36874533    2.14641639   23.74420284
     atom   15 type  3   force =   -31.44713583    0.90631245  -22.76851922
     atom   16 type  3   force =   -31.52896198   -0.87896543   22.82895583
     atom   17 type  3   force =   -32.32284178   -2.34946252  -23.84528762
     atom   18 type  4   force =     0.49876244   -4.68374561   14.56404337
     atom   19 type  4   force =    32.04544526   -0.95134946   25.81209949
     atom   20 type  4   force =    32.05971672    1.00108285  -25.84379869
     atom   21 type  4   force =   -31.89830170   -0.91180471   26.13413072
     atom   22 type  4   force =   -31.83171901    1.06594971  -26.35138396
     atom   23 type  5   force =    -7.34730333   -2.82916085   -1.73467771
     The core correction contribution to forces
     atom    1 type  1   force =     0.00337712    0.00353584   -0.00082289
     atom    2 type  1   force =    -0.01217159   -0.00231772    0.00076133
     atom    3 type  1   force =    -0.01220354    0.00228544   -0.00152964
     atom    4 type  1   force =     0.01167798   -0.00107816    0.00094086
     atom    5 type  1   force =     0.00844099    0.00353955   -0.00122267
     atom    6 type  2   force =     0.00143514    0.00330637    0.00320157
     atom    7 type  2   force =     0.00048402   -0.00376192   -0.00222090
     atom    8 type  3   force =    -0.02964337    0.00028762   -0.00020549
     atom    9 type  3   force =     0.23424326    0.17569860    0.10008331
     atom   10 type  3   force =    -0.02172432    0.00745280   -0.01624101
     atom   11 type  3   force =    -0.02464329    0.00891540    0.01804711
     atom   12 type  3   force =    -0.02139537   -0.01015424   -0.01504021
     atom   13 type  3   force =    -0.02108630   -0.00945386    0.01560878
     atom   14 type  3   force =     0.02236089    0.00829146   -0.01718903
     atom   15 type  3   force =     0.02427360    0.00904234    0.01763343
     atom   16 type  3   force =     0.02149288   -0.00930892   -0.01529258
     atom   17 type  3   force =     0.02208599   -0.00681371    0.01619512
     atom   18 type  4   force =     0.00075634   -0.00436010    0.00264533
     atom   19 type  4   force =    -0.01046782    0.00030398   -0.01000135
     atom   20 type  4   force =    -0.01002728    0.00033568    0.00934205
     atom   21 type  4   force =     0.00972851    0.00012719   -0.00908117
     atom   22 type  4   force =     0.00952618    0.00009805    0.00845382
     atom   23 type  5   force =     0.00000000    0.00000000    0.00000000
     The Hubbard contrib.    to forces
     atom    1 type  1   force =     0.00000000    0.00000000    0.00000000
     atom    2 type  1   force =     0.00000000    0.00000000    0.00000000
     atom    3 type  1   force =     0.00000000    0.00000000    0.00000000
     atom    4 type  1   force =     0.00000000    0.00000000    0.00000000
     atom    5 type  1   force =     0.00000000    0.00000000    0.00000000
     atom    6 type  2   force =     0.00000000    0.00000000    0.00000000
     atom    7 type  2   force =     0.00000000    0.00000000    0.00000000
     atom    8 type  3   force =     0.00000000    0.00000000    0.00000000
     atom    9 type  3   force =     0.00000000    0.00000000    0.00000000
     atom   10 type  3   force =     0.00000000    0.00000000    0.00000000
     atom   11 type  3   force =     0.00000000    0.00000000    0.00000000
     atom   12 type  3   force =     0.00000000    0.00000000    0.00000000
     atom   13 type  3   force =     0.00000000    0.00000000    0.00000000
     atom   14 type  3   force =     0.00000000    0.00000000    0.00000000
     atom   15 type  3   force =     0.00000000    0.00000000    0.00000000
     atom   16 type  3   force =     0.00000000    0.00000000    0.00000000
     atom   17 type  3   force =     0.00000000    0.00000000    0.00000000
     atom   18 type  4   force =     0.00000000    0.00000000    0.00000000
     atom   19 type  4   force =     0.00000000    0.00000000    0.00000000
     atom   20 type  4   force =     0.00000000    0.00000000    0.00000000
     atom   21 type  4   force =     0.00000000    0.00000000    0.00000000
     atom   22 type  4   force =     0.00000000    0.00000000    0.00000000
     atom   23 type  5   force =     0.00000000    0.00000000    0.00000000
     The SCF correction term to forces
     atom    1 type  1   force =    -0.00000000    0.00000000   -0.00000000
     atom    2 type  1   force =     0.00000000    0.00000000   -0.00000000
     atom    3 type  1   force =     0.00000000   -0.00000000   -0.00000000
     atom    4 type  1   force =    -0.00000000   -0.00000000   -0.00000000
     atom    5 type  1   force =     0.00000000   -0.00000000   -0.00000000
     atom    6 type  2   force =    -0.00000000    0.00000000   -0.00000000
     atom    7 type  2   force =    -0.00000000   -0.00000000   -0.00000000
     atom    8 type  3   force =    -0.00000000    0.00000000   -0.00000000
     atom    9 type  3   force =     0.00000000    0.00000000   -0.00000000
     atom   10 type  3   force =     0.00391484   -0.00383657    0.00530267
     atom   11 type  3   force =    -0.00078551    0.00349293   -0.00125529
     atom   12 type  3   force =     0.00479877    0.00014545    0.00768151
     atom   13 type  3   force =    -0.00209430   -0.00223457   -0.00220487
     atom   14 type  3   force =    -0.00247966   -0.00571767    0.00629292
     atom   15 type  3   force =     0.00051029    0.00124951   -0.00241734
     atom   16 type  3   force =    -0.00426348    0.00391733    0.00831173
     atom   17 type  3   force =    -0.00043087    0.00042084   -0.00247586
     atom   18 type  4   force =    -0.00353083    0.00268147   -0.00195731
     atom   19 type  4   force =     0.00120210    0.00229236    0.00988882
     atom   20 type  4   force =    -0.00117403   -0.00158856   -0.00465967
     atom   21 type  4   force =    -0.00377951    0.00079792    0.00802375
     atom   22 type  4   force =    -0.00387200   -0.00126443   -0.00094940
     atom   23 type  5   force =     0.00259686    0.00162776   -0.00025257

     Total force =    11.097000     Total SCF correction =     0.024978


     Computing stress (Cartesian axis) and pressure


     negative rho (up, down):  9.090E-01 9.090E-01
          total   stress  (Ry/bohr**3)                   (kbar)     P=      220.46
   0.00201139   0.00118436   0.00068258          295.89      174.23      100.41
   0.00118436   0.00173530   0.00057434          174.23      255.27       84.49
   0.00068258   0.00057434   0.00074937          100.41       84.49      110.24


     Entering Dynamics:    iteration =     2
                           time      =   0.0004 pico-seconds


ATOMIC_POSITIONS (angstrom)
Hf            2.6699999570        2.8271230292        6.6039642186    0   0   0
Hf            1.2529906802        1.2862841814        5.0584662261    0   0   0
Hf            1.2554868986        7.3898042948        5.0880677674    0   0   0
Hf            4.0870092338        1.2862841814        5.0584662261    0   0   0
Hf            4.0845130154        7.3898042948        5.0880677674    0   0   0
Nb            2.6699999570        2.7969306055        3.5155832167    0   0   0
Nb            2.6699999570        5.8763786763        6.6349979432    0   0   0
Ta            1.2093730560        4.3409278516        5.0711258323    0   0   0
Ta            4.1306268580        4.3409278516        5.0711258323    0   0   0
Ta            1.3072494473        1.3141190885        2.0587722868
Ta            1.3027855711        1.3083871164        8.0945855248
Ta            1.3040072641        7.3758301144        2.0462307572
Ta            1.3077091820        7.3650863065        8.0860090151
Ta            4.0327495750        1.3141196730        2.0587725213
Ta            4.0372137529        1.3083871540        8.0945858393
Ta            4.0359925756        7.3758300887        2.0462310594
Ta            4.0322905333        7.3650867888        8.0860088121
Zr            2.6700016058        5.8662908199        3.5273830955
Zr            1.2438036284        4.3220765517        1.9999732535
Zr            1.2403543941        4.3541242800        8.1497814563
Zr            4.0961954499        4.3220762428        1.9999740919
Zr            4.0996452057        4.3541238024        8.1497810637
H             3.9859192739        4.2148591319        5.0000601162


     kinetic energy (Ekin) =         151.24838229 Ry
     temperature           =     1137153.84924713 K 
     Ekin + Etot (const)   =       -2787.48153089 Ry
     Ions kinetic stress =         2921.44 (kbar)
                                   4383.10        3795.26        2190.75
                                   3795.26        3286.26        1896.93
                                   2190.75        1896.93        1094.97



     Writing config-only to output data dir outdir/pwscf.save/
     NEW-OLD atomic charge density approx. for the potential

     Check: negative core charge=   -0.000002

     negative rho (up, down):  8.961E-01 8.961E-01
     Generating pointlists ...
     new r_m :   0.1178 (alat units)  1.9008 (a.u.) for type    2
     new r_m :   0.0099 (alat units)  0.1595 (a.u.) for type    3
     new r_m :   0.0099 (alat units)  0.1595 (a.u.) for type    5

     total cpu time spent up to now is      399.7 secs

     Self-consistent Calculation

     iteration #  1     ecut=   120.00 Ry     beta= 0.70
     Davidson diagonalization with overlap
     c_bands:  1 eigenvalues not converged
     c_bands:  1 eigenvalues not converged
     ethr =  1.00E-06,  avg # of iterations = 20.0

     negative rho (up, down):  8.849E-01 8.849E-01

     total cpu time spent up to now is      439.7 secs

     total energy              =   -2894.70287313 Ry
     estimated scf accuracy    <       0.27955219 Ry

     total magnetization       =    -0.04 Bohr mag/cell
     absolute magnetization    =     0.05 Bohr mag/cell

     iteration #  2     ecut=   120.00 Ry     beta= 0.70
     Davidson diagonalization with overlap
     ethr =  1.01E-04,  avg # of iterations =  2.0

     negative rho (up, down):  8.830E-01 8.830E-01

     total cpu time spent up to now is      466.0 secs

     total energy              =   -2894.72023852 Ry
     estimated scf accuracy    <       0.05241164 Ry

     total magnetization       =    -0.04 Bohr mag/cell
     absolute magnetization    =     0.04 Bohr mag/cell

     iteration #  3     ecut=   120.00 Ry     beta= 0.70
     Davidson diagonalization with overlap
     ethr =  1.89E-05,  avg # of iterations =  2.0

     negative rho (up, down):  8.821E-01 8.821E-01

     total cpu time spent up to now is      497.7 secs

     total energy              =   -2894.72431897 Ry
     estimated scf accuracy    <       0.01961656 Ry

     total magnetization       =    -0.04 Bohr mag/cell
     absolute magnetization    =     0.04 Bohr mag/cell

     iteration #  4     ecut=   120.00 Ry     beta= 0.70
     Davidson diagonalization with overlap
     ethr =  7.08E-06,  avg # of iterations =  2.0

     negative rho (up, down):  8.821E-01 8.821E-01

     Magnetic moment per site  (integrated on atomic sphere of radius R)
     atom   1 (R=0.118)  charge=  9.1803    0.0000
     atom   2 (R=0.118)  charge=  8.8354   -0.0001
     atom   3 (R=0.118)  charge=  8.8352   -0.0001
     atom   4 (R=0.118)  charge=  8.8267   -0.0001
     atom   5 (R=0.118)  charge=  8.8280   -0.0001
     atom   6 (R=0.118)  charge= 10.1707    0.0000
     atom   7 (R=0.118)  charge= 10.1709   -0.0001
     atom   8 (R=0.010)  charge= -0.0196   -0.0000
     atom   9 (R=0.010)  charge= -0.0114    0.0000
     atom  10 (R=0.010)  charge= -0.0167    0.0000
     atom  11 (R=0.010)  charge= -0.0175    0.0000
     atom  12 (R=0.010)  charge= -0.0173    0.0000
     atom  13 (R=0.010)  charge= -0.0168    0.0000
     atom  14 (R=0.010)  charge= -0.0167    0.0000
     atom  15 (R=0.010)  charge= -0.0175    0.0000
     atom  16 (R=0.010)  charge= -0.0174    0.0000
     atom  17 (R=0.010)  charge= -0.0168    0.0000
     atom  18 (R=0.122)  charge=  9.4423    0.0001
     atom  19 (R=0.122)  charge=  8.9975   -0.0018
     atom  20 (R=0.122)  charge=  8.9915   -0.0001
     atom  21 (R=0.122)  charge=  8.9869   -0.0019
     atom  22 (R=0.122)  charge=  8.9798   -0.0003
     atom  23 (R=0.010)  charge=  0.0160   -0.0000

     total cpu time spent up to now is      525.8 secs

     End of self-consistent calculation

 ------ SPIN UP ------------


          k = 0.0000 0.0000 0.0000 ( 56324 PWs)   bands (ev):

   -64.7174 -59.7899 -59.7798 -59.7512 -59.7447 -59.7348 -59.7122 -59.7020
   -59.6672 -59.6583 -53.4502 -53.3638 -53.3246 -53.2400 -51.7211 -45.3097
   -45.2868 -40.6677 -40.6585 -40.5509 -40.5435 -38.8303 -29.7668 -29.1166
   -29.0052 -26.7878 -26.7795 -26.7059 -26.6929 -26.6008 -26.5918 -26.4914
   -26.4732 -26.4635 -26.3447 -26.3402 -26.3283 -26.2852 -26.2680 -26.2481
   -26.2324 -26.2243 -26.1733 -26.1618 -25.9652 -25.9575 -25.9539 -25.9510
   -25.8934 -25.8931 -25.8638 -25.8578 -23.2288 -23.0100 -22.6980 -22.6094
   -22.3519 -22.2223 -22.1915 -22.0914 -21.9863 -21.8950 -21.8861 -21.6595
   -21.5595 -21.5031 -21.4328 -21.3889 -21.3191 -21.2737 -20.7863 -20.7274
   -20.6582 -19.2186 -18.9356 -18.8752 -18.8383 -18.6510 -18.6422 -18.6135
   -18.5929 -18.5766 -18.5362 -18.3807 -18.3633 -17.1790 -16.9772 -16.8452
     2.3075   3.7857   3.9196   4.0930   4.2187   4.4874   4.5002   4.5839
     4.6710   4.8508   4.9213   5.0572   5.2608   5.4365   5.6161   5.6690
     5.7119   5.9788   6.0246   6.0872   6.2377   6.2488   6.2802   6.3462
     6.4488   6.5213   6.5392   6.6409   6.6926   6.7193   6.7563   6.8951
     6.9151   7.1177   7.1252   7.2399   7.2462   7.3208   7.3363   7.3527
     7.4862   7.5938   7.6909   7.8066   7.9311   7.9448   7.9682   8.0929
     8.1679   8.2264   8.2415   8.2923   8.3943   8.4810   8.4971   8.5764
     8.6008   8.7474   8.8483   9.0315   9.0826   9.0943   9.1581   9.1902
     9.2883   9.3427   9.3494   9.3511   9.4440   9.5575   9.6796   9.7319
     9.8083   9.8871   9.9522  10.0617  10.0790  10.1140  10.2512

 ------ SPIN DOWN ----------


          k = 0.0000 0.0000 0.0000 ( 56324 PWs)   bands (ev):

   -64.7175 -59.7906 -59.7803 -59.7513 -59.7454 -59.7353 -59.7130 -59.7025
   -59.6681 -59.6587 -53.4503 -53.3639 -53.3247 -53.2401 -51.7211 -45.3097
   -45.2867 -40.6694 -40.6587 -40.5525 -40.5436 -38.8302 -29.7670 -29.1167
   -29.0055 -26.7889 -26.7802 -26.7071 -26.6936 -26.6017 -26.5926 -26.4917
   -26.4741 -26.4645 -26.3454 -26.3405 -26.3289 -26.2859 -26.2687 -26.2486
   -26.2333 -26.2248 -26.1743 -26.1623 -25.9663 -25.9582 -25.9547 -25.9522
   -25.8943 -25.8942 -25.8650 -25.8583 -23.2289 -23.0100 -22.6981 -22.6094
   -22.3520 -22.2224 -22.1916 -22.0915 -21.9863 -21.8951 -21.8861 -21.6596
   -21.5595 -21.5031 -21.4330 -21.3890 -21.3192 -21.2738 -20.7863 -20.7274
   -20.6582 -19.2203 -18.9356 -18.8770 -18.8400 -18.6524 -18.6427 -18.6139
   -18.5944 -18.5767 -18.5364 -18.3831 -18.3635 -17.1790 -16.9772 -16.8454
     2.3069   3.7852   3.9183   4.0926   4.2183   4.4870   4.4989   4.5835
     4.6703   4.8504   4.9198   5.0561   5.2604   5.4361   5.6154   5.6679
     5.7111   5.9781   6.0234   6.0864   6.2369   6.2478   6.2795   6.3448
     6.4482   6.5208   6.5390   6.6400   6.6915   6.7185   6.7553   6.8945
     6.9141   7.1166   7.1241   7.2392   7.2455   7.3195   7.3351   7.3521
     7.4855   7.5929   7.6903   7.8055   7.9299   7.9433   7.9657   8.0912
     8.1641   8.2229   8.2406   8.2902   8.3901   8.4776   8.4950   8.5744
     8.5992   8.7464   8.8471   9.0301   9.0806   9.0935   9.1570   9.1889
     9.2858   9.3408   9.3477   9.3496   9.4428   9.5558   9.6785   9.7308
     9.8075   9.8857   9.9508  10.0609  10.0769  10.1131  10.2501

     the Fermi energy is     8.2629 ev

!    total energy              =   -2894.72508427 Ry
     estimated scf accuracy    <       0.00046060 Ry
     smearing contrib. (-TS)   =      -0.10420693 Ry
     internal energy E=F+TS    =   -2894.62087734 Ry

     total magnetization       =    -0.04 Bohr mag/cell
     absolute magnetization    =     0.04 Bohr mag/cell

     convergence has been achieved in   4 iterations

     negative rho (up, down):  8.821E-01 8.821E-01

     Forces acting on atoms (cartesian axes, Ry/au):

     atom    1 type  1   force =     0.01888968   -0.01184035   -0.00939627
     atom    2 type  1   force =    -0.12310490   -0.01408829   -0.00637125
     atom    3 type  1   force =    -0.12059755    0.01054427   -0.00102491
     atom    4 type  1   force =     0.12557494    0.00500743   -0.00601033
     atom    5 type  1   force =     0.12321339   -0.00711142    0.00041308
     atom    6 type  2   force =     0.01612808   -0.00719522    0.01674612
     atom    7 type  2   force =     0.01339332    0.00348433   -0.01748183
     atom    8 type  3   force =    -0.09640970    0.00534488   -0.00449531
     atom    9 type  3   force =   122.20560594  106.45343181   60.00540165
     atom   10 type  3   force =    -0.02611088   -0.03527759   -0.05791883
     atom   11 type  3   force =    -0.02418236   -0.03514180    0.05905889
     atom   12 type  3   force =    -0.01765774    0.03855041   -0.05153959
     atom   13 type  3   force =    -0.01751518    0.02937103    0.06005798
     atom   14 type  3   force =     0.02171555   -0.03140953   -0.05614778
     atom   15 type  3   force =     0.02091095   -0.03524799    0.05872505
     atom   16 type  3   force =     0.01511704    0.03541709   -0.05186822
     atom   17 type  3   force =     0.01553988    0.02860727    0.05915417
     atom   18 type  4   force =     0.01427261    0.01595969   -0.00091680
     atom   19 type  4   force =    -0.13771943   -0.00427701   -0.11498391
     atom   20 type  4   force =    -0.14015652    0.00673391    0.12027826
     atom   21 type  4   force =     0.13909441   -0.00504992   -0.10170961
     atom   22 type  4   force =     0.14163350    0.00581898    0.10694853
     atom   23 type  5   force =  -122.16763504 -106.45163198  -60.00691908
     The non-local contrib.  to forces
     atom    1 type  1   force =    -0.00168406   -0.01133560    0.02918229
     atom    2 type  1   force =    -0.24880875   -0.16631126    0.01319271
     atom    3 type  1   force =    -0.24345214    0.16064285   -0.03002684
     atom    4 type  1   force =     0.24559914   -0.15921578    0.01461438
     atom    5 type  1   force =     0.23999018    0.15570307   -0.02990613
     atom    6 type  2   force =    -0.01071031   -0.06454601   -0.05899078
     atom    7 type  2   force =    -0.01001826    0.08061169    0.05756973
     atom    8 type  3   force =    -0.23866419    0.00492193   -0.00329276
     atom    9 type  3   force =     0.22019053    0.04866460    0.02166260
     atom   10 type  3   force =    -0.21517357    0.00756863   -0.20626662
     atom   11 type  3   force =    -0.22467211    0.01502348    0.19834804
     atom   12 type  3   force =    -0.20264307   -0.02709148   -0.17405660
     atom   13 type  3   force =    -0.21033598   -0.01147975    0.20677602
     atom   14 type  3   force =     0.21970938    0.00207594   -0.20771784
     atom   15 type  3   force =     0.23076476    0.00789538    0.19826136
     atom   16 type  3   force =     0.20793082   -0.02048612   -0.17674914
     atom   17 type  3   force =     0.21702536   -0.00569515    0.20305346
     atom   18 type  4   force =    -0.00906775    0.07165991   -0.05497297
     atom   19 type  4   force =     0.06502134    0.00953220    0.07351026
     atom   20 type  4   force =     0.06049962   -0.01250776   -0.06836978
     atom   21 type  4   force =    -0.06504208    0.00977993    0.07449983
     atom   22 type  4   force =    -0.06204488   -0.01211157   -0.06704140
     atom   23 type  5   force =     0.00089179    0.01783542    0.01287897
     The ionic contribution  to forces
     atom    1 type  1   force =    -0.51508521   -5.11789114   14.83151666
     atom    2 type  1   force =   -35.84258820   -6.32272037    0.78660244
     atom    3 type  1   force =   -35.79744132    6.27711021   -0.70486660
     atom    4 type  1   force =    35.67957241   -6.73456006    0.79571187
     atom    5 type  1   force =    35.65388796    6.58037764   -0.69481983
     atom    6 type  2   force =    -0.60207966   -4.17808402  -14.79544944
     atom    7 type  2   force =    -0.44445741    4.12259780   14.70191684
     atom    8 type  3   force =   -48.32112644    0.11200452   -0.04141783
     atom    9 type  3   force =   170.46976845  107.14690242   60.29513263
     atom   10 type  3   force =   -32.27367559   -2.17565280  -23.54941886
     atom   11 type  3   force =   -31.33661237   -0.91802588   22.54523568
     atom   12 type  3   force =   -31.44871469    0.85974979  -22.58996149
     atom   13 type  3   force =   -32.23672658    2.24424536   23.51633480
     atom   14 type  3   force =    32.18884187   -2.26176251  -23.65298013
     atom   15 type  3   force =    31.25828772   -0.99301884   22.63983654
     atom   16 type  3   force =    31.37228191    0.92926676  -22.67553135
     atom   17 type  3   force =    32.16398351    2.30684405   23.59659630
     atom   18 type  4   force =    -0.46630020    4.92286552  -14.58266296
     atom   19 type  4   force =   -32.33174186    0.96980077  -26.09166363
     atom   20 type  4   force =   -32.28906736   -0.94596192   26.05346126
     atom   21 type  4   force =    32.18833381    0.98432741  -26.49416435
     atom   22 type  4   force =    32.15977083   -0.93056656   26.39515101
     atom   23 type  5   force =  -119.22911158 -106.87784816  -60.28455953
     The local contribution  to forces
     atom    1 type  1   force =     0.53760565    5.11781270  -14.89280048
     atom    2 type  1   force =    35.97406963    6.47538314   -0.82142002
     atom    3 type  1   force =    35.92879526   -6.43098563    0.71621912
     atom    4 type  1   force =   -35.80085504    6.90292183   -0.83257425
     atom    5 type  1   force =   -35.77589624   -6.75073976    0.70853107
     atom    6 type  2   force =     0.63312012    4.23584487   14.87188769
     atom    7 type  2   force =     0.47175837   -4.19707668  -14.80210787
     atom    8 type  3   force =    48.48444805   -0.10982541    0.02404230
     atom    9 type  3   force =   -48.14949626   -0.43482722   -0.15212190
     atom   10 type  3   force =    32.47592385    2.10987349   23.72039195
     atom   11 type  3   force =    31.55619127    0.86048193  -22.70525158
     atom   12 type  3   force =    31.65344190   -0.78084373   22.73685561
     atom   13 type  3   force =    32.45013389   -2.19890273  -23.68310594
     atom   14 type  3   force =   -32.40234002    2.21004215   23.83237196
     atom   15 type  3   force =   -31.48764734    0.94019998  -22.80175407
     atom   16 type  3   force =   -31.58921361   -0.86261310   22.82734359
     atom   17 type  3   force =   -32.38343115   -2.26697821  -23.76179412
     atom   18 type  4   force =     0.49002744   -4.96701924   14.62858586
     atom   19 type  4   force =    32.12823638   -0.97794965   25.92266706
     atom   20 type  4   force =    32.09134829    0.96593534  -25.88293088
     atom   21 type  4   force =   -31.98447898   -0.99540645   26.34174152
     atom   22 type  4   force =   -31.95807004    0.94988784  -26.24364306
     atom   23 type  5   force =    -2.93740292    0.40869568    0.26267946
     The core correction contribution to forces
     atom    1 type  1   force =     0.00022863    0.00229146    0.00041641
     atom    2 type  1   force =    -0.01206684   -0.00167947    0.00050339
     atom    3 type  1   force =    -0.01191551    0.00265302   -0.00148624
     atom    4 type  1   force =     0.01077129   -0.00243000    0.00109828
     atom    5 type  1   force =     0.01121286    0.00319875   -0.00071533
     atom    6 type  2   force =     0.00055217    0.00318108    0.00241889
     atom    7 type  2   force =     0.00046810   -0.00411523   -0.00233271
     atom    8 type  3   force =    -0.02828684   -0.00014473   -0.00018538
     atom    9 type  3   force =    -0.31270841   -0.30332558   -0.17152286
     atom   10 type  3   force =    -0.02134717    0.00911797   -0.01589317
     atom   11 type  3   force =    -0.02358132    0.00987608    0.01734550
     atom   12 type  3   force =    -0.02112243   -0.00982212   -0.01502173
     atom   13 type  3   force =    -0.02146223   -0.00905139    0.01602798
     atom   14 type  3   force =     0.02249984    0.00826930   -0.01661845
     atom   15 type  3   force =     0.02404055    0.00909678    0.01721144
     atom   16 type  3   force =     0.02159781   -0.00829218   -0.01544765
     atom   17 type  3   force =     0.02175766   -0.00743077    0.01633534
     atom   18 type  4   force =     0.00042119   -0.00379852    0.00254129
     atom   19 type  4   force =    -0.01000992    0.00007717   -0.00961918
     atom   20 type  4   force =    -0.00984080    0.00030298    0.00946191
     atom   21 type  4   force =     0.00999013    0.00003005   -0.00930152
     atom   22 type  4   force =     0.00993873    0.00024629    0.00898883
     atom   23 type  5   force =     0.00000000    0.00000000    0.00000000
     The Hubbard contrib.    to forces
     atom    1 type  1   force =     0.00000000    0.00000000    0.00000000
     atom    2 type  1   force =     0.00000000    0.00000000    0.00000000
     atom    3 type  1   force =     0.00000000    0.00000000    0.00000000
     atom    4 type  1   force =     0.00000000    0.00000000    0.00000000
     atom    5 type  1   force =     0.00000000    0.00000000    0.00000000
     atom    6 type  2   force =     0.00000000    0.00000000    0.00000000
     atom    7 type  2   force =     0.00000000    0.00000000    0.00000000
     atom    8 type  3   force =     0.00000000    0.00000000    0.00000000
     atom    9 type  3   force =     0.00000000    0.00000000    0.00000000
     atom   10 type  3   force =     0.00000000    0.00000000    0.00000000
     atom   11 type  3   force =     0.00000000    0.00000000    0.00000000
     atom   12 type  3   force =     0.00000000    0.00000000    0.00000000
     atom   13 type  3   force =     0.00000000    0.00000000    0.00000000
     atom   14 type  3   force =     0.00000000    0.00000000    0.00000000
     atom   15 type  3   force =     0.00000000    0.00000000    0.00000000
     atom   16 type  3   force =     0.00000000    0.00000000    0.00000000
     atom   17 type  3   force =     0.00000000    0.00000000    0.00000000
     atom   18 type  4   force =     0.00000000    0.00000000    0.00000000
     atom   19 type  4   force =     0.00000000    0.00000000    0.00000000
     atom   20 type  4   force =     0.00000000    0.00000000    0.00000000
     atom   21 type  4   force =     0.00000000    0.00000000    0.00000000
     atom   22 type  4   force =     0.00000000    0.00000000    0.00000000
     atom   23 type  5   force =     0.00000000    0.00000000    0.00000000
     The SCF correction term to forces
     atom    1 type  1   force =    -0.00000000   -0.00000000    0.00000000
     atom    2 type  1   force =     0.00000000    0.00000000    0.00000000
     atom    3 type  1   force =     0.00000000    0.00000000    0.00000000
     atom    4 type  1   force =    -0.00000000   -0.00000000    0.00000000
     atom    5 type  1   force =    -0.00000000    0.00000000    0.00000000
     atom    6 type  2   force =    -0.00000000   -0.00000000   -0.00000000
     atom    7 type  2   force =    -0.00000000    0.00000000    0.00000000
     atom    8 type  3   force =     0.00000000   -0.00000000    0.00000000
     atom    9 type  3   force =    -0.00000000   -0.00000000    0.00000000
     atom   10 type  3   force =     0.00837308    0.01379967   -0.00812655
     atom   11 type  3   force =     0.00470364   -0.00251286    0.00198682
     atom   12 type  3   force =     0.00159203   -0.00345749   -0.01074981
     atom   13 type  3   force =     0.00108720    0.00454411    0.00263069
     atom   14 type  3   force =    -0.00678404    0.00995014   -0.01259774
     atom   15 type  3   force =    -0.00432327    0.00056327    0.00377536
     atom   16 type  3   force =     0.00273159   -0.00247372   -0.01287809
     atom   17 type  3   force =    -0.00358403    0.00185191    0.00356875
     atom   18 type  4   force =    -0.00059658   -0.00776343    0.00419754
     atom   19 type  4   force =     0.01098610   -0.00575294   -0.01127286
     atom   20 type  4   force =     0.00711521   -0.00105017    0.00726132
     atom   21 type  4   force =    -0.00949699   -0.00379630   -0.01587951
     atom   22 type  4   force =    -0.00774967   -0.00165247    0.01209872
     atom   23 type  5   force =    -0.00180085   -0.00033037    0.00068760

     Total force =   172.794322     Total SCF correction =     0.045788


     Computing stress (Cartesian axis) and pressure


     negative rho (up, down):  8.821E-01 8.821E-01
          total   stress  (Ry/bohr**3)                   (kbar)     P=      726.65
   0.00715908   0.00573030   0.00323198         1053.14      842.96      475.44
   0.00573030   0.00568013   0.00280435          842.96      835.58      412.53
   0.00323198   0.00280435   0.00197984          475.44      412.53      291.24


     Entering Dynamics:    iteration =     3
                           time      =   0.0006 pico-seconds


ATOMIC_POSITIONS (angstrom)
Hf            2.6699999570        2.8271230292        6.6039642186    0   0   0
Hf            1.2529906802        1.2862841814        5.0584662261    0   0   0
Hf            1.2554868986        7.3898042948        5.0880677674    0   0   0
Hf            4.0870092338        1.2862841814        5.0584662261    0   0   0
Hf            4.0845130154        7.3898042948        5.0880677674    0   0   0
Nb            2.6699999570        2.7969306055        3.5155832167    0   0   0
Nb            2.6699999570        5.8763786763        6.6349979432    0   0   0
Ta            1.2093730560        4.3409278516        5.0711258323    0   0   0
Ta            4.1306268580        4.3409278516        5.0711258323    0   0   0
Ta            1.3072453662        1.3141143482        2.0587638358
Ta            1.3027821643        1.3083820504        8.0945936134
Ta            1.3040044943        7.3758353639        2.0462229880
Ta            1.3077069243        7.3650904869        8.0860174708
Ta            4.0327525123        1.3141157822        2.0587644256
Ta            4.0372165218        1.3083822427        8.0945941410
Ta            4.0359950991        7.3758350092        2.0462235004
Ta            4.0322924996        7.3650911119        8.0860170109
Zr            2.6700048641        5.8662962084        3.5273826501
Zr            1.2437648426        4.3220749892        1.9999401245
Zr            1.2403152731        4.3541257705        8.1498144342
Zr            4.0962338128        4.3220744292        1.9999432584
Zr            4.0996841277        4.3541248219        8.1498121439
H             2.7465173775        3.1383336116        4.3860657328


     kinetic energy (Ekin) =         320.50462376 Ry
     temperature           =     2409698.94092768 K 
     Ekin + Etot (const)   =       -2574.22046050 Ry
     Ions kinetic stress =         6190.72 (kbar)
                                   9287.73        8058.57        4614.18
                                   8058.57        6992.08        4003.53
                                   4614.18        4003.53        2292.34



     Writing config-only to output data dir outdir/pwscf.save/
     NEW-OLD atomic charge density approx. for the potential

     Check: negative core charge=   -0.000002

     negative rho (up, down):  8.932E-01 8.932E-01
     Generating pointlists ...
     new r_m :   0.1082 (alat units)  1.7468 (a.u.) for type    1
     new r_m :   0.0453 (alat units)  0.7313 (a.u.) for type    2

     total cpu time spent up to now is      548.2 secs

     Self-consistent Calculation

     iteration #  1     ecut=   120.00 Ry     beta= 0.70
     Davidson diagonalization with overlap
     c_bands:  2 eigenvalues not converged
     c_bands:  2 eigenvalues not converged
     ethr =  1.00E-06,  avg # of iterations = 20.0

     negative rho (up, down):  9.003E-01 9.003E-01

     total cpu time spent up to now is      597.5 secs

     total energy              =   -2941.61809871 Ry
     estimated scf accuracy    <       2.02915493 Ry

     total magnetization       =    -0.04 Bohr mag/cell
     absolute magnetization    =     0.04 Bohr mag/cell

     iteration #  2     ecut=   120.00 Ry     beta= 0.70
     Davidson diagonalization with overlap
     ethr =  7.33E-04,  avg # of iterations =  3.0

     negative rho (up, down):  9.052E-01 9.052E-01

     total cpu time spent up to now is      624.5 secs

     total energy              =   -2941.92902882 Ry
     estimated scf accuracy    <       0.23464817 Ry

     total magnetization       =    -0.04 Bohr mag/cell
     absolute magnetization    =     0.04 Bohr mag/cell

     iteration #  3     ecut=   120.00 Ry     beta= 0.70
     Davidson diagonalization with overlap
     ethr =  8.47E-05,  avg # of iterations =  2.0

     negative rho (up, down):  9.070E-01 9.070E-01

     total cpu time spent up to now is      657.2 secs

     total energy              =   -2941.95099772 Ry
     estimated scf accuracy    <       0.04394554 Ry

     total magnetization       =    -0.03 Bohr mag/cell
     absolute magnetization    =     0.04 Bohr mag/cell

     iteration #  4     ecut=   120.00 Ry     beta= 0.70
     Davidson diagonalization with overlap
     ethr =  1.59E-05,  avg # of iterations = 15.5

     negative rho (up, down):  9.087E-01 9.087E-01

     total cpu time spent up to now is      689.9 secs

     total energy              =   -2941.95390225 Ry
     estimated scf accuracy    <       0.00346041 Ry

     total magnetization       =    -0.03 Bohr mag/cell
     absolute magnetization    =     0.04 Bohr mag/cell

     iteration #  5     ecut=   120.00 Ry     beta= 0.70
     Davidson diagonalization with overlap
