
     Program PWSCF v.7.2 starts on 15Jun2023 at  4: 9:27 

     This program is part of the open-source Quantum ESPRESSO suite
     for quantum simulation of materials; please cite
         "P. Giannozzi et al., J. Phys.:Condens. Matter 21 395502 (2009);
         "P. Giannozzi et al., J. Phys.:Condens. Matter 29 465901 (2017);
         "P. Giannozzi et al., J. Chem. Phys. 152 154105 (2020);
          URL http://www.quantum-espresso.org", 
     in publications or presentations arising from this work. More details at
     http://www.quantum-espresso.org/quote

     Parallel version (MPI), running on    42 processors

     MPI processes distributed on     1 nodes
     174305 MiB available memory on the printing compute node when the environment starts

     Reading input from md_data/md_Hf5Nb2Ta10Zr5H_20steps_100eV_incident75_polar0.in
Warning: card &CELL ignored
Warning: card / ignored

     Current dimensions of program PWSCF are:
     Max number of different atomic species (ntypx) = 10
     Max number of k-points (npk) =  40000
     Max angular momentum in pseudopotentials (lmaxx) =  4

     gamma-point specific algorithms are used

     R & G space division:  proc/nbgrp/npool/nimage =      42
     Subspace diagonalization in iterative solution of the eigenvalue problem:
     one sub-group per band group will be used
     custom distributed-memory algorithm (size of sub-group:  2*  2 procs)


     Parallelization info
     --------------------
     sticks:   dense  smooth     PW     G-vecs:    dense   smooth      PW
     Min         262     262     63                23470    23470    2920
     Max         265     265     66                23484    23484    2942
     Sum       11057   11057   2753               986005   986005  123175

     Using Slab Decomposition



     bravais-lattice index     =            0
     lattice parameter (alat)  =      17.6500  a.u.
     unit-cell volume          =    5552.8853 (a.u.)^3
     number of atoms/cell      =           23
     number of atomic types    =            5
     number of electrons       =       277.00
     number of Kohn-Sham states=          167
     kinetic-energy cutoff     =     120.0000  Ry
     charge density cutoff     =     480.0000  Ry
     scf convergence threshold =      1.0E-03
     mixing beta               =       0.7000
     number of iterations used =            8  TF        mixing
     energy convergence thresh.=      0.0E+00
     force convergence thresh. =      0.0E+00
     Exchange-correlation=  SLA  PW   PBX  PBC
                           (   1   4   3   4   0   0   0)
     nstep                     =           20


     celldm(1)=  17.650041  celldm(2)=   0.000000  celldm(3)=   0.000000
     celldm(4)=   0.000000  celldm(5)=   0.000000  celldm(6)=   0.000000

     crystal axes: (cart. coord. in units of alat)
               a(1) = (   1.000000   0.000000   0.000000 )  
               a(2) = (   0.000000   0.929336   0.000000 )  
               a(3) = (   0.000000   0.000000   1.086698 )  

     reciprocal axes: (cart. coord. in units 2 pi/alat)
               b(1) = (  1.000000  0.000000  0.000000 )  
               b(2) = (  0.000000  1.076037  0.000000 )  
               b(3) = (  0.000000  0.000000  0.920219 )  


     PseudoPot. # 1 for Hf read from file:
     q-e/pseudo/hf_pbe_v1.uspp.F.UPF
     MD5 check sum: 8ee9378dfe14276e333edf04c5e4aa26
     Pseudo is Ultrasoft + core correction, Zval = 12.0
     Generated by new atomic code, or converted to UPF format
     Using radial grid of  921 points,  8 beta functions with: 
                l(1) =   0
                l(2) =   0
                l(3) =   0
                l(4) =   1
                l(5) =   1
                l(6) =   2
                l(7) =   2
                l(8) =   3
     Q(r) pseudized with  6 coefficients,  rinner =    1.200   1.200   1.200
                                                       1.200   1.200   1.200
                                                       1.200

     PseudoPot. # 2 for Nb read from file:
     q-e/pseudo/nb_pbe_v1.uspp.F.UPF
     MD5 check sum: 573aab8a2fa660278ed4a62cd769473f
     Pseudo is Ultrasoft + core correction, Zval = 13.0
     Generated by new atomic code, or converted to UPF format
     Using radial grid of  887 points,  6 beta functions with: 
                l(1) =   0
                l(2) =   0
                l(3) =   1
                l(4) =   1
                l(5) =   2
                l(6) =   2
     Q(r) pseudized with  6 coefficients,  rinner =    1.000   1.000   1.000
                                                       1.000   1.000

     PseudoPot. # 3 for Ta read from file:
     q-e/pseudo/ta_pbe_v1.uspp.F.UPF
     MD5 check sum: f8bbe9446314a3b8ea5d9f3e3836c939
     Pseudo is Ultrasoft + core correction, Zval = 13.0
     Generated by new atomic code, or converted to UPF format
     Using radial grid of  921 points,  7 beta functions with: 
                l(1) =   0
                l(2) =   0
                l(3) =   1
                l(4) =   1
                l(5) =   2
                l(6) =   2
                l(7) =   3
     Q(r) pseudized with  6 coefficients,  rinner =    1.300   1.300   1.300
                                                       1.300   1.300   1.300
                                                       1.300

     PseudoPot. # 4 for Zr read from file:
     q-e/pseudo/zr_pbe_v1.uspp.F.UPF
     MD5 check sum: 5db81b1e868ab7776c4564c113de050b
     Pseudo is Ultrasoft + core correction, Zval = 12.0
     Generated by new atomic code, or converted to UPF format
     Using radial grid of  887 points,  6 beta functions with: 
                l(1) =   0
                l(2) =   0
                l(3) =   1
                l(4) =   1
                l(5) =   2
                l(6) =   2
     Q(r) pseudized with  6 coefficients,  rinner =    1.200   1.200   1.200
                                                       1.200   1.200

     PseudoPot. # 5 for H  read from file:
     q-e/pseudo/h_pbe_v1.4.uspp.F.UPF
     MD5 check sum: 761ae9a214b05c3daf00ab9f6b793d6f
     Pseudo is Ultrasoft, Zval =  1.0
     Generated by new atomic code, or converted to UPF format
     Using radial grid of  615 points,  2 beta functions with: 
                l(1) =   0
                l(2) =   0
     Q(r) pseudized with  8 coefficients,  rinner =    0.700

     atomic species   valence    mass     pseudopotential
        Hf            12.00   178.49000     Hf( 1.00)
        Nb            13.00    92.90637     Nb( 1.00)
        Ta            13.00   180.94788     Ta( 1.00)
        Zr            12.00    91.22400     Zr( 1.00)
        H              1.00     2.01400     H ( 1.00)

     Starting magnetic structure 
     atomic species   magnetization
        Hf           0.000
        Nb           0.000
        Ta           0.000
        Zr           0.000
        H            0.000

     No symmetry found



   Cartesian axes

     site n.     atom                  positions (alat units)
         1           Hf  tau(   1) = (   0.2858672   0.3026898   0.7070626  )
         2           Hf  tau(   2) = (   0.1341532   0.1377178   0.5415917  )
         3           Hf  tau(   3) = (   0.1344204   0.7911996   0.5447610  )
         4           Hf  tau(   4) = (   0.4375813   0.1377178   0.5415917  )
         5           Hf  tau(   5) = (   0.4373140   0.7911996   0.5447610  )
         6           Nb  tau(   6) = (   0.2858672   0.2994572   0.3764008  )
         7           Nb  tau(   7) = (   0.2858672   0.6291626   0.7103852  )
         8           Ta  tau(   8) = (   0.1294832   0.4647675   0.5429471  )
         9           Ta  tau(   9) = (   0.4422513   0.4647675   0.5429471  )
        10           Ta  tau(  10) = (   0.1399628   0.1406984   0.2204260  )
        11           Ta  tau(  11) = (   0.1394848   0.1400847   0.8666573  )
        12           Ta  tau(  12) = (   0.1396156   0.7897030   0.2190832  )
        13           Ta  tau(  13) = (   0.1400119   0.7885528   0.8657390  )
        14           Ta  tau(  14) = (   0.4317717   0.1406984   0.2204260  )
        15           Ta  tau(  15) = (   0.4322496   0.1400847   0.8666573  )
        16           Ta  tau(  16) = (   0.4321189   0.7897030   0.2190832  )
        17           Ta  tau(  17) = (   0.4317226   0.7885528   0.8657390  )
        18           Zr  tau(  18) = (   0.2858672   0.6280820   0.3776642  )
        19           Zr  tau(  19) = (   0.1331729   0.4627493   0.2141328  )
        20           Zr  tau(  20) = (   0.1328036   0.4661802   0.8725649  )
        21           Zr  tau(  21) = (   0.4385616   0.4627493   0.2141328  )
        22           Zr  tau(  22) = (   0.4389309   0.4661802   0.8725649  )
        23           H   tau(  23) = (   0.4976729   0.6715045   0.5430600  )

     number of k points=     1  Gaussian smearing, width (Ry)=  0.0220
                       cart. coord. in units 2pi/alat
        k(    1) = (   0.0000000   0.0000000   0.0000000), wk =   1.0000000

     Dense  grid:   493003 G-vectors     FFT dimensions: ( 125, 120, 135)

     Estimated max dynamical RAM per process >     133.03 MB

     Estimated total dynamical RAM >       5.46 GB

     Check: negative core charge=   -0.000002
     Generating pointlists ...
     new r_m :   0.0553 (alat units)  0.9761 (a.u.) for type    1
     new r_m :   0.1098 (alat units)  1.9374 (a.u.) for type    2
     new r_m :   0.0883 (alat units)  1.5583 (a.u.) for type    3
     new r_m :   0.1112 (alat units)  1.9625 (a.u.) for type    4
     new r_m :   0.0553 (alat units)  0.9761 (a.u.) for type    5

     Initial potential from superposition of free atoms

     starting charge     266.9726, renormalised to     277.0000

     negative rho (up, down):  9.211E-01 9.211E-01
     Starting wfcs are  287 randomized atomic wfcs

     total cpu time spent up to now is       12.2 secs

     Self-consistent Calculation

     iteration #  1     ecut=   120.00 Ry     beta= 0.70
     Davidson diagonalization with overlap
     ethr =  1.00E-02,  avg # of iterations =  2.0

     negative rho (up, down):  9.927E-01 9.923E-01

     total cpu time spent up to now is       30.0 secs

     total energy              =   -2930.58431981 Ry
     estimated scf accuracy    <     275.85505655 Ry

     total magnetization       =    -0.00 Bohr mag/cell
     absolute magnetization    =     0.09 Bohr mag/cell

     iteration #  2     ecut=   120.00 Ry     beta= 0.70
     Davidson diagonalization with overlap
     ethr =  1.00E-02,  avg # of iterations =  5.0

     negative rho (up, down):  9.673E-01 9.665E-01

     total cpu time spent up to now is       49.1 secs

     total energy              =   -2941.92298597 Ry
     estimated scf accuracy    <      29.81418509 Ry

     total magnetization       =    -0.02 Bohr mag/cell
     absolute magnetization    =     0.11 Bohr mag/cell

     iteration #  3     ecut=   120.00 Ry     beta= 0.70
     Davidson diagonalization with overlap
     ethr =  1.00E-02,  avg # of iterations =  2.0

     negative rho (up, down):  1.001E+00 9.999E-01

     total cpu time spent up to now is       65.3 secs

     total energy              =   -2942.29453221 Ry
     estimated scf accuracy    <      13.12204740 Ry

     total magnetization       =    -0.02 Bohr mag/cell
     absolute magnetization    =     0.11 Bohr mag/cell

     iteration #  4     ecut=   120.00 Ry     beta= 0.70
     Davidson diagonalization with overlap
     ethr =  4.74E-03,  avg # of iterations =  5.0

     negative rho (up, down):  1.003E+00 1.002E+00

     total cpu time spent up to now is       82.1 secs

     total energy              =   -2942.62701708 Ry
     estimated scf accuracy    <       2.93715729 Ry

     total magnetization       =    -0.07 Bohr mag/cell
     absolute magnetization    =     0.19 Bohr mag/cell

     iteration #  5     ecut=   120.00 Ry     beta= 0.70
     Davidson diagonalization with overlap
     ethr =  1.06E-03,  avg # of iterations =  7.0

     negative rho (up, down):  9.797E-01 9.785E-01

     total cpu time spent up to now is      102.0 secs

     total energy              =   -2942.76049617 Ry
     estimated scf accuracy    <       1.26550550 Ry

     total magnetization       =    -0.01 Bohr mag/cell
     absolute magnetization    =     0.12 Bohr mag/cell

     iteration #  6     ecut=   120.00 Ry     beta= 0.70
     Davidson diagonalization with overlap
     ethr =  4.57E-04,  avg # of iterations =  3.0

     negative rho (up, down):  9.705E-01 9.694E-01

     total cpu time spent up to now is      117.7 secs

     total energy              =   -2942.77546172 Ry
     estimated scf accuracy    <       1.10134664 Ry

     total magnetization       =    -0.02 Bohr mag/cell
     absolute magnetization    =     0.09 Bohr mag/cell

     iteration #  7     ecut=   120.00 Ry     beta= 0.70
     Davidson diagonalization with overlap
     ethr =  3.98E-04,  avg # of iterations =  2.0

     negative rho (up, down):  9.411E-01 9.409E-01

     total cpu time spent up to now is      133.6 secs

     total energy              =   -2942.73884484 Ry
     estimated scf accuracy    <       0.30874565 Ry

     total magnetization       =    -0.02 Bohr mag/cell
     absolute magnetization    =     0.08 Bohr mag/cell

     iteration #  8     ecut=   120.00 Ry     beta= 0.70
     Davidson diagonalization with overlap
     ethr =  1.11E-04,  avg # of iterations =  8.0

     negative rho (up, down):  9.201E-01 9.202E-01

     total cpu time spent up to now is      151.5 secs

     total energy              =   -2942.73037887 Ry
     estimated scf accuracy    <       0.28067786 Ry

     total magnetization       =    -0.02 Bohr mag/cell
     absolute magnetization    =     0.06 Bohr mag/cell

     iteration #  9     ecut=   120.00 Ry     beta= 0.70
     Davidson diagonalization with overlap
     ethr =  1.01E-04,  avg # of iterations =  2.0

     negative rho (up, down):  9.088E-01 9.088E-01

     total cpu time spent up to now is      171.8 secs

     total energy              =   -2942.73325608 Ry
     estimated scf accuracy    <       0.07252185 Ry

     total magnetization       =    -0.01 Bohr mag/cell
     absolute magnetization    =     0.05 Bohr mag/cell

     iteration # 10     ecut=   120.00 Ry     beta= 0.70
     Davidson diagonalization with overlap
     ethr =  2.62E-05,  avg # of iterations = 13.5

     negative rho (up, down):  9.070E-01 9.070E-01

     total cpu time spent up to now is      215.7 secs

     total energy              =   -2942.73556940 Ry
     estimated scf accuracy    <       0.04271114 Ry

     total magnetization       =    -0.01 Bohr mag/cell
     absolute magnetization    =     0.04 Bohr mag/cell

     iteration # 11     ecut=   120.00 Ry     beta= 0.70
     Davidson diagonalization with overlap
     ethr =  1.54E-05,  avg # of iterations =  2.0

     negative rho (up, down):  9.080E-01 9.080E-01

     total cpu time spent up to now is      247.4 secs

     total energy              =   -2942.73935278 Ry
     estimated scf accuracy    <       0.01183771 Ry

     total magnetization       =    -0.01 Bohr mag/cell
     absolute magnetization    =     0.03 Bohr mag/cell

     iteration # 12     ecut=   120.00 Ry     beta= 0.70
     Davidson diagonalization with overlap
     ethr =  4.27E-06,  avg # of iterations =  7.5

     negative rho (up, down):  9.081E-01 9.081E-01

     total cpu time spent up to now is      266.0 secs

     total energy              =   -2942.74252292 Ry
     estimated scf accuracy    <       0.00209314 Ry

     total magnetization       =    -0.01 Bohr mag/cell
     absolute magnetization    =     0.03 Bohr mag/cell

     iteration # 13     ecut=   120.00 Ry     beta= 0.70
     Davidson diagonalization with overlap
     ethr =  7.56E-07,  avg # of iterations =  5.0

     negative rho (up, down):  9.078E-01 9.078E-01

     Magnetic moment per site  (integrated on atomic sphere of radius R)
     atom   1 (R=0.055)  charge=  2.8629  magn=  0.0000
     atom   2 (R=0.055)  charge=  2.8460  magn= -0.0000
     atom   3 (R=0.055)  charge=  2.8453  magn=  0.0000
     atom   4 (R=0.055)  charge=  2.8470  magn= -0.0000
     atom   5 (R=0.055)  charge=  2.8630  magn= -0.0000
     atom   6 (R=0.110)  charge= 10.3436  magn= -0.0003
     atom   7 (R=0.110)  charge= 10.3481  magn= -0.0001
     atom   8 (R=0.088)  charge=  8.1217  magn=  0.0000
     atom   9 (R=0.088)  charge=  8.1184  magn=  0.0002
     atom  10 (R=0.088)  charge=  8.1018  magn= -0.0001
     atom  11 (R=0.088)  charge=  8.0980  magn= -0.0008
     atom  12 (R=0.088)  charge=  8.1012  magn= -0.0003
     atom  13 (R=0.088)  charge=  8.1020  magn= -0.0001
     atom  14 (R=0.088)  charge=  8.1021  magn= -0.0003
     atom  15 (R=0.088)  charge=  8.0979  magn= -0.0004
     atom  16 (R=0.088)  charge=  8.1038  magn= -0.0006
     atom  17 (R=0.088)  charge=  8.1015  magn= -0.0003
     atom  18 (R=0.111)  charge=  9.4520  magn= -0.0000
     atom  19 (R=0.111)  charge=  9.0008  magn=  0.0002
     atom  20 (R=0.111)  charge=  8.9923  magn=  0.0003
     atom  21 (R=0.111)  charge=  9.0060  magn=  0.0001
     atom  22 (R=0.111)  charge=  8.9943  magn=  0.0003
     atom  23 (R=0.055)  charge=  0.8274  magn= -0.0000

     total cpu time spent up to now is      284.0 secs

     End of self-consistent calculation

 ------ SPIN UP ------------


          k = 0.0000 0.0000 0.0000 ( 61588 PWs)   bands (ev):

   -60.7790 -60.7747 -60.7334 -60.7312 -60.7002 -60.6813 -60.6572 -60.6375
   -60.5822 -60.5531 -54.3879 -54.3452 -54.2522 -53.8434 -52.6875 -46.2860
   -46.2489 -41.6527 -41.6283 -41.5524 -41.5452 -39.8274 -27.7803 -27.7715
   -27.6944 -27.6827 -27.6003 -27.5836 -27.4721 -27.4616 -27.4432 -27.3309
   -27.3161 -27.2652 -27.2618 -27.2497 -27.2172 -27.1990 -27.1858 -27.1611
   -27.1494 -27.1337 -27.1089 -27.0794 -26.9553 -26.9523 -26.9407 -26.9363
   -26.8834 -26.8785 -26.8540 -26.8413 -24.2483 -24.0584 -23.6804 -23.5489
   -23.3074 -23.1739 -23.1125 -23.0477 -22.9246 -22.9197 -22.7252 -22.5713
   -22.5100 -22.4506 -22.3856 -22.3128 -22.2629 -22.1294 -21.7462 -21.6909
   -21.6172 -20.2140 -19.9293 -19.8552 -19.8544 -19.6195 -19.6080 -19.6036
   -19.5905 -19.5752 -19.5365 -19.3862 -19.3561 -18.1770 -17.9768 -17.8265
     0.8704   2.0013   2.9353   3.1362   3.3526   3.4481   3.5308   3.5680
     3.6726   3.9023   3.9157   4.1276   4.1944   4.4805   4.5073   4.6954
     4.7378   4.9590   5.0279   5.1139   5.1752   5.2694   5.2882   5.3458
     5.4083   5.5330   5.5628   5.7032   5.7321   5.7393   5.7661   5.8985
     6.0376   6.0673   6.1876   6.1989   6.2405   6.2970   6.3633   6.3983
     6.5092   6.5967   6.6498   6.7104   6.7947   6.9908   7.0270   7.0742
     7.1139   7.1346   7.2773   7.3121   7.3302   7.4551   7.5431   7.5596
     7.6183   7.7909   7.8715   7.9062   8.0679   8.0919   8.1159   8.2214
     8.2423   8.2536   8.3633   8.3776   8.4048   8.5301   8.6584   8.7033
     8.8611   8.9124   9.0193   9.0800   9.0880   9.2047   9.2498

 ------ SPIN DOWN ----------


          k = 0.0000 0.0000 0.0000 ( 61588 PWs)   bands (ev):

   -60.7792 -60.7751 -60.7337 -60.7316 -60.7005 -60.6819 -60.6575 -60.6381
   -60.5820 -60.5528 -54.3879 -54.3452 -54.2522 -53.8434 -52.6874 -46.2860
   -46.2495 -41.6526 -41.6279 -41.5523 -41.5449 -39.8275 -27.7808 -27.7721
   -27.6949 -27.6833 -27.6007 -27.5840 -27.4724 -27.4619 -27.4437 -27.3312
   -27.3164 -27.2655 -27.2622 -27.2499 -27.2177 -27.1988 -27.1860 -27.1615
   -27.1493 -27.1342 -27.1088 -27.0790 -26.9557 -26.9528 -26.9413 -26.9368
   -26.8839 -26.8793 -26.8545 -26.8420 -24.2484 -24.0585 -23.6805 -23.5489
   -23.3075 -23.1741 -23.1126 -23.0477 -22.9246 -22.9198 -22.7252 -22.5715
   -22.5102 -22.4509 -22.3857 -22.3132 -22.2633 -22.1295 -21.7460 -21.6907
   -21.6172 -20.2139 -19.9287 -19.8549 -19.8542 -19.6196 -19.6078 -19.6034
   -19.5904 -19.5748 -19.5361 -19.3861 -19.3556 -18.1772 -17.9769 -17.8267
     0.8705   2.0011   2.9347   3.1360   3.3524   3.4476   3.5306   3.5679
     3.6725   3.9021   3.9150   4.1274   4.1943   4.4805   4.5071   4.6951
     4.7375   4.9586   5.0274   5.1136   5.1750   5.2690   5.2881   5.3455
     5.4079   5.5329   5.5626   5.7032   5.7318   5.7391   5.7660   5.8982
     6.0373   6.0670   6.1873   6.1987   6.2402   6.2968   6.3632   6.3980
     6.5090   6.5966   6.6494   6.7100   6.7945   6.9904   7.0265   7.0738
     7.1128   7.1338   7.2760   7.3111   7.3294   7.4547   7.5424   7.5599
     7.6176   7.7904   7.8713   7.9059   8.0675   8.0911   8.1156   8.2206
     8.2419   8.2534   8.3624   8.3771   8.4047   8.5303   8.6581   8.7033
     8.8612   8.9112   9.0191   9.0800   9.0875   9.2044   9.2495

     the Fermi energy is     7.2484 ev

!    total energy              =   -2942.74362993 Ry
     estimated scf accuracy    <       0.00061312 Ry
     smearing contrib. (-TS)   =      -0.10067391 Ry
     internal energy E=F+TS    =   -2942.64295601 Ry

     total magnetization       =    -0.01 Bohr mag/cell
     absolute magnetization    =     0.02 Bohr mag/cell

     convergence has been achieved in  13 iterations

     negative rho (up, down):  9.078E-01 9.078E-01

     Forces acting on atoms (cartesian axes, Ry/au):

     atom    1 type  1   force =    -0.00277943   -0.02753841   -0.00173358
     atom    2 type  1   force =    -0.12753954   -0.00894560   -0.00558343
     atom    3 type  1   force =    -0.11788469    0.00893695    0.00262686
     atom    4 type  1   force =     0.13029024   -0.02046020   -0.00677564
     atom    5 type  1   force =    -0.19577969    0.64336477    0.01753175
     atom    6 type  2   force =     0.00260804   -0.01520940    0.02220906
     atom    7 type  2   force =    -0.01787329    0.00726237   -0.00614348
     atom    8 type  3   force =    -0.10684072    0.00285561   -0.00532486
     atom    9 type  3   force =     0.10650854    0.04803316   -0.00873513
     atom   10 type  3   force =    -0.02691485   -0.02905036   -0.05883871
     atom   11 type  3   force =    -0.02478992   -0.03553473    0.05780105
     atom   12 type  3   force =    -0.01178787    0.03550545   -0.05735807
     atom   13 type  3   force =    -0.01380626    0.03027725    0.06280976
     atom   14 type  3   force =     0.01906299   -0.03461032   -0.06446657
     atom   15 type  3   force =     0.01839676   -0.04036796    0.06247659
     atom   16 type  3   force =     0.01633794    0.04511088   -0.05640077
     atom   17 type  3   force =     0.01603731    0.03969607    0.06232580
     atom   18 type  4   force =    -0.01618715    0.01481181   -0.00857044
     atom   19 type  4   force =    -0.12245042   -0.00701829   -0.11576178
     atom   20 type  4   force =    -0.12804880    0.00489821    0.11742615
     atom   21 type  4   force =     0.11941832   -0.00306527   -0.11701550
     atom   22 type  4   force =     0.12653290    0.00717266    0.12031458
     atom   23 type  5   force =     0.35748957   -0.66612465   -0.01281363
     The non-local contrib.  to forces
     atom    1 type  1   force =    -0.00698662   -0.01159578    0.02789577
     atom    2 type  1   force =    -0.24519230   -0.16321721    0.01412376
     atom    3 type  1   force =    -0.22373198    0.16146925   -0.02687942
     atom    4 type  1   force =     0.24491036   -0.22141054    0.01346445
     atom    5 type  1   force =     0.27999798    0.01762450   -0.02535810
     atom    6 type  2   force =     0.00539314   -0.04250603   -0.07160943
     atom    7 type  2   force =     0.00009750    0.05423789    0.06622236
     atom    8 type  3   force =    -0.25749118    0.00693580   -0.00824907
     atom    9 type  3   force =     0.23155772    0.07412185   -0.01275468
     atom   10 type  3   force =    -0.21858774    0.01004510   -0.20712944
     atom   11 type  3   force =    -0.22695939    0.00966480    0.19985829
     atom   12 type  3   force =    -0.19920729   -0.02664750   -0.18030067
     atom   13 type  3   force =    -0.20607580   -0.01030559    0.20931847
     atom   14 type  3   force =     0.21613198    0.00590426   -0.21180317
     atom   15 type  3   force =     0.22477111    0.00758846    0.20061491
     atom   16 type  3   force =     0.20843379   -0.01936811   -0.17427522
     atom   17 type  3   force =     0.21226978   -0.00280003    0.20565768
     atom   18 type  4   force =     0.00132424    0.04511595   -0.07438731
     atom   19 type  4   force =     0.05852960    0.00571217    0.07320537
     atom   20 type  4   force =     0.05523705   -0.01468758   -0.06807207
     atom   21 type  4   force =    -0.06455539    0.01432830    0.06801525
     atom   22 type  4   force =    -0.05828094   -0.00986980   -0.05839293
     atom   23 type  5   force =    -0.06389692    0.09157003   -0.00046788
     The ionic contribution  to forces
     atom    1 type  1   force =    -0.15183538   -4.70290880   14.08754532
     atom    2 type  1   force =   -39.76873304   -6.05119775    0.77956478
     atom    3 type  1   force =   -39.97332288    6.23970586   -0.71218721
     atom    4 type  1   force =    39.58006401   -5.88953230    0.77845846
     atom    5 type  1   force =    37.71646470    9.87332434   -0.66043374
     atom    6 type  2   force =    -0.16123622   -3.66381830  -13.99031155
     atom    7 type  2   force =    -0.79213766    3.39791162   14.52746969
     atom    8 type  3   force =   -52.33158457   -0.10504210   -0.06499728
     atom    9 type  3   force =    51.61631347   -1.58062218   -0.06581536
     atom   10 type  3   force =   -36.10526154   -2.04838780  -23.11452537
     atom   11 type  3   force =   -35.17935331   -0.80135187   22.11874824
     atom   12 type  3   force =   -35.35709191    0.84236906  -22.24258516
     atom   13 type  3   force =   -36.14844192    2.22629776   23.17297774
     atom   14 type  3   force =    35.99835661   -2.00660565  -23.19163876
     atom   15 type  3   force =    35.07311647   -0.75937237   22.19592752
     atom   16 type  3   force =    35.10914673    0.97363771  -22.59992384
     atom   17 type  3   force =    35.89673870    2.35851028   23.53515001
     atom   18 type  4   force =    -0.73997833    4.17999773  -14.41117406
     atom   19 type  4   force =   -35.97186484    0.88799773  -25.59936487
     atom   20 type  4   force =   -35.95546355   -1.02230449   25.57811473
     atom   21 type  4   force =    35.81194034    0.75859488  -25.80799232
     atom   22 type  4   force =    35.79482895   -1.15189306   25.79034750
     atom   23 type  5   force =     6.03933518   -1.95531030   -0.10335450
     The local contribution  to forces
     atom    1 type  1   force =     0.15477972    4.68608858  -14.12392691
     atom    2 type  1   force =    39.90094890    6.20283775   -0.80553201
     atom    3 type  1   force =    40.09084559   -6.39575756    0.74106072
     atom    4 type  1   force =   -39.71223848    6.09307967   -0.80567002
     atom    5 type  1   force =   -38.21546031   -9.22518003    0.70014558
     atom    6 type  2   force =     0.15924009    3.70084110   14.06088341
     atom    7 type  2   force =     0.77214791   -3.43725902  -14.60000723
     atom    8 type  3   force =    52.50638610    0.10203133    0.05636687
     atom    9 type  3   force =   -51.75858967    1.55661332    0.05525497
     atom   10 type  3   force =    36.31680843    2.00824134   23.27973295
     atom   11 type  3   force =    35.40561355    0.74299481  -22.27919568
     atom   12 type  3   force =    35.56685962   -0.77386235   22.37833399
     atom   13 type  3   force =    36.36413658   -2.17871694  -23.33487890
     atom   14 type  3   force =   -36.21253501    1.96349183   23.35576902
     atom   15 type  3   force =   -35.30412487    0.69737068  -22.35117477
     atom   16 type  3   force =   -35.31826290   -0.90912958   22.72921619
     atom   17 type  3   force =   -36.11679314   -2.31233391  -23.69148871
     atom   18 type  4   force =     0.72647753   -4.21784343   14.45607029
     atom   19 type  4   force =    35.80489336   -0.90324814   25.42146525
     atom   20 type  4   force =    35.77593051    1.04554074  -25.40040038
     atom   21 type  4   force =   -35.63785889   -0.77373023   25.63372477
     atom   22 type  4   force =   -35.61372299    1.17404290  -25.61704146
     atom   23 type  5   force =    -5.61778608    1.19728652    0.08962532
     The core correction contribution to forces
     atom    1 type  1   force =    -0.00081491    0.00077724   -0.00095699
     atom    2 type  1   force =    -0.01044071   -0.00031291    0.00097187
     atom    3 type  1   force =    -0.00762831    0.00577552   -0.00155320
     atom    4 type  1   force =     0.01306895   -0.00689584    0.00045097
     atom    5 type  1   force =     0.01943081   -0.01947781   -0.00126950
     atom    6 type  2   force =    -0.00038728    0.00211866    0.00299366
     atom    7 type  2   force =     0.00005988   -0.00276870   -0.00270190
     atom    8 type  3   force =    -0.03062779   -0.00022326   -0.00036114
     atom    9 type  3   force =     0.02416739   -0.00132422   -0.00101179
     atom   10 type  3   force =    -0.02355661    0.00943932   -0.01728141
     atom   11 type  3   force =    -0.02527869    0.00954094    0.01834439
     atom   12 type  3   force =    -0.02168392   -0.01122334   -0.01554173
     atom   13 type  3   force =    -0.02167441   -0.01031752    0.01675585
     atom   14 type  3   force =     0.02204952    0.00906824   -0.01806750
     atom   15 type  3   force =     0.02383239    0.00978761    0.01826882
     atom   16 type  3   force =     0.02247235   -0.00956915   -0.01408669
     atom   17 type  3   force =     0.02217311   -0.00858733    0.01529736
     atom   18 type  4   force =     0.00005409   -0.00259296    0.00368228
     atom   19 type  4   force =    -0.00956564    0.00019047   -0.00958769
     atom   20 type  4   force =    -0.00954256    0.00043624    0.00941312
     atom   21 type  4   force =     0.00996710   -0.00016188   -0.00919579
     atom   22 type  4   force =     0.00975026    0.00020354    0.00873524
     atom   23 type  5   force =     0.00000000    0.00000000    0.00000000
     The Hubbard contrib.    to forces
     atom    1 type  1   force =     0.00000000    0.00000000    0.00000000
     atom    2 type  1   force =     0.00000000    0.00000000    0.00000000
     atom    3 type  1   force =     0.00000000    0.00000000    0.00000000
     atom    4 type  1   force =     0.00000000    0.00000000    0.00000000
     atom    5 type  1   force =     0.00000000    0.00000000    0.00000000
     atom    6 type  2   force =     0.00000000    0.00000000    0.00000000
     atom    7 type  2   force =     0.00000000    0.00000000    0.00000000
     atom    8 type  3   force =     0.00000000    0.00000000    0.00000000
     atom    9 type  3   force =     0.00000000    0.00000000    0.00000000
     atom   10 type  3   force =     0.00000000    0.00000000    0.00000000
     atom   11 type  3   force =     0.00000000    0.00000000    0.00000000
     atom   12 type  3   force =     0.00000000    0.00000000    0.00000000
     atom   13 type  3   force =     0.00000000    0.00000000    0.00000000
     atom   14 type  3   force =     0.00000000    0.00000000    0.00000000
     atom   15 type  3   force =     0.00000000    0.00000000    0.00000000
     atom   16 type  3   force =     0.00000000    0.00000000    0.00000000
     atom   17 type  3   force =     0.00000000    0.00000000    0.00000000
     atom   18 type  4   force =     0.00000000    0.00000000    0.00000000
     atom   19 type  4   force =     0.00000000    0.00000000    0.00000000
     atom   20 type  4   force =     0.00000000    0.00000000    0.00000000
     atom   21 type  4   force =     0.00000000    0.00000000    0.00000000
     atom   22 type  4   force =     0.00000000    0.00000000    0.00000000
     atom   23 type  5   force =     0.00000000    0.00000000    0.00000000
     The SCF correction term to forces
     atom    1 type  1   force =     0.00221120    0.00000284    0.00706147
     atom    2 type  1   force =    -0.00398895    0.00284701    0.00464041
     atom    3 type  1   force =    -0.00391367   -0.00235364    0.00153822
     atom    4 type  1   force =     0.00461885    0.00420128    0.00587274
     atom    5 type  1   force =     0.00392057   -0.00302374    0.00379975
     atom    6 type  2   force =    -0.00026826   -0.01194235    0.01960522
     atom    7 type  2   force =     0.00209253   -0.00495694    0.00222585
     atom    8 type  3   force =     0.00661017   -0.00094368    0.01126800
     atom    9 type  3   force =    -0.00680692   -0.00085313    0.01494396
     atom   10 type  3   force =     0.00381605   -0.00848583   -0.00028321
     atom   11 type  3   force =     0.00132136    0.00351908   -0.00060194
     atom   12 type  3   force =    -0.00053094    0.00477206    0.00208774
     atom   13 type  3   force =    -0.00161725    0.00322203   -0.00201115
     atom   14 type  3   force =    -0.00480666   -0.00656652    0.00062607
     atom   15 type  3   force =     0.00093509    0.00416014   -0.00180765
     atom   16 type  3   force =    -0.00531859    0.00944249    0.00202103
     atom   17 type  3   force =     0.00178231    0.00480954   -0.00293830
     atom   18 type  4   force =    -0.00393123    0.01003701    0.01659061
     atom   19 type  4   force =    -0.00430947    0.00223196   -0.00212762
     atom   20 type  4   force =     0.00592320   -0.00418421   -0.00227702
     atom   21 type  4   force =     0.00005860   -0.00219384   -0.00221517
     atom   22 type  4   force =    -0.00590894   -0.00540844   -0.00398154
     atom   23 type  5   force =    -0.00002917    0.00023157    0.00073566

     Total force =     1.122328     Total SCF correction =     0.046868


     Computing stress (Cartesian axis) and pressure


     negative rho (up, down):  9.078E-01 9.078E-01
          total   stress  (Ry/bohr**3)                   (kbar)     P=      100.32
   0.00072791  -0.00011992  -0.00000194          107.08      -17.64       -0.29
  -0.00011992   0.00091479  -0.00001084          -17.64      134.57       -1.59
  -0.00000194  -0.00001084   0.00040318           -0.29       -1.59       59.31


     Molecular Dynamics Calculation

     Starting temperature  =   300.00 K

     temperature is set once at start

     mass Hf               =   178.49
     mass Nb               =    92.91
     mass Ta               =   180.95
     mass Zr               =    91.22
     mass H                =     2.01
     Time step             =     4.20 a.u.,  0.2032 femto-seconds

     Entering Dynamics:    iteration =     1
                           time      =   0.0002 pico-seconds


ATOMIC_POSITIONS (angstrom)
Hf            2.6700324132        2.8272436604        6.6039641689
Hf            1.2530195571        1.2864053460        5.0584660659
Hf            1.2555160525        7.3899259724        5.0880678428
Hf            4.0870455077        1.2864050156        5.0584660317
Hf            4.0845399345        7.3899441740        5.0880682704
Nb            2.6700326367        2.7970511884        3.5155844408
Nb            2.6700315078        5.8765004978        6.6349976046
Ta            1.2094025684        4.3410493536        5.0711256816
Ta            4.1306624082        4.3410506322        5.0711255851
Ta            1.3072844584        1.3142431885        2.0587774450
Ta            1.3028201486        1.3085115516        8.0945808382
Ta            1.3040418245        7.3759485501        2.0462355566
Ta            1.3077429436        7.3652052265        8.0860039983
Ta            4.0327803053        1.3142430311        2.0587772857
Ta            4.0372446564        1.3085114148        8.0945809705
Ta            4.0360232902        7.3759488220        2.0462355837
Ta            4.0323221054        7.3652054930        8.0860039846
Zr            2.6700315843        5.8664080961        3.5273834493
Zr            1.2438602813        4.3221989918        1.9999935018
Zr            1.2404107607        4.3542449807        8.1497621410
Zr            4.0962045345        4.3221992137        1.9999934314
Zr            4.0996541401        4.3542451084        8.1497623031
H             4.5951541645        6.0685612079        5.0721472147


     kinetic energy (Ekin) =           8.09844668 Ry
     temperature           =       38746.77579344 K 
     Ekin + Etot (const)   =       -2934.64518324 Ry
     Ions kinetic stress =          143.03 (kbar)
                                     28.75         107.27           0.00
                                    107.27         400.34           0.00
                                      0.00           0.00           0.00



     Linear momentum :    0.0000000000    0.0000000000    0.0000000000

     File outdir/pwscf.msd.dat deleted, as requested

     Writing config-only to output data dir outdir/pwscf.save/
     NEW-OLD atomic charge density approx. for the potential

     Check: negative core charge=   -0.000002

     negative rho (up, down):  9.080E-01 9.080E-01
     Generating pointlists ...
     new r_m :   0.0790 (alat units)  1.3944 (a.u.) for type    3
     new r_m :   0.1094 (alat units)  1.9305 (a.u.) for type    4

     total cpu time spent up to now is      308.7 secs

     Self-consistent Calculation

     iteration #  1     ecut=   120.00 Ry     beta= 0.70
     Davidson diagonalization with overlap
     ethr =  1.00E-06,  avg # of iterations = 19.0

     negative rho (up, down):  9.084E-01 9.084E-01

     total cpu time spent up to now is      366.8 secs

     total energy              =   -2942.89419508 Ry
     estimated scf accuracy    <       0.10423681 Ry

     total magnetization       =    -0.01 Bohr mag/cell
     absolute magnetization    =     0.02 Bohr mag/cell

     iteration #  2     ecut=   120.00 Ry     beta= 0.70
     Davidson diagonalization with overlap
     ethr =  3.76E-05,  avg # of iterations =  2.0

     negative rho (up, down):  9.084E-01 9.084E-01

     total cpu time spent up to now is      403.5 secs

     total energy              =   -2942.90327632 Ry
     estimated scf accuracy    <       0.03741667 Ry

     total magnetization       =    -0.01 Bohr mag/cell
     absolute magnetization    =     0.01 Bohr mag/cell

     iteration #  3     ecut=   120.00 Ry     beta= 0.70
     Davidson diagonalization with overlap
     ethr =  1.35E-05,  avg # of iterations =  1.0

     negative rho (up, down):  9.084E-01 9.084E-01

     total cpu time spent up to now is      418.9 secs

     total energy              =   -2942.90546333 Ry
     estimated scf accuracy    <       0.00379935 Ry

     total magnetization       =    -0.01 Bohr mag/cell
     absolute magnetization    =     0.01 Bohr mag/cell

     iteration #  4     ecut=   120.00 Ry     beta= 0.70
     Davidson diagonalization with overlap
     c_bands:  1 eigenvalues not converged
     c_bands:  1 eigenvalues not converged
     ethr =  1.37E-06,  avg # of iterations = 20.0

     negative rho (up, down):  9.086E-01 9.086E-01

     Magnetic moment per site  (integrated on atomic sphere of radius R)
     atom   1 (R=0.055)  charge=  2.8629  magn=  0.0000
     atom   2 (R=0.055)  charge=  2.8455  magn= -0.0000
     atom   3 (R=0.055)  charge=  2.8448  magn= -0.0000
     atom   4 (R=0.055)  charge=  2.8467  magn=  0.0000
     atom   5 (R=0.055)  charge=  2.8590  magn=  0.0000
     atom   6 (R=0.110)  charge= 10.3478  magn= -0.0001
     atom   7 (R=0.110)  charge= 10.3466  magn= -0.0001
     atom   8 (R=0.079)  charge=  7.1000  magn= -0.0000
     atom   9 (R=0.079)  charge=  7.1111  magn= -0.0000
     atom  10 (R=0.079)  charge=  7.0862  magn= -0.0001
     atom  11 (R=0.079)  charge=  7.0844  magn= -0.0003
     atom  12 (R=0.079)  charge=  7.0876  magn= -0.0001
     atom  13 (R=0.079)  charge=  7.0847  magn= -0.0000
     atom  14 (R=0.079)  charge=  7.0874  magn= -0.0001
     atom  15 (R=0.079)  charge=  7.0858  magn= -0.0002
     atom  16 (R=0.079)  charge=  7.0870  magn= -0.0003
     atom  17 (R=0.079)  charge=  7.0837  magn= -0.0002
     atom  18 (R=0.109)  charge=  9.3157  magn= -0.0000
     atom  19 (R=0.109)  charge=  8.8852  magn= -0.0000
     atom  20 (R=0.109)  charge=  8.8878  magn=  0.0000
     atom  21 (R=0.109)  charge=  8.8850  magn= -0.0002
     atom  22 (R=0.109)  charge=  8.8878  magn=  0.0000
     atom  23 (R=0.055)  charge=  0.7255  magn= -0.0000

     total cpu time spent up to now is      436.8 secs

     End of self-consistent calculation

 ------ SPIN UP ------------


          k = 0.0000 0.0000 0.0000 ( 61588 PWs)   bands (ev):

   -60.7556 -60.7521 -60.7104 -60.7070 -60.6837 -60.6650 -60.6391 -60.6206
   -60.5533 -60.4857 -54.3532 -54.2861 -54.2215 -53.9507 -52.6686 -46.2783
   -46.2528 -41.6193 -41.6162 -41.5358 -41.5153 -39.8384 -27.7637 -27.7524
   -27.6786 -27.6634 -27.5743 -27.5615 -27.4502 -27.4359 -27.4163 -27.3088
   -27.2936 -27.2413 -27.2367 -27.2331 -27.2015 -27.1753 -27.1653 -27.1420
   -27.1174 -27.1149 -27.0709 -27.0327 -26.9332 -26.9298 -26.9235 -26.9188
   -26.8657 -26.8600 -26.8362 -26.8232 -24.1687 -23.9785 -23.6359 -23.5266
   -23.2790 -23.1457 -23.0767 -22.9851 -22.9123 -22.8583 -22.7299 -22.5839
   -22.5136 -22.4523 -22.3717 -22.3041 -22.2577 -22.1982 -21.7307 -21.6716
   -21.6014 -20.1812 -19.9189 -19.8252 -19.8197 -19.6007 -19.5891 -19.5857
   -19.5728 -19.5600 -19.5243 -19.3471 -19.3442 -18.1862 -17.9852 -17.8297
     0.4305   1.8903   2.9499   3.1509   3.3670   3.4649   3.5448   3.5972
     3.6788   3.9037   3.9283   4.1427   4.2235   4.4886   4.5512   4.7067
     4.7542   4.9541   5.0355   5.1279   5.2038   5.2792   5.3023   5.3817
     5.4035   5.5411   5.5741   5.7037   5.7482   5.7595   5.7823   5.9086
     6.0591   6.0911   6.2031   6.2321   6.2721   6.3228   6.3695   6.3907
     6.5258   6.6086   6.6597   6.7239   6.8065   7.0087   7.0346   7.1061
     7.1327   7.1448   7.2897   7.3278   7.3512   7.4738   7.5564   7.5747
     7.6351   7.8371   7.8848   7.9115   8.0745   8.1100   8.1299   8.2298
     8.2531   8.2677   8.3774   8.3962   8.4380   8.5462   8.6742   8.7080
     8.8725   8.9229   9.0168   9.0601   9.0979   9.2103   9.2485

 ------ SPIN DOWN ----------


          k = 0.0000 0.0000 0.0000 ( 61588 PWs)   bands (ev):

   -60.7558 -60.7524 -60.7106 -60.7072 -60.6839 -60.6654 -60.6394 -60.6210
   -60.5533 -60.4857 -54.3532 -54.2861 -54.2215 -53.9507 -52.6686 -46.2784
   -46.2529 -41.6192 -41.6163 -41.5357 -41.5154 -39.8384 -27.7641 -27.7529
   -27.6790 -27.6639 -27.5746 -27.5618 -27.4505 -27.4363 -27.4165 -27.3090
   -27.2938 -27.2416 -27.2370 -27.2332 -27.2018 -27.1754 -27.1655 -27.1423
   -27.1175 -27.1152 -27.0709 -27.0326 -26.9335 -26.9302 -26.9239 -26.9192
   -26.8660 -26.8605 -26.8365 -26.8236 -24.1687 -23.9785 -23.6359 -23.5266
   -23.2791 -23.1457 -23.0767 -22.9852 -22.9124 -22.8583 -22.7299 -22.5839
   -22.5137 -22.4523 -22.3718 -22.3042 -22.2578 -22.1982 -21.7307 -21.6716
   -21.6014 -20.1812 -19.9187 -19.8253 -19.8197 -19.6007 -19.5891 -19.5858
   -19.5728 -19.5600 -19.5243 -19.3472 -19.3441 -18.1863 -17.9852 -17.8298
     0.4305   1.8900   2.9495   3.1507   3.3667   3.4645   3.5446   3.5971
     3.6787   3.9036   3.9278   4.1425   4.2233   4.4885   4.5510   4.7064
     4.7539   4.9538   5.0351   5.1277   5.2037   5.2789   5.3021   5.3813
     5.4033   5.5410   5.5740   5.7036   5.7480   5.7593   5.7822   5.9084
     6.0588   6.0907   6.2029   6.2319   6.2719   6.3226   6.3694   6.3904
     6.5255   6.6085   6.6594   6.7236   6.8063   7.0082   7.0340   7.1053
     7.1321   7.1441   7.2887   7.3273   7.3503   7.4733   7.5558   7.5747
     7.6345   7.8367   7.8845   7.9113   8.0740   8.1094   8.1296   8.2291
     8.2526   8.2673   8.3767   8.3960   8.4377   8.5460   8.6740   8.7076
     8.8723   8.9220   9.0165   9.0598   9.0976   9.2101   9.2483

     the Fermi energy is     7.2653 ev

!    total energy              =   -2942.90536913 Ry
     estimated scf accuracy    <       0.00060656 Ry
     smearing contrib. (-TS)   =      -0.10059244 Ry
     internal energy E=F+TS    =   -2942.80477670 Ry

     total magnetization       =    -0.01 Bohr mag/cell
     absolute magnetization    =     0.01 Bohr mag/cell

     convergence has been achieved in   4 iterations

     negative rho (up, down):  9.086E-01 9.086E-01

     Forces acting on atoms (cartesian axes, Ry/au):

     atom    1 type  1   force =     0.00007540   -0.03097789    0.00391647
     atom    2 type  1   force =    -0.12471787   -0.01379640   -0.00248206
     atom    3 type  1   force =    -0.11466014    0.01219207    0.00258150
     atom    4 type  1   force =     0.13898766   -0.01868091   -0.00363578
     atom    5 type  1   force =    -0.01624786    0.33633919    0.01460704
     atom    6 type  2   force =     0.00259293   -0.01911576    0.02073839
     atom    7 type  2   force =    -0.01845739    0.00735104   -0.00542897
     atom    8 type  3   force =    -0.10493827    0.00278032   -0.00255249
     atom    9 type  3   force =     0.09241196    0.01223126   -0.00487504
     atom   10 type  3   force =    -0.02637418   -0.03316950   -0.06109858
     atom   11 type  3   force =    -0.02528761   -0.03445057    0.05665656
     atom   12 type  3   force =    -0.01043421    0.03722207   -0.05851964
     atom   13 type  3   force =    -0.01486787    0.03079789    0.06148885
     atom   14 type  3   force =     0.01673931   -0.03772538   -0.06534353
     atom   15 type  3   force =     0.01791526   -0.03986062    0.06025642
     atom   16 type  3   force =     0.01330731    0.05072810   -0.05682059
     atom   17 type  3   force =     0.01690846    0.04333228    0.05965811
     atom   18 type  4   force =    -0.01476393    0.02208236   -0.00560765
     atom   19 type  4   force =    -0.12436026   -0.00477217   -0.11816722
     atom   20 type  4   force =    -0.12630260    0.00442425    0.11596350
     atom   21 type  4   force =     0.11981517   -0.00669748   -0.11878044
     atom   22 type  4   force =     0.12486902    0.00207118    0.11703885
     atom   23 type  5   force =     0.17778972   -0.32230533   -0.00959368
     The non-local contrib.  to forces
     atom    1 type  1   force =    -0.00352712   -0.01123350    0.03003818
     atom    2 type  1   force =    -0.24740681   -0.16019762    0.01539898
     atom    3 type  1   force =    -0.22740450    0.15643953   -0.02601763
     atom    4 type  1   force =     0.25030261   -0.22639542    0.01587785
     atom    5 type  1   force =     0.19375081    0.15978541   -0.02095626
     atom    6 type  2   force =     0.00520488   -0.04208998   -0.07020313
     atom    7 type  2   force =     0.00189247    0.05542430    0.07084593
     atom    8 type  3   force =    -0.25481002    0.00730957   -0.00455737
     atom    9 type  3   force =     0.20813969    0.05582226   -0.00779110
     atom   10 type  3   force =    -0.21504719    0.00670199   -0.20752449
     atom   11 type  3   force =    -0.22457904    0.00916827    0.20021894
     atom   12 type  3   force =    -0.19442678   -0.02481401   -0.18049988
     atom   13 type  3   force =    -0.20299415   -0.00868021    0.20835136
     atom   14 type  3   force =     0.21321110    0.00186362   -0.20908396
     atom   15 type  3   force =     0.22290819    0.00614072    0.19701227
     atom   16 type  3   force =     0.20614990   -0.01670931   -0.17156038
     atom   17 type  3   force =     0.21134250   -0.00167248    0.20135019
     atom   18 type  4   force =     0.00297851    0.04929385   -0.07323543
     atom   19 type  4   force =     0.05695369    0.00753737    0.07472261
     atom   20 type  4   force =     0.05509320   -0.01443031   -0.06981461
     atom   21 type  4   force =    -0.06485549    0.01338479    0.06849159
     atom   22 type  4   force =    -0.05885697   -0.01234279   -0.05931165
     atom   23 type  5   force =    -0.04329067    0.03782875   -0.00151423
     The ionic contribution  to forces
     atom    1 type  1   force =    -0.16657553   -4.73831311   14.10221614
     atom    2 type  1   force =   -39.76703989   -6.06899103    0.77958317
     atom    3 type  1   force =   -39.96561024    6.25979716   -0.71222652
     atom    4 type  1   force =    39.59274528   -5.96148517    0.77861377
     atom    5 type  1   force =    38.43686487    9.15837521   -0.67716727
     atom    6 type  2   force =    -0.17639826   -3.70165302  -14.00572661
     atom    7 type  2   force =    -0.83850864    3.47252613   14.58158114
     atom    8 type  3   force =   -52.36986104   -0.11088113   -0.06500601
     atom    9 type  3   force =    51.49656872   -2.03108994   -0.06614887
     atom   10 type  3   force =   -36.10528621   -2.05797265  -23.11344537
     atom   11 type  3   force =   -35.17938102   -0.81087403   22.11765320
     atom   12 type  3   force =   -35.35590274    0.85105711  -22.24004639
     atom   13 type  3   force =   -36.14723912    2.23512705   23.17045742
     atom   14 type  3   force =    36.00294174   -2.03004795  -23.18493413
     atom   15 type  3   force =    35.07770299   -0.78268810   22.18916246
     atom   16 type  3   force =    35.12508254    0.99256946  -22.56673137
     atom   17 type  3   force =    35.91291652    2.37792491   23.50166585
     atom   18 type  4   force =    -0.78462226    4.24922507  -14.46218329
     atom   19 type  4   force =   -35.98091828    0.88805914  -25.60793715
     atom   20 type  4   force =   -35.96450410   -1.02197314   25.58666313
     atom   21 type  4   force =    35.81205747    0.75546917  -25.84358753
     atom   22 type  4   force =    35.79504936   -1.15421988   25.82605108
     atom   23 type  5   force =     5.54991784   -0.76994126   -0.08850682
     The local contribution  to forces
     atom    1 type  1   force =     0.17994884    4.71401859  -14.11803382
     atom    2 type  1   force =    39.90030771    6.20866023   -0.79275062
     atom    3 type  1   force =    40.09964553   -6.40019381    0.74262859
     atom    4 type  1   force =   -39.70760431    6.16118192   -0.79136683
     atom    5 type  1   force =   -38.65994216   -8.96831977    0.71697970
     atom    6 type  2   force =     0.18290448    3.70543590   14.10265258
     atom    7 type  2   force =     0.83654290   -3.51086605  -14.66357670
     atom    8 type  3   force =    52.55468526    0.10531574    0.08079226
     atom    9 type  3   force =   -51.61703610    2.01449232    0.08691480
     atom   10 type  3   force =    36.31853584    1.98915940   23.27087100
     atom   11 type  3   force =    35.40226204    0.75844449  -22.27659539
     atom   12 type  3   force =    35.55796414   -0.76317323   22.37546023
     atom   13 type  3   force =    36.34796871   -2.17920507  -23.33242568
     atom   14 type  3   force =   -36.21887715    1.96442102   23.34407466
     atom   15 type  3   force =   -35.29604350    0.72695989  -22.34445496
     atom   16 type  3   force =   -35.34019029   -0.89228989   22.70715953
     atom   17 type  3   force =   -36.11622030   -2.30968182  -23.67203362
     atom   18 type  4   force =     0.77975677   -4.24850417   14.54440339
     atom   19 type  4   force =    35.79918042   -0.89805232   25.41933575
     atom   20 type  4   force =    35.78807511    1.03576499  -25.40932548
     atom   21 type  4   force =   -35.62886356   -0.78031985   25.66891158
     atom   22 type  4   force =   -35.61306059    1.15872949  -25.66818064
     atom   23 type  5   force =    -5.32997128    0.40842473    0.08175580
     The core correction contribution to forces
     atom    1 type  1   force =    -0.00042336    0.00072655   -0.00102861
     atom    2 type  1   force =    -0.01067346   -0.00033146    0.00091014
     atom    3 type  1   force =    -0.00852481    0.00559528   -0.00138474
     atom    4 type  1   force =     0.01403111   -0.00736704    0.00050759
     atom    5 type  1   force =     0.00743067   -0.00559902   -0.00095346
     atom    6 type  2   force =    -0.00036991    0.00207509    0.00296543
     atom    7 type  2   force =     0.00013735   -0.00280909   -0.00302822
     atom    8 type  3   force =    -0.03046961   -0.00017819   -0.00031061
     atom    9 type  3   force =     0.02083978   -0.00351534   -0.00102532
     atom   10 type  3   force =    -0.02333713    0.00957028   -0.01663829
     atom   11 type  3   force =    -0.02509800    0.00951167    0.01767070
     atom   12 type  3   force =    -0.02121228   -0.01084011   -0.01568717
     atom   13 type  3   force =    -0.02134937   -0.00991946    0.01674847
     atom   14 type  3   force =     0.02206095    0.00906736   -0.01779395
     atom   15 type  3   force =     0.02373757    0.00963859    0.01786433
     atom   16 type  3   force =     0.02255686   -0.00971025   -0.01407083
     atom   17 type  3   force =     0.02203585   -0.00882632    0.01525742
     atom   18 type  4   force =     0.00013538   -0.00254545    0.00393224
     atom   19 type  4   force =    -0.00949295    0.00011190   -0.00972928
     atom   20 type  4   force =    -0.00949684    0.00037003    0.00950650
     atom   21 type  4   force =     0.00999328   -0.00015000   -0.00919996
     atom   22 type  4   force =     0.00979623    0.00024899    0.00868232
     atom   23 type  5   force =     0.00000000    0.00000000    0.00000000
     The Hubbard contrib.    to forces
     atom    1 type  1   force =     0.00000000    0.00000000    0.00000000
     atom    2 type  1   force =     0.00000000    0.00000000    0.00000000
     atom    3 type  1   force =     0.00000000    0.00000000    0.00000000
     atom    4 type  1   force =     0.00000000    0.00000000    0.00000000
     atom    5 type  1   force =     0.00000000    0.00000000    0.00000000
     atom    6 type  2   force =     0.00000000    0.00000000    0.00000000
     atom    7 type  2   force =     0.00000000    0.00000000    0.00000000
     atom    8 type  3   force =     0.00000000    0.00000000    0.00000000
     atom    9 type  3   force =     0.00000000    0.00000000    0.00000000
     atom   10 type  3   force =     0.00000000    0.00000000    0.00000000
     atom   11 type  3   force =     0.00000000    0.00000000    0.00000000
     atom   12 type  3   force =     0.00000000    0.00000000    0.00000000
     atom   13 type  3   force =     0.00000000    0.00000000    0.00000000
     atom   14 type  3   force =     0.00000000    0.00000000    0.00000000
     atom   15 type  3   force =     0.00000000    0.00000000    0.00000000
     atom   16 type  3   force =     0.00000000    0.00000000    0.00000000
     atom   17 type  3   force =     0.00000000    0.00000000    0.00000000
     atom   18 type  4   force =     0.00000000    0.00000000    0.00000000
     atom   19 type  4   force =     0.00000000    0.00000000    0.00000000
     atom   20 type  4   force =     0.00000000    0.00000000    0.00000000
     atom   21 type  4   force =     0.00000000    0.00000000    0.00000000
     atom   22 type  4   force =     0.00000000    0.00000000    0.00000000
     atom   23 type  5   force =     0.00000000    0.00000000    0.00000000
     The SCF correction term to forces
     atom    1 type  1   force =    -0.00863665    0.00394971   -0.00881679
     atom    2 type  1   force =     0.00080536    0.00718960   -0.00516511
     atom    3 type  1   force =    -0.01205533   -0.00931996    0.00004043
     atom    4 type  1   force =    -0.00977623    0.01551094   -0.00680954
     atom    5 type  1   force =     0.00635875   -0.00777652   -0.00283705
     atom    6 type  2   force =    -0.00803747    0.01724237   -0.00849126
     atom    7 type  2   force =    -0.01781069   -0.00679812    0.00920750
     atom    8 type  3   force =    -0.00377207    0.00134046   -0.01301214
     atom    9 type  3   force =    -0.01538935   -0.02335191   -0.01636594
     atom   10 type  3   force =    -0.00052869    0.01949760    0.00609719
     atom   11 type  3   force =     0.00221920   -0.00057484   -0.00183227
     atom   12 type  3   force =     0.00385424   -0.01488156    0.00271220
     atom   13 type  3   force =     0.00945685   -0.00639829   -0.00118411
     atom   14 type  3   force =    -0.00188655    0.01709670    0.00285248
     atom   15 type  3   force =    -0.00967920    0.00021442    0.00113094
     atom   16 type  3   force =     0.00041908   -0.02300579   -0.01115893
     atom   17 type  3   force =    -0.01245531   -0.01428589    0.01387689
     atom   18 type  4   force =    -0.01230155   -0.02526081   -0.01806594
     atom   19 type  4   force =     0.01062764   -0.00230212    0.00589947
     atom   20 type  4   force =     0.00524081    0.00481881   -0.00060742
     atom   21 type  4   force =    -0.00780574    0.00504454   -0.00293750
     atom   22 type  4   force =    -0.00734823    0.00978150    0.01025637
     atom   23 type  5   force =     0.00184462    0.00150859   -0.00086980

     Total force =     0.693484     Total SCF correction =     0.084681
     SCF correction compared to forces is large: reduce conv_thr to get better values


     Computing stress (Cartesian axis) and pressure


     negative rho (up, down):  9.086E-01 9.086E-01
          total   stress  (Ry/bohr**3)                   (kbar)     P=       93.58
   0.00065767  -0.00005111  -0.00000379           96.75       -7.52       -0.56
  -0.00005111   0.00085492  -0.00001100           -7.52      125.76       -1.62
  -0.00000379  -0.00001100   0.00039593           -0.56       -1.62       58.24


     Entering Dynamics:    iteration =     2
                           time      =   0.0004 pico-seconds


ATOMIC_POSITIONS (angstrom)
Hf            2.6700648738        2.8273625140        6.6039643439
Hf            1.2530412778        1.2865257189        5.0584657633
Hf            1.2555386273        7.3900483496        5.0880680663
Hf            4.0870897567        1.2865247779        5.0584656287
Hf            4.0845659213        7.3901033520        5.0880696115
Nb            2.6700656023        2.7971696641        3.5155879511
Nb            2.6700610240        5.8766231297        6.6349966675
Ta            1.2094261412        4.3411710130        5.0711253864
Ta            4.1307031888        4.3411741050        5.0711250620
Ta            1.3073147399        1.3143619102        2.0587723217
Ta            1.3028505517        1.3086300173        8.0945856807
Ta            1.3040734363        7.3760730829        2.0462306211
Ta            1.3077742474        7.3653292477        8.0860092561
Ta            4.0328143282        1.3143613376        2.0587717629
Ta            4.0372787270        1.3086294375        8.0945861491
Ta            4.0360570417        7.3760743910        2.0462307715
Ta            4.0323560523        7.3653304902        8.0860091251
Zr            2.6700615541        5.8665328279        3.5273823386
Zr            1.2438719817        4.3223194832        1.9999737370
Zr            1.2404219288        4.3543671736        8.1497817518
Zr            4.0962572255        4.3223197109        1.9999735274
Zr            4.0997077979        4.3543671647        8.1497821968
H             4.5429474815        5.8636318180        5.0720658486


     kinetic energy (Ekin) =           8.26105043 Ry
     temperature           =       39524.74854097 K 
     Ekin + Etot (const)   =       -2934.64431871 Ry
     Ions kinetic stress =          145.90 (kbar)
                                     27.32         105.87           0.03
                                    105.87         410.38           0.11
                                      0.03           0.11           0.00



     Linear momentum :    0.0000000000    0.0000000000   -0.0000000000

     Writing config-only to output data dir outdir/pwscf.save/
     NEW-OLD atomic charge density approx. for the potential

     Check: negative core charge=   -0.000002

     negative rho (up, down):  9.087E-01 9.087E-01
     Generating pointlists ...
     new r_m :   0.1077 (alat units)  1.9015 (a.u.) for type    2
     new r_m :   0.0697 (alat units)  1.2295 (a.u.) for type    3
     new r_m :   0.1072 (alat units)  1.8924 (a.u.) for type    4

     total cpu time spent up to now is      461.0 secs

     Self-consistent Calculation

     iteration #  1     ecut=   120.00 Ry     beta= 0.70
     Davidson diagonalization with overlap
     c_bands:  1 eigenvalues not converged
     c_bands:  1 eigenvalues not converged
     ethr =  1.00E-06,  avg # of iterations = 20.0

     negative rho (up, down):  9.089E-01 9.089E-01

     total cpu time spent up to now is      507.7 secs

     total energy              =   -2942.94241051 Ry
     estimated scf accuracy    <       0.11000656 Ry

     total magnetization       =    -0.01 Bohr mag/cell
     absolute magnetization    =     0.01 Bohr mag/cell

     iteration #  2     ecut=   120.00 Ry     beta= 0.70
     Davidson diagonalization with overlap
     ethr =  3.97E-05,  avg # of iterations =  2.0

     negative rho (up, down):  9.090E-01 9.090E-01

     total cpu time spent up to now is      544.9 secs

     total energy              =   -2942.95283006 Ry
     estimated scf accuracy    <       0.02002524 Ry

     total magnetization       =    -0.01 Bohr mag/cell
     absolute magnetization    =     0.01 Bohr mag/cell

     iteration #  3     ecut=   120.00 Ry     beta= 0.70
     Davidson diagonalization with overlap
     ethr =  7.23E-06,  avg # of iterations =  2.0

     negative rho (up, down):  9.089E-01 9.089E-01

     total cpu time spent up to now is      573.0 secs

     total energy              =   -2942.95448219 Ry
     estimated scf accuracy    <       0.00258837 Ry

     total magnetization       =    -0.01 Bohr mag/cell
     absolute magnetization    =     0.01 Bohr mag/cell

     iteration #  4     ecut=   120.00 Ry     beta= 0.70
     Davidson diagonalization with overlap
     c_bands:  1 eigenvalues not converged
     c_bands:  1 eigenvalues not converged
     ethr =  9.34E-07,  avg # of iterations = 20.0

     negative rho (up, down):  9.089E-01 9.089E-01

     Magnetic moment per site  (integrated on atomic sphere of radius R)
     atom   1 (R=0.055)  charge=  2.8631  magn=  0.0000
     atom   2 (R=0.055)  charge=  2.8457  magn= -0.0000
     atom   3 (R=0.055)  charge=  2.8450  magn= -0.0000
     atom   4 (R=0.055)  charge=  2.8471  magn=  0.0000
     atom   5 (R=0.055)  charge=  2.8558  magn= -0.0000
     atom   6 (R=0.108)  charge= 10.1828  magn= -0.0000
     atom   7 (R=0.108)  charge= 10.1828  magn= -0.0001
     atom   8 (R=0.070)  charge=  5.7885  magn= -0.0000
     atom   9 (R=0.070)  charge=  5.8084  magn= -0.0000
     atom  10 (R=0.070)  charge=  5.7757  magn= -0.0001
     atom  11 (R=0.070)  charge=  5.7756  magn= -0.0001
     atom  12 (R=0.070)  charge=  5.7734  magn= -0.0001
     atom  13 (R=0.070)  charge=  5.7781  magn= -0.0000
     atom  14 (R=0.070)  charge=  5.7724  magn= -0.0001
     atom  15 (R=0.070)  charge=  5.7729  magn= -0.0001
     atom  16 (R=0.070)  charge=  5.7717  magn= -0.0002
     atom  17 (R=0.070)  charge=  5.7746  magn= -0.0001
     atom  18 (R=0.107)  charge=  9.1493  magn= -0.0000
     atom  19 (R=0.107)  charge=  8.7609  magn= -0.0001
     atom  20 (R=0.107)  charge=  8.7571  magn= -0.0000
     atom  21 (R=0.107)  charge=  8.7629  magn= -0.0002
     atom  22 (R=0.107)  charge=  8.7572  magn= -0.0001
     atom  23 (R=0.055)  charge=  0.7048  magn= -0.0000

     total cpu time spent up to now is      591.7 secs

     End of self-consistent calculation

 ------ SPIN UP ------------


          k = 0.0000 0.0000 0.0000 ( 61588 PWs)   bands (ev):

   -60.7677 -60.7461 -60.7223 -60.7012 -60.6741 -60.6722 -60.6299 -60.6282
   -60.5561 -60.3599 -54.3593 -54.2834 -54.2308 -54.1119 -52.6916 -46.2981
   -46.2440 -41.6333 -41.6243 -41.5398 -41.5327 -39.8423 -27.7666 -27.7551
   -27.6763 -27.6725 -27.5835 -27.5545 -27.4467 -27.4332 -27.3940 -27.3152
   -27.2897 -27.2517 -27.2338 -27.2298 -27.1999 -27.1761 -27.1632 -27.1370
   -27.1195 -27.1104 -26.9841 -26.9645 -26.9422 -26.9324 -26.9233 -26.9148
   -26.8708 -26.8587 -26.8312 -26.8278 -24.1711 -23.9698 -23.6430 -23.5476
   -23.2878 -23.1535 -23.1044 -23.0256 -22.9213 -22.8469 -22.7979 -22.6011
   -22.5268 -22.4513 -22.3842 -22.3399 -22.2669 -22.2305 -21.7494 -21.6895
   -21.6204 -20.1970 -19.9223 -19.8420 -19.8372 -19.6108 -19.6041 -19.5941
   -19.5810 -19.5719 -19.5296 -19.3653 -19.3472 -18.1892 -17.9932 -17.8385
     0.1443   1.8422   2.9454   3.1461   3.3617   3.4648   3.5396   3.6064
     3.6661   3.8906   3.9207   4.1377   4.2306   4.4772   4.5632   4.7012
     4.7549   4.9385   5.0272   5.1220   5.2023   5.2731   5.2939   5.3848
     5.3949   5.5225   5.5645   5.6882   5.7436   5.7565   5.7777   5.9025
     6.0566   6.0947   6.1989   6.2315   6.2751   6.3376   6.3587   6.3686
     6.5364   6.6056   6.6527   6.7204   6.8059   7.0016   7.0208   7.1008
     7.1401   7.1459   7.2851   7.3232   7.3484   7.4705   7.5472   7.5661
     7.6320   7.8497   7.8862   7.8989   8.0742   8.1029   8.1251   8.2192
     8.2449   8.2686   8.3715   8.3906   8.4537   8.5421   8.6682   8.6840
     8.8634   8.9219   8.9704   9.0429   9.0910   9.1973   9.2468

 ------ SPIN DOWN ----------


          k = 0.0000 0.0000 0.0000 ( 61588 PWs)   bands (ev):

   -60.7678 -60.7463 -60.7224 -60.7014 -60.6742 -60.6724 -60.6301 -60.6284
   -60.5561 -60.3599 -54.3593 -54.2834 -54.2308 -54.1119 -52.6916 -46.2981
   -46.2441 -41.6335 -41.6243 -41.5398 -41.5328 -39.8423 -27.7669 -27.7554
   -27.6766 -27.6727 -27.5837 -27.5547 -27.4470 -27.4335 -27.3941 -27.3153
   -27.2898 -27.2519 -27.2340 -27.2300 -27.2001 -27.1762 -27.1633 -27.1373
   -27.1196 -27.1104 -26.9841 -26.9645 -26.9424 -26.9327 -26.9235 -26.9151
   -26.8712 -26.8589 -26.8315 -26.8280 -24.1711 -23.9699 -23.6430 -23.5476
   -23.2879 -23.1535 -23.1044 -23.0256 -22.9213 -22.8469 -22.7979 -22.6011
   -22.5269 -22.4513 -22.3843 -22.3400 -22.2669 -22.2305 -21.7494 -21.6895
   -21.6204 -20.1971 -19.9222 -19.8421 -19.8373 -19.6109 -19.6043 -19.5941
   -19.5811 -19.5720 -19.5296 -19.3655 -19.3472 -18.1892 -17.9932 -17.8385
     0.1442   1.8420   2.9451   3.1460   3.3615   3.4644   3.5394   3.6062
     3.6660   3.8905   3.9203   4.1374   4.2305   4.4772   4.5631   4.7010
     4.7546   4.9383   5.0269   5.1219   5.2022   5.2729   5.2937   5.3845
     5.3947   5.5224   5.5644   5.6882   5.7435   5.7563   5.7776   5.9023
     6.0564   6.0944   6.1988   6.2313   6.2749   6.3374   6.3586   6.3683
     6.5361   6.6055   6.6525   6.7201   6.8057   7.0013   7.0202   7.1000
     7.1395   7.1455   7.2843   7.3228   7.3475   7.4700   7.5466   7.5660
     7.6316   7.8494   7.8859   7.8986   8.0738   8.1024   8.1249   8.2187
     8.2444   8.2683   8.3709   8.3904   8.4534   8.5419   8.6680   8.6837
     8.8632   8.9213   8.9702   9.0426   9.0907   9.1970   9.2466

     the Fermi energy is     7.2618 ev

!    total energy              =   -2942.95444824 Ry
     estimated scf accuracy    <       0.00043754 Ry
     smearing contrib. (-TS)   =      -0.10080990 Ry
     internal energy E=F+TS    =   -2942.85363834 Ry

     total magnetization       =    -0.01 Bohr mag/cell
     absolute magnetization    =     0.01 Bohr mag/cell

     convergence has been achieved in   4 iterations

     negative rho (up, down):  9.089E-01 9.089E-01

     Forces acting on atoms (cartesian axes, Ry/au):

     atom    1 type  1   force =    -0.00413322   -0.03052490    0.00603203
     atom    2 type  1   force =    -0.11916459   -0.01206220   -0.00222685
     atom    3 type  1   force =    -0.11138615    0.01063040    0.00524217
     atom    4 type  1   force =     0.13898701   -0.01472021   -0.00505204
     atom    5 type  1   force =     0.06000960    0.14029156    0.01352366
     atom    6 type  2   force =     0.00153314   -0.01917605    0.01803117
     atom    7 type  2   force =    -0.01698603    0.00940032   -0.00340785
     atom    8 type  3   force =    -0.10529805    0.00359259   -0.00518097
     atom    9 type  3   force =     0.05618983   -0.11210714   -0.00667902
     atom   10 type  3   force =    -0.02650620   -0.02697298   -0.06022256
     atom   11 type  3   force =    -0.02248452   -0.03456567    0.05578148
     atom   12 type  3   force =    -0.00997827    0.03208971   -0.05863398
     atom   13 type  3   force =    -0.00934188    0.02952247    0.06130721
     atom   14 type  3   force =     0.01853332   -0.03278934   -0.06432107
     atom   15 type  3   force =     0.01542643   -0.04064433    0.05963485
     atom   16 type  3   force =     0.01446499    0.04444015   -0.05879743
     atom   17 type  3   force =     0.01223107    0.04061985    0.06150480
     atom   18 type  4   force =    -0.01340538    0.01732505   -0.00930084
     atom   19 type  4   force =    -0.12052363   -0.00478684   -0.11748977
     atom   20 type  4   force =    -0.12396518    0.00648375    0.11730933
     atom   21 type  4   force =     0.11725621   -0.00623774   -0.11990002
     atom   22 type  4   force =     0.12296048    0.00380446    0.12006901
     atom   23 type  5   force =     0.12558103   -0.00361290   -0.00722330
     The non-local contrib.  to forces
     atom    1 type  1   force =    -0.00261975   -0.00880447    0.02709222
     atom    2 type  1   force =    -0.24625840   -0.15774314    0.01458643
     atom    3 type  1   force =    -0.23204087    0.15179593   -0.02485676
     atom    4 type  1   force =     0.24993736   -0.21637265    0.01504736
     atom    5 type  1   force =     0.17938634    0.18648408   -0.01974283
     atom    6 type  2   force =     0.00374789   -0.04155369   -0.06893853
     atom    7 type  2   force =     0.00253201    0.05794352    0.07111115
     atom    8 type  3   force =    -0.25484399    0.00798691   -0.00649382
     atom    9 type  3   force =     0.18870669    0.02758998   -0.00802092
     atom   10 type  3   force =    -0.21662070    0.00896267   -0.20676280
     atom   11 type  3   force =    -0.22393036    0.00809399    0.20033093
     atom   12 type  3   force =    -0.19536023   -0.02726399   -0.18118398
     atom   13 type  3   force =    -0.20020303   -0.00863848    0.20889754
     atom   14 type  3   force =     0.21566912    0.00212802   -0.20716818
     atom   15 type  3   force =     0.22234316    0.00419066    0.19565327
     atom   16 type  3   force =     0.20746748   -0.02041767   -0.17233966
     atom   17 type  3   force =     0.20834523   -0.00425362    0.20166786
     atom   18 type  4   force =     0.00273455    0.04687531   -0.07457162
     atom   19 type  4   force =     0.05830228    0.00785842    0.07371182
     atom   20 type  4   force =     0.05638275   -0.01276531   -0.06929474
     atom   21 type  4   force =    -0.06499330    0.01575742    0.06476856
     atom   22 type  4   force =    -0.06086890   -0.00870402   -0.05581545
     atom   23 type  5   force =    -0.03627934   -0.00745243   -0.00202864
     The ionic contribution  to forces
     atom    1 type  1   force =    -0.18534855   -4.77523384   14.12099884
     atom    2 type  1   force =   -39.76680423   -6.08828165    0.77959498
     atom    3 type  1   force =   -39.95333650    6.27584378   -0.71227706
     atom    4 type  1   force =    39.60206261   -6.03143358    0.77871129
     atom    5 type  1   force =    38.88014496    8.55636222   -0.68819600
     atom    6 type  2   force =    -0.19578739   -3.74108647  -14.02551449
     atom    7 type  2   force =    -0.86890595    3.56172258   14.62509128
     atom    8 type  3   force =   -52.41194207   -0.11282585   -0.06502119
     atom    9 type  3   force =    51.32119373   -2.67106858   -0.06659641
     atom   10 type  3   force =   -36.10570965   -2.06822962  -23.11292322
     atom   11 type  3   force =   -35.17981325   -0.82108842   22.11711653
     atom   12 type  3   force =   -35.35338199    0.85820747  -22.23630241
     atom   13 type  3   force =   -36.14465806    2.24241575   23.16670003
     atom   14 type  3   force =    36.00660303   -2.05416403  -23.18081609
     atom   15 type  3   force =    35.08138962   -0.80669486   22.18497233
     atom   16 type  3   force =    35.14010304    1.00466095  -22.53040597
     atom   17 type  3   force =    35.92816928    2.39038091   23.46490914
     atom   18 type  4   force =    -0.81447661    4.33240054  -14.50352337
     atom   19 type  4   force =   -35.98995931    0.88973111  -25.61649582
     atom   20 type  4   force =   -35.97351452   -1.01999437   25.59517867
     atom   21 type  4   force =    35.81271738    0.75737588  -25.88072009
     atom   22 type  4   force =    35.79586174   -1.15137466   25.86310634
     atom   23 type  5   force =     5.37539268    0.47237475   -0.07758734
     The local contribution  to forces
     atom    1 type  1   force =     0.18094875    4.75199612  -14.13666730
     atom    2 type  1   force =    39.90691870    6.23705679   -0.79135790
     atom    3 type  1   force =    40.09726462   -6.42205225    0.75194242
     atom    4 type  1   force =   -39.73287673    6.22502107   -0.79432992
     atom    5 type  1   force =   -39.01888330   -8.59310527    0.72940035
     atom    6 type  2   force =     0.19215518    3.77683406   14.10922669
     atom    7 type  2   force =     0.86018909   -3.59396911  -14.69490494
     atom    8 type  3   force =    52.59127836    0.10684969    0.06545816
     atom    9 type  3   force =   -51.47198505    2.55954479    0.06542024
     atom   10 type  3   force =    36.31452142    2.04013120   23.27614403
     atom   11 type  3   force =    35.41466131    0.76669816  -22.28043372
     atom   12 type  3   force =    35.55833247   -0.80524949   22.37158905
     atom   13 type  3   force =    36.36837421   -2.19716323  -23.32950727
     atom   14 type  3   force =   -36.22386697    2.02293092   23.34112417
     atom   15 type  3   force =   -35.32498466    0.74540777  -22.33988269
     atom   16 type  3   force =   -35.35070971   -0.94767785   22.66280392
     atom   17 type  3   force =   -36.15677430   -2.33986009  -23.62636687
     atom   18 type  4   force =     0.80911777   -4.36607926   14.57210367
     atom   19 type  4   force =    35.82228598   -0.90270453   25.42990813
     atom   20 type  4   force =    35.80862362    1.04231411  -25.41147977
     atom   21 type  4   force =   -35.64285038   -0.77565613   25.70066161
     atom   22 type  4   force =   -35.63070363    1.17083744  -25.68909924
     atom   23 type  5   force =    -5.21567151   -0.46984500    0.07277663
     The core correction contribution to forces
     atom    1 type  1   force =     0.00015765    0.00093244   -0.00084206
     atom    2 type  1   force =    -0.01044786   -0.00051632    0.00075728
     atom    3 type  1   force =    -0.00973536    0.00500383   -0.00135332
     atom    4 type  1   force =     0.01490903   -0.00718915    0.00060889
     atom    5 type  1   force =     0.00245800    0.00259412   -0.00076456
     atom    6 type  2   force =    -0.00025106    0.00211576    0.00296631
     atom    7 type  2   force =     0.00017705   -0.00291446   -0.00311049
     atom    8 type  3   force =    -0.03031328   -0.00000792   -0.00032774
     atom    9 type  3   force =     0.01834936   -0.00527790   -0.00093000
     atom   10 type  3   force =    -0.02325071    0.00939241   -0.01619024
     atom   11 type  3   force =    -0.02495609    0.00955770    0.01721917
     atom   12 type  3   force =    -0.02132907   -0.01039698   -0.01586295
     atom   13 type  3   force =    -0.02124795   -0.00959555    0.01676338
     atom   14 type  3   force =     0.02247028    0.00888676   -0.01767336
     atom   15 type  3   force =     0.02399754    0.00965831    0.01780079
     atom   16 type  3   force =     0.02262627   -0.00940853   -0.01412609
     atom   17 type  3   force =     0.02198774   -0.00877881    0.01523172
     atom   18 type  4   force =     0.00016676   -0.00264716    0.00396128
     atom   19 type  4   force =    -0.00949167    0.00008746   -0.00967119
     atom   20 type  4   force =    -0.00950416    0.00032598    0.00953100
     atom   21 type  4   force =     0.00995746   -0.00023940   -0.00905561
     atom   22 type  4   force =     0.00981399    0.00013230    0.00861441
     atom   23 type  5   force =     0.00000000    0.00000000    0.00000000
     The Hubbard contrib.    to forces
     atom    1 type  1   force =     0.00000000    0.00000000    0.00000000
     atom    2 type  1   force =     0.00000000    0.00000000    0.00000000
     atom    3 type  1   force =     0.00000000    0.00000000    0.00000000
     atom    4 type  1   force =     0.00000000    0.00000000    0.00000000
     atom    5 type  1   force =     0.00000000    0.00000000    0.00000000
     atom    6 type  2   force =     0.00000000    0.00000000    0.00000000
     atom    7 type  2   force =     0.00000000    0.00000000    0.00000000
     atom    8 type  3   force =     0.00000000    0.00000000    0.00000000
     atom    9 type  3   force =     0.00000000    0.00000000    0.00000000
     atom   10 type  3   force =     0.00000000    0.00000000    0.00000000
     atom   11 type  3   force =     0.00000000    0.00000000    0.00000000
     atom   12 type  3   force =     0.00000000    0.00000000    0.00000000
     atom   13 type  3   force =     0.00000000    0.00000000    0.00000000
     atom   14 type  3   force =     0.00000000    0.00000000    0.00000000
     atom   15 type  3   force =     0.00000000    0.00000000    0.00000000
     atom   16 type  3   force =     0.00000000    0.00000000    0.00000000
     atom   17 type  3   force =     0.00000000    0.00000000    0.00000000
     atom   18 type  4   force =     0.00000000    0.00000000    0.00000000
     atom   19 type  4   force =     0.00000000    0.00000000    0.00000000
     atom   20 type  4   force =     0.00000000    0.00000000    0.00000000
     atom   21 type  4   force =     0.00000000    0.00000000    0.00000000
     atom   22 type  4   force =     0.00000000    0.00000000    0.00000000
     atom   23 type  5   force =     0.00000000    0.00000000    0.00000000
     The SCF correction term to forces
     atom    1 type  1   force =     0.00271928    0.00055033   -0.00410046
     atom    2 type  1   force =    -0.00258220   -0.00261241   -0.00535843
     atom    3 type  1   force =    -0.01354743    0.00000458   -0.00776389
     atom    4 type  1   force =     0.00494534    0.01521958   -0.00464044
     atom    5 type  1   force =     0.01689422   -0.01207812   -0.00672408
     atom    6 type  2   force =     0.00165913   -0.01552023    0.00074039
     atom    7 type  2   force =    -0.01098763   -0.01341673   -0.00114564
     atom    8 type  3   force =     0.00051355    0.00155523    0.00165283
     atom    9 type  3   force =    -0.00008429   -0.02292996    0.00389727
     atom   10 type  3   force =     0.00454405   -0.01726417   -0.00004111
     atom   11 type  3   force =    -0.00845552    0.00213837    0.00199778
     atom   12 type  3   force =     0.00175116    0.01675819    0.00357551
     atom   13 type  3   force =    -0.01161644    0.00246946   -0.00109726
     atom   14 type  3   force =    -0.00235154   -0.01260554    0.00066161
     atom   15 type  3   force =     0.01267138    0.00675926    0.00154036
     atom   16 type  3   force =    -0.00503148    0.01724871   -0.00428042
     atom   17 type  3   force =     0.01049374    0.00309693    0.00651216
     atom   18 type  4   force =    -0.01095724    0.00674108   -0.00682160
     atom   19 type  4   force =    -0.00167029    0.00020617    0.00550649
     atom   20 type  4   force =    -0.00596226   -0.00343118   -0.00617662
     atom   21 type  4   force =     0.00241566   -0.00351005    0.00489472
     atom   22 type  4   force =     0.00884790   -0.00712113   -0.00628783
     atom   23 type  5   force =     0.00212981    0.00127525    0.00006525

     Total force =     0.521449     Total SCF correction =     0.066477
     SCF correction compared to forces is large: reduce conv_thr to get better values


     Computing stress (Cartesian axis) and pressure


     negative rho (up, down):  9.089E-01 9.089E-01
[...]
     3.6688   3.9085   3.9185   4.0226   4.1351   4.4924   4.5142   4.6970
     4.7486   4.8502   5.0259   5.1037   5.1434   5.2595   5.2840   5.3318
     5.4090   5.5490   5.5871   5.7224   5.7263   5.7322   5.7608   5.8325
     5.9293   6.0470   6.1332   6.1868   6.2382   6.2817   6.3775   6.4237
     6.5408   6.5846   6.6603   6.7318   6.8253   6.9864   7.0147   7.0778
     7.1055   7.1585   7.2384   7.2701   7.3132   7.4367   7.5579   7.5753
     7.6155   7.7132   7.8891   7.9115   8.0788   8.0924   8.1096   8.2005
     8.2403   8.2450   8.3430   8.3599   8.3833   8.5496   8.6527   8.7030
     8.8628   8.8995   9.0192   9.0796   9.1980   9.2260   9.2695

     the Fermi energy is     7.2380 ev

!    total energy              =   -2942.79894108 Ry
     estimated scf accuracy    <       0.00040202 Ry
     smearing contrib. (-TS)   =      -0.10286594 Ry
     internal energy E=F+TS    =   -2942.69607513 Ry

     total magnetization       =    -0.00 Bohr mag/cell
     absolute magnetization    =     0.00 Bohr mag/cell

     convergence has been achieved in   5 iterations

     negative rho (up, down):  9.080E-01 9.080E-01

     Forces acting on atoms (cartesian axes, Ry/au):

     atom    1 type  1   force =    -0.00900587   -0.03172758    0.01177313
     atom    2 type  1   force =    -0.13506718   -0.00730943    0.00133224
     atom    3 type  1   force =    -0.11149818    0.01224393    0.00790851
     atom    4 type  1   force =     0.11923734   -0.00480315    0.00302133
     atom    5 type  1   force =    -0.37631657    0.36271468    0.02255053
     atom    6 type  2   force =    -0.00778262   -0.01734001    0.00827749
     atom    7 type  2   force =    -0.00472722    0.00023060   -0.01077530
     atom    8 type  3   force =    -0.10622831    0.00385598   -0.00481062
     atom    9 type  3   force =     0.13426461    0.05018309   -0.00722729
     atom   10 type  3   force =    -0.02064870   -0.02675842   -0.06041186
     atom   11 type  3   force =    -0.01874786   -0.03416847    0.05280671
     atom   12 type  3   force =    -0.01498092    0.03435276   -0.05462187
     atom   13 type  3   force =    -0.01693829    0.03129733    0.05674026
     atom   14 type  3   force =     0.02113629   -0.03347346   -0.06546239
     atom   15 type  3   force =     0.02108611   -0.03963709    0.05920087
     atom   16 type  3   force =     0.01703272    0.04388837   -0.05669290
     atom   17 type  3   force =     0.01717333    0.03907614    0.05738975
     atom   18 type  4   force =    -0.00463842    0.00863912   -0.00419126
     atom   19 type  4   force =    -0.12374080   -0.00687739   -0.11648474
     atom   20 type  4   force =    -0.12988812    0.00490081    0.11447481
     atom   21 type  4   force =     0.11857203   -0.00567353   -0.11728224
     atom   22 type  4   force =     0.12575453    0.00432176    0.11701109
     atom   23 type  5   force =     0.50595211   -0.38793606   -0.01452625
     The non-local contrib.  to forces
     atom    1 type  1   force =     0.00243106   -0.01341632    0.02031492
     atom    2 type  1   force =    -0.25122550   -0.15849203    0.01945861
     atom    3 type  1   force =    -0.19669816    0.17078536   -0.02466939
     atom    4 type  1   force =     0.23300821   -0.18950941    0.01892860
     atom    5 type  1   force =     0.16600103    0.18159972   -0.02350278
     atom    6 type  2   force =     0.00497409   -0.04835922   -0.06373913
     atom    7 type  2   force =    -0.00860277    0.06611039    0.05715706
     atom    8 type  3   force =    -0.25936254    0.00970993   -0.00676115
     atom    9 type  3   force =     0.27118786    0.02421865   -0.00571231
     atom   10 type  3   force =    -0.20704273    0.00344401   -0.20549957
     atom   11 type  3   force =    -0.21302582    0.00090809    0.19197856
     atom   12 type  3   force =    -0.20340701   -0.02291398   -0.17563419
     atom   13 type  3   force =    -0.20935900   -0.00308422    0.20669625
     atom   14 type  3   force =     0.21054859    0.00534486   -0.21500485
     atom   15 type  3   force =     0.21804206    0.00753354    0.20242256
     atom   16 type  3   force =     0.21653585   -0.02365414   -0.17044807
     atom   17 type  3   force =     0.21948510   -0.00608947    0.20227001
     atom   18 type  4   force =    -0.00749885    0.05681048   -0.06157172
     atom   19 type  4   force =     0.06246807    0.00562189    0.07148388
     atom   20 type  4   force =     0.05831881   -0.01707533   -0.06790232
     atom   21 type  4   force =    -0.06442965    0.00915009    0.06474051
     atom   22 type  4   force =    -0.05782298   -0.01600379   -0.06057772
     atom   23 type  5   force =    -0.10722695    0.07134727    0.00224595
     The ionic contribution  to forces
     atom    1 type  1   force =    -0.36051904   -4.68861537   14.37217971
     atom    2 type  1   force =   -39.79101468   -6.10301144    0.77992149
     atom    3 type  1   force =   -39.78137414    6.10119595   -0.71105566
     atom    4 type  1   force =    39.51970285   -6.11588663    0.77813509
     atom    5 type  1   force =    36.45501141    8.02303926   -0.63915965
     atom    6 type  2   force =    -0.37629540   -3.65140711  -14.28782395
     atom    7 type  2   force =    -0.32275840    3.36885712   14.08953034
     atom    8 type  3   force =   -52.28607774    0.10400579   -0.06527634
     atom    9 type  3   force =    51.59534563    0.03721383   -0.02341075
     atom   10 type  3   force =   -36.08509856   -2.04719925  -23.10241328
     atom   11 type  3   force =   -35.16068746   -0.80143053   22.10674932
     atom   12 type  3   force =   -35.27921035    0.77542014  -22.17476196
     atom   13 type  3   force =   -36.06525912    2.15766461   23.10182069
     atom   14 type  3   force =    35.95279909   -2.01509575  -23.22929463
     atom   15 type  3   force =    35.03027819   -0.76964536   22.23186815
     atom   16 type  3   force =    35.02142653    0.81965286  -22.49098485
     atom   17 type  3   force =    35.80760166    2.19978389   23.41633505
     atom   18 type  4   force =    -0.30126829    4.15053473  -14.00028084
     atom   19 type  4   force =   -35.89087133    0.93985723  -25.50972928
     atom   20 type  4   force =   -35.87366314   -0.96641843   25.48678133
     atom   21 type  4   force =    35.76944370    0.91213570  -25.64467284
     atom   22 type  4   force =    35.75322091   -0.99427633   25.61964761
     atom   23 type  5   force =     6.66926767   -1.43637493   -0.10410475
     The local contribution  to forces
     atom    1 type  1   force =     0.35057695    4.66177360  -14.36713991
     atom    2 type  1   force =    39.91964927    6.25605628   -0.78024707
     atom    3 type  1   force =    39.87205911   -6.26394644    0.76491700
     atom    4 type  1   force =   -39.64151773    6.30615763   -0.77683488
     atom    5 type  1   force =   -37.01250329   -7.84325994    0.70451299
     atom    6 type  2   force =     0.36613946    3.68212426   14.37320852
     atom    7 type  2   force =     0.32650075   -3.42429205  -14.14024911
     atom    8 type  3   force =    52.46971815   -0.10765055    0.08256877
     atom    9 type  3   force =   -51.76410840   -0.01156156    0.03802106
     atom   10 type  3   force =    36.29650504    2.01552437   23.26212421
     atom   11 type  3   force =    35.37864582    0.74917587  -22.26622594
     atom   12 type  3   force =    35.49342949   -0.71305221   22.30885089
     atom   13 type  3   force =    36.28095174   -2.10523992  -23.27253100
     atom   14 type  3   force =   -36.16318371    1.97071737   23.39429118
     atom   15 type  3   force =   -35.24869599    0.70366336  -22.39550383
     atom   16 type  3   force =   -35.24385353   -0.74527035   22.61602866
     atom   17 type  3   force =   -36.03145848   -2.13714006  -23.57819586
     atom   18 type  4   force =     0.30497138   -4.19953994   14.07000474
     atom   19 type  4   force =    35.71829101   -0.95335154   25.33090955
     atom   20 type  4   force =    35.69110007    0.98813193  -25.31594671
     atom   21 type  4   force =   -35.59800613   -0.92747311   25.47005416
     atom   22 type  4   force =   -35.57358772    1.01425838  -25.45188883
     atom   23 type  5   force =    -6.05461752    0.97758181    0.09057417
     The core correction contribution to forces
     atom    1 type  1   force =     0.00020265    0.00161834   -0.00176140
     atom    2 type  1   force =    -0.01168722   -0.00185955    0.00090317
     atom    3 type  1   force =    -0.00703782    0.00254179   -0.00208286
     atom    4 type  1   force =     0.00943772   -0.00453467    0.00075051
     atom    5 type  1   force =     0.01725882    0.00393589   -0.00134948
     atom    6 type  2   force =    -0.00029616    0.00226817    0.00268431
     atom    7 type  2   force =     0.00033270   -0.00341799   -0.00224660
     atom    8 type  3   force =    -0.03093803   -0.00044181   -0.00034369
     atom    9 type  3   force =     0.03083182   -0.00117671   -0.00127183
     atom   10 type  3   force =    -0.02204584    0.00860090   -0.01753410
     atom   11 type  3   force =    -0.02362846    0.00859120    0.01814695
     atom   12 type  3   force =    -0.02245808   -0.01035471   -0.01479655
     atom   13 type  3   force =    -0.02239086   -0.00932907    0.01645114
     atom   14 type  3   force =     0.02154025    0.00981999   -0.01745520
     atom   15 type  3   force =     0.02305322    0.01034435    0.01783809
     atom   16 type  3   force =     0.02375435   -0.01039795   -0.01360601
     atom   17 type  3   force =     0.02303382   -0.00896445    0.01479216
     atom   18 type  4   force =     0.00039143   -0.00326155    0.00318203
     atom   19 type  4   force =    -0.00979613    0.00022391   -0.00948516
     atom   20 type  4   force =    -0.00973657    0.00056006    0.00940099
     atom   21 type  4   force =     0.00994800    0.00016530   -0.00895918
     atom   22 type  4   force =     0.00974200    0.00056175    0.00885699
     atom   23 type  5   force =     0.00000000    0.00000000    0.00000000
     The Hubbard contrib.    to forces
     atom    1 type  1   force =     0.00000000    0.00000000    0.00000000
     atom    2 type  1   force =     0.00000000    0.00000000    0.00000000
     atom    3 type  1   force =     0.00000000    0.00000000    0.00000000
     atom    4 type  1   force =     0.00000000    0.00000000    0.00000000
     atom    5 type  1   force =     0.00000000    0.00000000    0.00000000
     atom    6 type  2   force =     0.00000000    0.00000000    0.00000000
     atom    7 type  2   force =     0.00000000    0.00000000    0.00000000
     atom    8 type  3   force =     0.00000000    0.00000000    0.00000000
     atom    9 type  3   force =     0.00000000    0.00000000    0.00000000
     atom   10 type  3   force =     0.00000000    0.00000000    0.00000000
     atom   11 type  3   force =     0.00000000    0.00000000    0.00000000
     atom   12 type  3   force =     0.00000000    0.00000000    0.00000000
     atom   13 type  3   force =     0.00000000    0.00000000    0.00000000
     atom   14 type  3   force =     0.00000000    0.00000000    0.00000000
     atom   15 type  3   force =     0.00000000    0.00000000    0.00000000
     atom   16 type  3   force =     0.00000000    0.00000000    0.00000000
     atom   17 type  3   force =     0.00000000    0.00000000    0.00000000
     atom   18 type  4   force =     0.00000000    0.00000000    0.00000000
     atom   19 type  4   force =     0.00000000    0.00000000    0.00000000
     atom   20 type  4   force =     0.00000000    0.00000000    0.00000000
     atom   21 type  4   force =     0.00000000    0.00000000    0.00000000
     atom   22 type  4   force =     0.00000000    0.00000000    0.00000000
     atom   23 type  5   force =     0.00000000    0.00000000    0.00000000
     The SCF correction term to forces
     atom    1 type  1   force =    -0.00158701    0.00686244   -0.01039486
     atom    2 type  1   force =    -0.00067859   -0.00005243   -0.01727862
     atom    3 type  1   force =     0.00166330    0.00161753   -0.01777524
     atom    4 type  1   force =    -0.00128324   -0.00107981   -0.01653266
     atom    5 type  1   force =    -0.00197407   -0.00264999   -0.01652522
     atom    6 type  2   force =    -0.00219414   -0.00201584   -0.01462692
     atom    7 type  2   force =    -0.00008902   -0.00707660   -0.01354166
     atom    8 type  3   force =     0.00054233   -0.00181711   -0.01357289
     atom    9 type  3   force =     0.00111817    0.00143916   -0.01342812
     atom   10 type  3   force =    -0.00285613   -0.00717818    0.00433621
     atom   11 type  3   force =     0.00005854    0.00853717    0.00358317
     atom   12 type  3   force =    -0.00322449    0.00520378    0.00314527
     atom   13 type  3   force =    -0.00077058   -0.00876379    0.00572851
     atom   14 type  3   force =    -0.00045746   -0.00430964    0.00342644
     atom   15 type  3   force =    -0.00148091    0.00841728    0.00400124
     atom   16 type  3   force =    -0.00072002    0.00350824    0.00374271
     atom   17 type  3   force =    -0.00137830   -0.00856351    0.00361373
     atom   18 type  4   force =    -0.00112362    0.00404566   -0.01410014
     atom   19 type  4   force =    -0.00372194    0.00072139    0.00176161
     atom   20 type  4   force =     0.00420319   -0.00034715    0.00356685
     atom   21 type  4   force =     0.00172658    0.00029874    0.00298045
     atom   22 type  4   force =    -0.00568722   -0.00026798    0.00239837
     atom   23 type  5   force =    -0.00136062   -0.00053995   -0.00181630

     Total force =     0.956864     Total SCF correction =     0.055158


     Computing stress (Cartesian axis) and pressure


     negative rho (up, down):  9.080E-01 9.080E-01
          total   stress  (Ry/bohr**3)                   (kbar)     P=       96.11
   0.00082935  -0.00013036  -0.00000344          122.00      -19.18       -0.51
  -0.00013036   0.00074745  -0.00000977          -19.18      109.95       -1.44
  -0.00000344  -0.00000977   0.00038317           -0.51       -1.44       56.37


     Entering Dynamics:    iteration =    20
                           time      =   0.0041 pico-seconds


ATOMIC_POSITIONS (angstrom)
Hf            2.6706697323        2.8292842512        6.6040755511
Hf            1.2522877474        1.2885543225        5.0584309844
Hf            1.2548164782        7.3923720573        5.0881077806
Hf            4.0892932635        1.2886037869        5.0583917555
Hf            4.0858913232        7.3932093034        5.0881836802
Nb            2.6707111559        2.7990341147        3.5158256990
Nb            2.6704832222        5.8790321394        6.6347934781
Ta            1.2087921966        4.3434092226        5.0710804767
Ta            4.1146388373        4.2916337964        5.0711881708
Ta            1.3076200580        1.3162051886        2.0580919640
Ta            1.3031826887        1.3104107935        8.0952147188
Ta            1.3045164057        7.3786550350        2.0456028608
Ta            1.3082001084        7.3678525780        8.0866877528
Ta            4.0336008245        1.3161841702        2.0580681506
Ta            4.0380512760        1.3103980867        8.0952416169
Ta            4.0367987121        7.3787266230        2.0456183800
Ta            4.0331017042        7.3679195603        8.0866733305
Zr            2.6704678860        5.8691707255        3.5272056496
Zr            1.2416764713        4.3243533747        1.9974015061
Zr            1.2381513430        4.3566590190        8.1523610003
Zr            4.0995417650        4.3243432752        1.9974257386
Zr            4.1031080200        4.3566137717        8.1523403258
H             5.2304463003        6.8141001133        5.0619207599


     kinetic energy (Ekin) =           8.17320660 Ry
     temperature           =       39104.46237933 K 
     Ekin + Etot (const)   =       -2934.62573447 Ry
     Ions kinetic stress =          144.35 (kbar)
                                     84.57         170.95          -0.90
                                    170.95         348.32          -1.81
                                     -0.90          -1.81           0.15



     Linear momentum :   -0.0000000000   -0.0000000000    0.0000000000

     The maximum number of steps has been reached.

     End of molecular dynamics calculation

     diffusion coefficients :
     atom     1   D =       0.00000002 cm^2/s
     atom     2   D =       0.00000002 cm^2/s
     atom     3   D =       0.00000003 cm^2/s
     atom     4   D =       0.00000004 cm^2/s
     atom     5   D =       0.00000006 cm^2/s
     atom     6   D =       0.00000002 cm^2/s
     atom     7   D =       0.00000003 cm^2/s
     atom     8   D =       0.00000003 cm^2/s
     atom     9   D =       0.00001101 cm^2/s
     atom    10   D =       0.00000002 cm^2/s
     atom    11   D =       0.00000002 cm^2/s
     atom    12   D =       0.00000004 cm^2/s
     atom    13   D =       0.00000003 cm^2/s
     atom    14   D =       0.00000002 cm^2/s
     atom    15   D =       0.00000002 cm^2/s
     atom    16   D =       0.00000004 cm^2/s
     atom    17   D =       0.00000004 cm^2/s
     atom    18   D =       0.00000004 cm^2/s
     atom    19   D =       0.00000007 cm^2/s
     atom    20   D =       0.00000007 cm^2/s
     atom    21   D =       0.00000009 cm^2/s
     atom    22   D =       0.00000010 cm^2/s
     atom    23   D =       0.00259644 cm^2/s

     < D > =       0.00011340 cm^2/s

     Writing all to output data dir outdir/pwscf.save/

     init_run     :      9.05s CPU     11.40s WALL (       1 calls)
     electrons    :   2189.99s CPU   2817.40s WALL (      20 calls)
     update_pot   :     18.68s CPU     20.17s WALL (      19 calls)
     forces       :    137.83s CPU    179.21s WALL (      20 calls)
     stress       :    249.23s CPU    296.39s WALL (      20 calls)

     Called by init_run:
     wfcinit      :      6.76s CPU      8.50s WALL (       1 calls)
     potinit      :      0.34s CPU      0.49s WALL (       1 calls)
     hinit0       :      0.94s CPU      1.05s WALL (       1 calls)

     Called by electrons:
     c_bands      :   1747.81s CPU   2270.12s WALL (     101 calls)
     sum_band     :    290.84s CPU    361.06s WALL (     101 calls)
     v_of_rho     :     10.10s CPU     12.27s WALL (     121 calls)
     newd         :    163.07s CPU    201.38s WALL (     121 calls)
     mix_rho      :      0.86s CPU      1.25s WALL (     101 calls)

     Called by c_bands:
     init_us_2    :      3.50s CPU      3.62s WALL (     486 calls)
     init_us_2:cp :      3.49s CPU      3.62s WALL (     486 calls)
     regterg      :   1734.56s CPU   2253.48s WALL (     202 calls)

     Called by *egterg:
     rdiaghg      :     66.05s CPU     82.68s WALL (    1788 calls)
     h_psi        :    877.17s CPU   1032.28s WALL (    1828 calls)
     s_psi        :    281.10s CPU    281.95s WALL (    1828 calls)
     g_psi        :      0.67s CPU      0.74s WALL (    1624 calls)

     Called by h_psi:
     h_psi:calbec :    435.58s CPU    553.81s WALL (    1828 calls)
     vloc_psi     :     95.83s CPU    131.24s WALL (    1828 calls)
     add_vuspsi   :    344.54s CPU    345.89s WALL (    1828 calls)

     General routines
     calbec       :    696.60s CPU    901.77s WALL (    2230 calls)
     fft          :      9.00s CPU     28.67s WALL (    2514 calls)
     ffts         :      0.20s CPU      0.26s WALL (     101 calls)
     fftw         :    102.55s CPU    141.18s WALL (  108844 calls)

     Parallel routines

     PWSCF        :  43m47.69s CPU  55m54.32s WALL


   This run was terminated on:   5: 5:21  15Jun2023            

=------------------------------------------------------------------------------=
   JOB DONE.
=------------------------------------------------------------------------------=
