
     Program PWSCF v.7.2 starts on 15Jun2023 at  6:56:37 

     This program is part of the open-source Quantum ESPRESSO suite
     for quantum simulation of materials; please cite
         "P. Giannozzi et al., J. Phys.:Condens. Matter 21 395502 (2009);
         "P. Giannozzi et al., J. Phys.:Condens. Matter 29 465901 (2017);
         "P. Giannozzi et al., J. Chem. Phys. 152 154105 (2020);
          URL http://www.quantum-espresso.org", 
     in publications or presentations arising from this work. More details at
     http://www.quantum-espresso.org/quote

     Parallel version (MPI), running on    42 processors

     MPI processes distributed on     1 nodes
     174264 MiB available memory on the printing compute node when the environment starts

     Reading input from md_data/md_Hf5Nb2Ta10Zr5H_20steps_100eV_incident75_polar90.in
Warning: card &CELL ignored
Warning: card / ignored

     Current dimensions of program PWSCF are:
     Max number of different atomic species (ntypx) = 10
     Max number of k-points (npk) =  40000
     Max angular momentum in pseudopotentials (lmaxx) =  4

     File outdir/pwscf.md deleted, as requested

     gamma-point specific algorithms are used

     R & G space division:  proc/nbgrp/npool/nimage =      42
     Subspace diagonalization in iterative solution of the eigenvalue problem:
     one sub-group per band group will be used
     custom distributed-memory algorithm (size of sub-group:  2*  2 procs)


     Parallelization info
     --------------------
     sticks:   dense  smooth     PW     G-vecs:    dense   smooth      PW
     Min         262     262     63                23470    23470    2920
     Max         265     265     66                23484    23484    2942
     Sum       11057   11057   2753               986005   986005  123175

     Using Slab Decomposition



     bravais-lattice index     =            0
     lattice parameter (alat)  =      17.6500  a.u.
     unit-cell volume          =    5552.8853 (a.u.)^3
     number of atoms/cell      =           23
     number of atomic types    =            5
     number of electrons       =       277.00
     number of Kohn-Sham states=          167
     kinetic-energy cutoff     =     120.0000  Ry
     charge density cutoff     =     480.0000  Ry
     scf convergence threshold =      1.0E-03
     mixing beta               =       0.7000
     number of iterations used =            8  TF        mixing
     energy convergence thresh.=      0.0E+00
     force convergence thresh. =      0.0E+00
     Exchange-correlation=  SLA  PW   PBX  PBC
                           (   1   4   3   4   0   0   0)
     nstep                     =           20


     celldm(1)=  17.650041  celldm(2)=   0.000000  celldm(3)=   0.000000
     celldm(4)=   0.000000  celldm(5)=   0.000000  celldm(6)=   0.000000

     crystal axes: (cart. coord. in units of alat)
               a(1) = (   1.000000   0.000000   0.000000 )  
               a(2) = (   0.000000   0.929336   0.000000 )  
               a(3) = (   0.000000   0.000000   1.086698 )  

     reciprocal axes: (cart. coord. in units 2 pi/alat)
               b(1) = (  1.000000  0.000000  0.000000 )  
               b(2) = (  0.000000  1.076037  0.000000 )  
               b(3) = (  0.000000  0.000000  0.920219 )  


     PseudoPot. # 1 for Hf read from file:
     q-e/pseudo/hf_pbe_v1.uspp.F.UPF
     MD5 check sum: 8ee9378dfe14276e333edf04c5e4aa26
     Pseudo is Ultrasoft + core correction, Zval = 12.0
     Generated by new atomic code, or converted to UPF format
     Using radial grid of  921 points,  8 beta functions with: 
                l(1) =   0
                l(2) =   0
                l(3) =   0
                l(4) =   1
                l(5) =   1
                l(6) =   2
                l(7) =   2
                l(8) =   3
     Q(r) pseudized with  6 coefficients,  rinner =    1.200   1.200   1.200
                                                       1.200   1.200   1.200
                                                       1.200

     PseudoPot. # 2 for Nb read from file:
     q-e/pseudo/nb_pbe_v1.uspp.F.UPF
     MD5 check sum: 573aab8a2fa660278ed4a62cd769473f
     Pseudo is Ultrasoft + core correction, Zval = 13.0
     Generated by new atomic code, or converted to UPF format
     Using radial grid of  887 points,  6 beta functions with: 
                l(1) =   0
                l(2) =   0
                l(3) =   1
                l(4) =   1
                l(5) =   2
                l(6) =   2
     Q(r) pseudized with  6 coefficients,  rinner =    1.000   1.000   1.000
                                                       1.000   1.000

     PseudoPot. # 3 for Ta read from file:
     q-e/pseudo/ta_pbe_v1.uspp.F.UPF
     MD5 check sum: f8bbe9446314a3b8ea5d9f3e3836c939
     Pseudo is Ultrasoft + core correction, Zval = 13.0
     Generated by new atomic code, or converted to UPF format
     Using radial grid of  921 points,  7 beta functions with: 
                l(1) =   0
                l(2) =   0
                l(3) =   1
                l(4) =   1
                l(5) =   2
                l(6) =   2
                l(7) =   3
     Q(r) pseudized with  6 coefficients,  rinner =    1.300   1.300   1.300
                                                       1.300   1.300   1.300
                                                       1.300

     PseudoPot. # 4 for Zr read from file:
     q-e/pseudo/zr_pbe_v1.uspp.F.UPF
     MD5 check sum: 5db81b1e868ab7776c4564c113de050b
     Pseudo is Ultrasoft + core correction, Zval = 12.0
     Generated by new atomic code, or converted to UPF format
     Using radial grid of  887 points,  6 beta functions with: 
                l(1) =   0
                l(2) =   0
                l(3) =   1
                l(4) =   1
                l(5) =   2
                l(6) =   2
     Q(r) pseudized with  6 coefficients,  rinner =    1.200   1.200   1.200
                                                       1.200   1.200

     PseudoPot. # 5 for H  read from file:
     q-e/pseudo/h_pbe_v1.4.uspp.F.UPF
     MD5 check sum: 761ae9a214b05c3daf00ab9f6b793d6f
     Pseudo is Ultrasoft, Zval =  1.0
     Generated by new atomic code, or converted to UPF format
     Using radial grid of  615 points,  2 beta functions with: 
                l(1) =   0
                l(2) =   0
     Q(r) pseudized with  8 coefficients,  rinner =    0.700

     atomic species   valence    mass     pseudopotential
        Hf            12.00   178.49000     Hf( 1.00)
        Nb            13.00    92.90637     Nb( 1.00)
        Ta            13.00   180.94788     Ta( 1.00)
        Zr            12.00    91.22400     Zr( 1.00)
        H              1.00     2.01400     H ( 1.00)

     Starting magnetic structure 
     atomic species   magnetization
        Hf           0.000
        Nb           0.000
        Ta           0.000
        Zr           0.000
        H            0.000

     No symmetry found



   Cartesian axes

     site n.     atom                  positions (alat units)
         1           Hf  tau(   1) = (   0.2858672   0.3026898   0.7070626  )
         2           Hf  tau(   2) = (   0.1341532   0.1377178   0.5415917  )
         3           Hf  tau(   3) = (   0.1344204   0.7911996   0.5447610  )
         4           Hf  tau(   4) = (   0.4375813   0.1377178   0.5415917  )
         5           Hf  tau(   5) = (   0.4373140   0.7911996   0.5447610  )
         6           Nb  tau(   6) = (   0.2858672   0.2994572   0.3764008  )
         7           Nb  tau(   7) = (   0.2858672   0.6291626   0.7103852  )
         8           Ta  tau(   8) = (   0.1294832   0.4647675   0.5429471  )
         9           Ta  tau(   9) = (   0.4422513   0.4647675   0.5429471  )
        10           Ta  tau(  10) = (   0.1399628   0.1406984   0.2204260  )
        11           Ta  tau(  11) = (   0.1394848   0.1400847   0.8666573  )
        12           Ta  tau(  12) = (   0.1396156   0.7897030   0.2190832  )
        13           Ta  tau(  13) = (   0.1400119   0.7885528   0.8657390  )
        14           Ta  tau(  14) = (   0.4317717   0.1406984   0.2204260  )
        15           Ta  tau(  15) = (   0.4322496   0.1400847   0.8666573  )
        16           Ta  tau(  16) = (   0.4321189   0.7897030   0.2190832  )
        17           Ta  tau(  17) = (   0.4317226   0.7885528   0.8657390  )
        18           Zr  tau(  18) = (   0.2858672   0.6280820   0.3776642  )
        19           Zr  tau(  19) = (   0.1331729   0.4627493   0.2141328  )
        20           Zr  tau(  20) = (   0.1328036   0.4661802   0.8725649  )
        21           Zr  tau(  21) = (   0.4385616   0.4627493   0.2141328  )
        22           Zr  tau(  22) = (   0.4389309   0.4661802   0.8725649  )
        23           H   tau(  23) = (   0.4976729   0.4646681   0.7498963  )

     number of k points=     1  Gaussian smearing, width (Ry)=  0.0220
                       cart. coord. in units 2pi/alat
        k(    1) = (   0.0000000   0.0000000   0.0000000), wk =   1.0000000

     Dense  grid:   493003 G-vectors     FFT dimensions: ( 125, 120, 135)

     Estimated max dynamical RAM per process >     133.03 MB

     Estimated total dynamical RAM >       5.46 GB

     Check: negative core charge=   -0.000002
     Generating pointlists ...
     new r_m :   0.1114 (alat units)  1.9662 (a.u.) for type    1
     new r_m :   0.1098 (alat units)  1.9374 (a.u.) for type    2
     new r_m :   0.0884 (alat units)  1.5598 (a.u.) for type    3
     new r_m :   0.0561 (alat units)  0.9903 (a.u.) for type    4
     new r_m :   0.0561 (alat units)  0.9903 (a.u.) for type    5

     Initial potential from superposition of free atoms

     starting charge     266.9726, renormalised to     277.0000

     negative rho (up, down):  9.212E-01 9.212E-01
     Starting wfcs are  287 randomized atomic wfcs

     total cpu time spent up to now is       12.3 secs

     Self-consistent Calculation

     iteration #  1     ecut=   120.00 Ry     beta= 0.70
     Davidson diagonalization with overlap
     ethr =  1.00E-02,  avg # of iterations =  2.0

     negative rho (up, down):  9.973E-01 9.968E-01

     total cpu time spent up to now is       30.2 secs

     total energy              =   -2930.28287611 Ry
     estimated scf accuracy    <     275.82938036 Ry

     total magnetization       =    -0.00 Bohr mag/cell
     absolute magnetization    =     0.09 Bohr mag/cell

     iteration #  2     ecut=   120.00 Ry     beta= 0.70
     Davidson diagonalization with overlap
     ethr =  1.00E-02,  avg # of iterations =  5.0

     negative rho (up, down):  9.671E-01 9.677E-01

     total cpu time spent up to now is       49.7 secs

     total energy              =   -2942.07583060 Ry
     estimated scf accuracy    <      29.32994254 Ry

     total magnetization       =    -0.13 Bohr mag/cell
     absolute magnetization    =     0.37 Bohr mag/cell

     iteration #  3     ecut=   120.00 Ry     beta= 0.70
     Davidson diagonalization with overlap
     ethr =  1.00E-02,  avg # of iterations =  2.0

     negative rho (up, down):  9.988E-01 1.002E+00

     total cpu time spent up to now is       68.2 secs

     total energy              =   -2942.44432597 Ry
     estimated scf accuracy    <      13.01576044 Ry

     total magnetization       =    -0.11 Bohr mag/cell
     absolute magnetization    =     0.48 Bohr mag/cell

     iteration #  4     ecut=   120.00 Ry     beta= 0.70
     Davidson diagonalization with overlap
     ethr =  4.70E-03,  avg # of iterations =  3.5

     negative rho (up, down):  1.002E+00 1.010E+00

     total cpu time spent up to now is      105.4 secs

     total energy              =   -2942.66178104 Ry
     estimated scf accuracy    <       3.36262972 Ry

     total magnetization       =    -0.25 Bohr mag/cell
     absolute magnetization    =     0.70 Bohr mag/cell

     iteration #  5     ecut=   120.00 Ry     beta= 0.70
     Davidson diagonalization with overlap
     ethr =  1.21E-03,  avg # of iterations =  8.5

     negative rho (up, down):  9.780E-01 9.824E-01

     total cpu time spent up to now is      147.1 secs

     total energy              =   -2942.79459091 Ry
     estimated scf accuracy    <       1.44058029 Ry

     total magnetization       =    -0.11 Bohr mag/cell
     absolute magnetization    =     0.45 Bohr mag/cell

     iteration #  6     ecut=   120.00 Ry     beta= 0.70
     Davidson diagonalization with overlap
     ethr =  5.20E-04,  avg # of iterations =  3.5

     negative rho (up, down):  9.675E-01 9.705E-01

     total cpu time spent up to now is      163.5 secs

     total energy              =   -2942.83382128 Ry
     estimated scf accuracy    <       1.12183491 Ry

     total magnetization       =    -0.04 Bohr mag/cell
     absolute magnetization    =     0.29 Bohr mag/cell

     iteration #  7     ecut=   120.00 Ry     beta= 0.70
     Davidson diagonalization with overlap
     ethr =  4.05E-04,  avg # of iterations =  2.0

     negative rho (up, down):  9.384E-01 9.393E-01

     total cpu time spent up to now is      180.0 secs

     total energy              =   -2942.78458807 Ry
     estimated scf accuracy    <       0.35988530 Ry

     total magnetization       =    -0.03 Bohr mag/cell
     absolute magnetization    =     0.28 Bohr mag/cell

     iteration #  8     ecut=   120.00 Ry     beta= 0.70
     Davidson diagonalization with overlap
     ethr =  1.30E-04,  avg # of iterations = 10.0

     negative rho (up, down):  9.184E-01 9.183E-01

     total cpu time spent up to now is      199.8 secs

     total energy              =   -2942.78370638 Ry
     estimated scf accuracy    <       0.31935096 Ry

     total magnetization       =    -0.03 Bohr mag/cell
     absolute magnetization    =     0.24 Bohr mag/cell

     iteration #  9     ecut=   120.00 Ry     beta= 0.70
     Davidson diagonalization with overlap
     ethr =  1.15E-04,  avg # of iterations =  2.0

     negative rho (up, down):  9.073E-01 9.071E-01

     total cpu time spent up to now is      216.6 secs

     total energy              =   -2942.78800566 Ry
     estimated scf accuracy    <       0.06477975 Ry

     total magnetization       =     0.01 Bohr mag/cell
     absolute magnetization    =     0.17 Bohr mag/cell

     iteration # 10     ecut=   120.00 Ry     beta= 0.70
     Davidson diagonalization with overlap
     ethr =  2.34E-05,  avg # of iterations = 13.5

     negative rho (up, down):  9.076E-01 9.076E-01

     total cpu time spent up to now is      250.4 secs

     total energy              =   -2942.79261938 Ry
     estimated scf accuracy    <       0.03324113 Ry

     total magnetization       =     0.03 Bohr mag/cell
     absolute magnetization    =     0.13 Bohr mag/cell

     iteration # 11     ecut=   120.00 Ry     beta= 0.70
     Davidson diagonalization with overlap
     ethr =  1.20E-05,  avg # of iterations =  3.0

     negative rho (up, down):  9.085E-01 9.085E-01

     total cpu time spent up to now is      286.5 secs

     total energy              =   -2942.79599512 Ry
     estimated scf accuracy    <       0.01091840 Ry

     total magnetization       =     0.04 Bohr mag/cell
     absolute magnetization    =     0.10 Bohr mag/cell

     iteration # 12     ecut=   120.00 Ry     beta= 0.70
     Davidson diagonalization with overlap
     ethr =  3.94E-06,  avg # of iterations =  6.5

     negative rho (up, down):  9.086E-01 9.086E-01

     total cpu time spent up to now is      316.4 secs

     total energy              =   -2942.79898665 Ry
     estimated scf accuracy    <       0.00183255 Ry

     total magnetization       =     0.03 Bohr mag/cell
     absolute magnetization    =     0.08 Bohr mag/cell

     iteration # 13     ecut=   120.00 Ry     beta= 0.70
     Davidson diagonalization with overlap
     ethr =  6.62E-07,  avg # of iterations = 15.5

     negative rho (up, down):  9.083E-01 9.083E-01

     Magnetic moment per site  (integrated on atomic sphere of radius R)
     atom   1 (R=0.111)  charge=  9.4396  magn= -0.0003
     atom   2 (R=0.111)  charge=  9.0373  magn=  0.0004
     atom   3 (R=0.111)  charge=  9.0372  magn=  0.0002
     atom   4 (R=0.111)  charge=  9.0410  magn=  0.0004
     atom   5 (R=0.111)  charge=  9.0399  magn=  0.0003
     atom   6 (R=0.110)  charge= 10.3427  magn=  0.0003
     atom   7 (R=0.110)  charge= 10.3498  magn= -0.0000
     atom   8 (R=0.088)  charge=  8.1300  magn=  0.0001
     atom   9 (R=0.088)  charge=  8.1262  magn=  0.0003
     atom  10 (R=0.088)  charge=  8.1097  magn=  0.0012
     atom  11 (R=0.088)  charge=  8.1065  magn=  0.0014
     atom  12 (R=0.088)  charge=  8.1109  magn=  0.0015
     atom  13 (R=0.088)  charge=  8.1100  magn=  0.0006
     atom  14 (R=0.088)  charge=  8.1092  magn=  0.0007
     atom  15 (R=0.088)  charge=  8.1087  magn= -0.0005
     atom  16 (R=0.088)  charge=  8.1114  magn= -0.0002
     atom  17 (R=0.088)  charge=  8.1110  magn=  0.0007
     atom  18 (R=0.056)  charge=  2.8340  magn= -0.0000
     atom  19 (R=0.056)  charge=  2.8140  magn= -0.0001
     atom  20 (R=0.056)  charge=  2.8124  magn=  0.0002
     atom  21 (R=0.056)  charge=  2.8143  magn= -0.0003
     atom  22 (R=0.056)  charge=  2.8289  magn= -0.0000
     atom  23 (R=0.056)  charge=  0.8506  magn=  0.0000

     total cpu time spent up to now is      336.9 secs

     End of self-consistent calculation

 ------ SPIN UP ------------


          k = 0.0000 0.0000 0.0000 ( 61588 PWs)   bands (ev):

   -60.7745 -60.7729 -60.7286 -60.7275 -60.6978 -60.6916 -60.6540 -60.6456
   -60.6047 -60.5311 -54.3888 -54.3431 -54.2636 -54.2182 -52.7252 -46.2709
   -46.2328 -41.6273 -41.5895 -41.5173 -41.1063 -39.7618 -27.7762 -27.7689
   -27.6884 -27.6812 -27.5962 -27.5825 -27.4699 -27.4598 -27.4493 -27.3354
   -27.3173 -27.2673 -27.2588 -27.2555 -27.2226 -27.2073 -27.1827 -27.1753
   -27.1561 -27.1341 -27.0867 -27.0783 -26.9536 -26.9475 -26.9401 -26.9313
   -26.8805 -26.8769 -26.8542 -26.8441 -24.1713 -23.9625 -23.6589 -23.5785
   -23.3167 -23.1850 -23.1598 -23.0632 -22.9339 -22.8648 -22.8475 -22.6303
   -22.5021 -22.4420 -22.3867 -22.3505 -22.2675 -22.2271 -21.7593 -21.7188
   -21.6445 -20.1897 -20.1044 -19.8411 -19.7959 -19.6788 -19.5995 -19.5811
   -19.5499 -19.5394 -19.3678 -19.0585 -18.9498 -18.1144 -17.9106 -17.7793
     1.3210   2.1045   2.9501   3.1512   3.3163   3.4302   3.4913   3.5897
     3.6942   3.7453   3.9359   4.0066   4.2726   4.4262   4.5707   4.7116
     4.7414   4.9714   5.0024   5.0716   5.1609   5.2821   5.2954   5.3163
     5.3901   5.5636   5.5755   5.7126   5.7410   5.7465   5.8002   5.9135
     5.9440   6.0578   6.1457   6.2272   6.2892   6.3541   6.3718   6.3988
     6.4715   6.6451   6.6520   6.6755   6.8469   6.9831   7.0386   7.0741
     7.1208   7.1433   7.2431   7.3214   7.3510   7.4360   7.5120   7.6105
     7.6571   7.7685   7.8890   7.9922   8.0579   8.1066   8.1228   8.1410
     8.2634   8.2818   8.3147   8.3705   8.5093   8.5287   8.5988   8.7736
     8.8297   8.9186   9.0178   9.0675   9.2091   9.2740   9.2800

 ------ SPIN DOWN ----------


          k = 0.0000 0.0000 0.0000 ( 61588 PWs)   bands (ev):

   -60.7738 -60.7721 -60.7279 -60.7265 -60.6972 -60.6909 -60.6531 -60.6454
   -60.6042 -60.5309 -54.3884 -54.3427 -54.2631 -54.2178 -52.7255 -46.2707
   -46.2321 -41.6293 -41.5884 -41.5198 -41.1063 -39.7617 -27.7751 -27.7678
   -27.6871 -27.6801 -27.5952 -27.5813 -27.4691 -27.4588 -27.4486 -27.3345
   -27.3164 -27.2665 -27.2583 -27.2545 -27.2219 -27.2071 -27.1820 -27.1747
   -27.1554 -27.1339 -27.0862 -27.0780 -26.9522 -26.9467 -26.9392 -26.9302
   -26.8794 -26.8756 -26.8529 -26.8434 -24.1707 -23.9619 -23.6584 -23.5780
   -23.3161 -23.1843 -23.1593 -23.0626 -22.9334 -22.8645 -22.8470 -22.6298
   -22.5018 -22.4415 -22.3863 -22.3501 -22.2669 -22.2266 -21.7596 -21.7190
   -21.6448 -20.1917 -20.1041 -19.8435 -19.7988 -19.6779 -19.6009 -19.5802
   -19.5526 -19.5385 -19.3707 -19.0589 -18.9496 -18.1143 -17.9108 -17.7794
     1.3216   2.1050   2.9511   3.1518   3.3172   3.4308   3.4927   3.5898
     3.6946   3.7462   3.9369   4.0068   4.2734   4.4269   4.5711   4.7129
     4.7419   4.9716   5.0036   5.0726   5.1611   5.2830   5.2965   5.3164
     5.3914   5.5641   5.5756   5.7128   5.7419   5.7464   5.8003   5.9133
     5.9442   6.0588   6.1469   6.2275   6.2898   6.3554   6.3723   6.3992
     6.4726   6.6454   6.6528   6.6761   6.8479   6.9839   7.0405   7.0756
     7.1233   7.1454   7.2459   7.3227   7.3524   7.4392   7.5110   7.6116
     7.6588   7.7701   7.8904   7.9931   8.0592   8.1079   8.1236   8.1417
     8.2655   8.2830   8.3154   8.3720   8.5103   8.5289   8.5996   8.7738
     8.8305   8.9208   9.0182   9.0698   9.2096   9.2757   9.2806

     the Fermi energy is     7.2512 ev

!    total energy              =   -2942.80000887 Ry
     estimated scf accuracy    <       0.00080845 Ry
     smearing contrib. (-TS)   =      -0.10104797 Ry
     internal energy E=F+TS    =   -2942.69896090 Ry

     total magnetization       =     0.03 Bohr mag/cell
     absolute magnetization    =     0.06 Bohr mag/cell

     convergence has been achieved in  13 iterations

     negative rho (up, down):  9.083E-01 9.083E-01

     Forces acting on atoms (cartesian axes, Ry/au):

     atom    1 type  1   force =    -0.01226759   -0.03012670    0.00563232
     atom    2 type  1   force =    -0.11422253   -0.01314631   -0.00517703
     atom    3 type  1   force =    -0.11214598    0.00875681    0.00148953
     atom    4 type  1   force =     0.11560483   -0.02228208   -0.00770620
     atom    5 type  1   force =     0.11650059    0.01879409   -0.00174550
     atom    6 type  2   force =    -0.00036504   -0.01063215    0.01020357
     atom    7 type  2   force =    -0.01299947    0.02364517   -0.00722741
     atom    8 type  3   force =    -0.10730722    0.00290108   -0.00691071
     atom    9 type  3   force =     0.12035384    0.00225046    0.02066743
     atom   10 type  3   force =    -0.02601964   -0.03210865   -0.06104553
     atom   11 type  3   force =    -0.01837560   -0.03738626    0.05929698
     atom   12 type  3   force =    -0.01991022    0.03717626   -0.05602745
     atom   13 type  3   force =    -0.01886633    0.03097986    0.06318597
     atom   14 type  3   force =     0.02313089   -0.03107268   -0.05768506
     atom   15 type  3   force =     0.01383347   -0.04237837    0.05644715
     atom   16 type  3   force =     0.01813089    0.03669312   -0.05167165
     atom   17 type  3   force =     0.01243137    0.03544860    0.05985407
     atom   18 type  4   force =    -0.00653916    0.01919548   -0.01471459
     atom   19 type  4   force =    -0.12896685   -0.00439462   -0.11389827
     atom   20 type  4   force =    -0.12790199    0.00693319    0.12111150
     atom   21 type  4   force =     0.13191290   -0.00569231   -0.11138463
     atom   22 type  4   force =    -0.15905562    0.01688859    0.70180926
     atom   23 type  5   force =     0.31304445   -0.01044257   -0.60450375
     The non-local contrib.  to forces
     atom    1 type  1   force =     0.00937846   -0.00694790    0.02970878
     atom    2 type  1   force =    -0.24513674   -0.16352659    0.01629200
     atom    3 type  1   force =    -0.23767628    0.15696468   -0.02501863
     atom    4 type  1   force =     0.25124985   -0.16623121    0.02419107
     atom    5 type  1   force =     0.24485646    0.15865177   -0.01717950
     atom    6 type  2   force =     0.00804294   -0.04014946   -0.06232239
     atom    7 type  2   force =    -0.00050598    0.06905015    0.04703158
     atom    8 type  3   force =    -0.26544592    0.00052578   -0.00137339
     atom    9 type  3   force =     0.27205142   -0.00358829    0.06127233
     atom   10 type  3   force =    -0.21229776    0.00645816   -0.20529346
     atom   11 type  3   force =    -0.22191274    0.00569815    0.19717603
     atom   12 type  3   force =    -0.20158716   -0.02132590   -0.17567657
     atom   13 type  3   force =    -0.21211384   -0.00225811    0.20822539
     atom   14 type  3   force =     0.21792479    0.00969797   -0.21040484
     atom   15 type  3   force =     0.22732624    0.01275326    0.19065522
     atom   16 type  3   force =     0.20679489   -0.02526980   -0.17924824
     atom   17 type  3   force =     0.21332546   -0.00874545    0.19902224
     atom   18 type  4   force =     0.01211620    0.04590805   -0.06488174
     atom   19 type  4   force =     0.05939103    0.00946264    0.07843244
     atom   20 type  4   force =     0.03990182   -0.01300088   -0.07334904
     atom   21 type  4   force =    -0.06246920    0.00611393    0.07321061
     atom   22 type  4   force =    -0.02712706   -0.00898858   -0.01981645
     atom   23 type  5   force =    -0.06021157   -0.00016548    0.09854813
     The ionic contribution  to forces
     atom    1 type  1   force =    -0.76189694   -5.13657067   13.78782357
     atom    2 type  1   force =   -39.75841980   -6.19442754    0.67435657
     atom    3 type  1   force =   -39.73211697    6.18209284   -0.82028478
     atom    4 type  1   force =    39.58492577   -6.37876498    0.52717419
     atom    5 type  1   force =    39.55588184    6.37060984   -0.96825446
     atom    6 type  2   force =    -0.14198215   -3.62262129  -14.06499927
     atom    7 type  2   force =    -0.81564277    4.17790055   13.71388255
     atom    8 type  3   force =   -52.32745109    0.07190498   -0.27958188
     atom    9 type  3   force =    51.61963359    0.07261664   -1.76763369
     atom   10 type  3   force =   -36.08549906   -2.11470688  -23.02529483
     atom   11 type  3   force =   -35.25766494   -0.94958857   22.10460163
     atom   12 type  3   force =   -35.26954251    0.81709644  -22.07817854
     atom   13 type  3   force =   -36.15847982    2.28403909   23.08276460
     atom   14 type  3   force =    36.01189707   -2.14120477  -23.03190172
     atom   15 type  3   force =    34.99330674   -1.27450929   22.24437109
     atom   16 type  3   force =    35.19632609    0.84344585  -22.08412795
     atom   17 type  3   force =    35.89117300    2.61165499   23.22253167
     atom   18 type  4   force =    -0.13259078    4.42670995  -14.01657548
     atom   19 type  4   force =   -35.93987985    0.95667894  -25.47757667
     atom   20 type  4   force =   -36.19630152   -0.95172256   25.61111324
     atom   21 type  4   force =    35.84260214    0.95619693  -25.48647483
     atom   22 type  4   force =    34.08012045   -0.90781220   29.17846975
     atom   23 type  5   force =     5.80160150   -0.09901828   -1.04620476
     The local contribution  to forces
     atom    1 type  1   force =     0.74340561    5.10876275  -13.81651890
     atom    2 type  1   force =    39.90581893    6.34359925   -0.70479872
     atom    3 type  1   force =    39.87409408   -6.33233352    0.84077271
     atom    4 type  1   force =   -39.73654725    6.52324499   -0.56745706
     atom    5 type  1   force =   -39.70040401   -6.51218817    0.97781066
     atom    6 type  2   force =     0.13709512    3.66885829   14.10392262
     atom    7 type  2   force =     0.80630830   -4.21530935  -13.76900849
     atom    8 type  3   force =    52.51180060   -0.06817607    0.25265877
     atom    9 type  3   force =   -51.79247219   -0.06611445    1.70963929
     atom   10 type  3   force =    36.29070547    2.07731352   23.17606993
     atom   11 type  3   force =    35.48679117    0.89104865  -22.25146218
     atom   12 type  3   force =    35.47267552   -0.76152338   22.20371990
     atom   13 type  3   force =    36.37441365   -2.24175407  -23.23602991
     atom   14 type  3   force =   -36.22503942    2.10128343   23.19282228
     atom   15 type  3   force =   -35.23140616    1.20393771  -22.38841339
     atom   16 type  3   force =   -35.40538002   -0.78481358   22.21896760
     atom   17 type  3   force =   -36.11376005   -2.55737559  -23.37058556
     atom   18 type  4   force =     0.11706583   -4.46420023   14.03365407
     atom   19 type  4   force =    35.76743947   -0.96915416   25.29130015
     atom   20 type  4   force =    36.03024916    0.97460018  -25.41525831
     atom   21 type  4   force =   -35.66295768   -0.96675388   25.30728818
     atom   22 type  4   force =   -34.20942218    0.93582875  -28.45658038
     atom   23 type  5   force =    -5.42753476    0.08880571    0.34199766
     The core correction contribution to forces
     atom    1 type  1   force =     0.00098207    0.00322263    0.00043969
     atom    2 type  1   force =    -0.01184428   -0.00183441    0.00086715
     atom    3 type  1   force =    -0.01201127    0.00270409   -0.00124565
     atom    4 type  1   force =     0.01370320   -0.00309778    0.00081782
     atom    5 type  1   force =     0.01377790    0.00316440   -0.00138237
     atom    6 type  2   force =    -0.00053277    0.00179615    0.00241227
     atom    7 type  2   force =     0.00028821   -0.00346206   -0.00163758
     atom    8 type  3   force =    -0.03298685    0.00035601   -0.00077990
     atom    9 type  3   force =     0.03043521   -0.00000527   -0.00236723
     atom   10 type  3   force =    -0.02159535    0.00843876   -0.01544922
     atom   11 type  3   force =    -0.02382154    0.01026872    0.01701314
     atom   12 type  3   force =    -0.02144651   -0.00893902   -0.01490588
     atom   13 type  3   force =    -0.02200008   -0.00965098    0.01659326
     atom   14 type  3   force =     0.02198395    0.00825649   -0.01611483
     atom   15 type  3   force =     0.02519136    0.01153623    0.01629283
     atom   16 type  3   force =     0.02168945   -0.00852818   -0.01536898
     atom   17 type  3   force =     0.02294543   -0.01067758    0.01625305
     atom   18 type  4   force =    -0.00081795   -0.00244576    0.00282984
     atom   19 type  4   force =    -0.00953335    0.00001872   -0.00995454
     atom   20 type  4   force =    -0.00838444    0.00034989    0.00978211
     atom   21 type  4   force =     0.00982426    0.00018212   -0.01002105
     atom   22 type  4   force =     0.00507029    0.00020127    0.01137420
     atom   23 type  5   force =     0.00000000    0.00000000    0.00000000
     The Hubbard contrib.    to forces
     atom    1 type  1   force =     0.00000000    0.00000000    0.00000000
     atom    2 type  1   force =     0.00000000    0.00000000    0.00000000
     atom    3 type  1   force =     0.00000000    0.00000000    0.00000000
     atom    4 type  1   force =     0.00000000    0.00000000    0.00000000
     atom    5 type  1   force =     0.00000000    0.00000000    0.00000000
     atom    6 type  2   force =     0.00000000    0.00000000    0.00000000
     atom    7 type  2   force =     0.00000000    0.00000000    0.00000000
     atom    8 type  3   force =     0.00000000    0.00000000    0.00000000
     atom    9 type  3   force =     0.00000000    0.00000000    0.00000000
     atom   10 type  3   force =     0.00000000    0.00000000    0.00000000
     atom   11 type  3   force =     0.00000000    0.00000000    0.00000000
     atom   12 type  3   force =     0.00000000    0.00000000    0.00000000
     atom   13 type  3   force =     0.00000000    0.00000000    0.00000000
     atom   14 type  3   force =     0.00000000    0.00000000    0.00000000
     atom   15 type  3   force =     0.00000000    0.00000000    0.00000000
     atom   16 type  3   force =     0.00000000    0.00000000    0.00000000
     atom   17 type  3   force =     0.00000000    0.00000000    0.00000000
     atom   18 type  4   force =     0.00000000    0.00000000    0.00000000
     atom   19 type  4   force =     0.00000000    0.00000000    0.00000000
     atom   20 type  4   force =     0.00000000    0.00000000    0.00000000
     atom   21 type  4   force =     0.00000000    0.00000000    0.00000000
     atom   22 type  4   force =     0.00000000    0.00000000    0.00000000
     atom   23 type  5   force =     0.00000000    0.00000000    0.00000000
     The SCF correction term to forces
     atom    1 type  1   force =    -0.00389319    0.00127018    0.00320929
     atom    2 type  1   force =    -0.00439704    0.00290667    0.00713608
     atom    3 type  1   force =    -0.00419196   -0.00080759    0.00629599
     atom    4 type  1   force =     0.00251687    0.00243059    0.00659788
     atom    5 type  1   force =     0.00263199   -0.00158006    0.00629028
     atom    6 type  2   force =    -0.00274458   -0.01865214    0.03022045
     atom    7 type  2   force =    -0.00320362   -0.00467043    0.00153464
     atom    8 type  3   force =     0.00701964   -0.00184593    0.02119579
     atom    9 type  3   force =    -0.00905059   -0.00079447    0.01878684
     atom   10 type  3   force =     0.00291066   -0.00974853    0.00795216
     atom   11 type  3   force =    -0.00152396    0.00505048   -0.00900153
     atom   12 type  3   force =     0.00023403    0.01173181    0.00804373
     atom   13 type  3   force =    -0.00044265    0.00046762   -0.00933726
     atom   14 type  3   force =    -0.00339191   -0.00924210    0.00694418
     atom   15 type  3   force =    -0.00034112    0.00376741   -0.00742850
     atom   16 type  3   force =    -0.00105593    0.01172251    0.00713603
     atom   17 type  3   force =    -0.00100886    0.00045591   -0.00833722
     atom   18 type  4   force =    -0.00206887    0.01308717    0.02928883
     atom   19 type  4   force =    -0.00614055   -0.00153706    0.00293047
     atom   20 type  4   force =     0.00687658   -0.00342974   -0.01214638
     atom   21 type  4   force =     0.00515697   -0.00156771    0.00364258
     atom   22 type  4   force =    -0.00745352   -0.00247695   -0.01260776
     atom   23 type  5   force =    -0.00056713   -0.00020083    0.00018533

     Total force =     1.093342     Total SCF correction =     0.071424


     Computing stress (Cartesian axis) and pressure


     negative rho (up, down):  9.083E-01 9.083E-01
          total   stress  (Ry/bohr**3)                   (kbar)     P=       99.73
   0.00071065  -0.00000287  -0.00011352          104.54       -0.42      -16.70
  -0.00000287   0.00069181  -0.00000857           -0.42      101.77       -1.26
  -0.00011352  -0.00000857   0.00063139          -16.70       -1.26       92.88


     Molecular Dynamics Calculation

     Starting temperature  =   300.00 K

     temperature is set once at start

     mass Hf               =   178.49
     mass Nb               =    92.91
     mass Ta               =   180.95
     mass Zr               =    91.22
     mass H                =     2.01
     Time step             =     4.20 a.u.,  0.2032 femto-seconds

     Entering Dynamics:    iteration =     1
                           time      =   0.0002 pico-seconds


ATOMIC_POSITIONS (angstrom)
Hf            2.6700321410        2.8271221649        6.6040858014
Hf            1.2530199392        1.2862838042        5.0585874988
Hf            1.2555162171        7.3898045460        5.0881892314
Hf            4.0870450864        1.2862835421        5.0585874262
Hf            4.0845488937        7.3898048340        5.0881891385
Nb            2.6700324728        2.7969300195        3.5157052003
Nb            2.6700317765        5.8763799796        6.6351189661
Ta            1.2094025552        4.3409279337        5.0712470579
Ta            4.1306628000        4.3409279153        5.0712478384
Ta            1.3072844837        1.3141216807        2.0588988037
Ta            1.3028203301        1.3083900780        8.0947023017
Ta            1.3040415946        7.3758271762        2.0463570154
Ta            1.3077428004        7.3650838251        8.0861254302
Ta            4.0327804205        1.3141217100        2.0588988988
Ta            4.0372445273        1.3083899367        8.0947022211
Ta            4.0360233410        7.3758271625        2.0463571387
Ta            4.0323220034        7.3650839516        8.0861253359
Zr            2.6700321259        5.8662869209        3.5275045256
Zr            1.2438599155        4.3220777178        2.0001150276
Zr            1.2404107689        4.3541236737        8.1498837691
Zr            4.0962052358        4.3220776450        2.0001151687
Zr            4.0996381087        4.3541242325        8.1499163663
H             4.5950411578        4.3399733988        6.8008977306


     kinetic energy (Ekin) =           8.09844668 Ry
     temperature           =       38746.77579344 K 
     Ekin + Etot (const)   =       -2934.70156219 Ry
     Ions kinetic stress =          143.03 (kbar)
                                     28.75           0.00         107.27
                                      0.00           0.00           0.00
                                    107.27           0.00         400.34



     Linear momentum :    0.0000000000    0.0000000000    0.0000000000

     File outdir/pwscf.msd.dat deleted, as requested

     Writing config-only to output data dir outdir/pwscf.save/
     NEW-OLD atomic charge density approx. for the potential

     Check: negative core charge=   -0.000002

     negative rho (up, down):  9.084E-01 9.084E-01
     Generating pointlists ...
     new r_m :   0.1085 (alat units)  1.9147 (a.u.) for type    1
     new r_m :   0.0791 (alat units)  1.3960 (a.u.) for type    3

     total cpu time spent up to now is      361.6 secs

     Self-consistent Calculation

     iteration #  1     ecut=   120.00 Ry     beta= 0.70
     Davidson diagonalization with overlap
     c_bands:  1 eigenvalues not converged
     c_bands:  1 eigenvalues not converged
     ethr =  1.00E-06,  avg # of iterations = 20.0

     negative rho (up, down):  9.086E-01 9.086E-01

     total cpu time spent up to now is      410.0 secs

     total energy              =   -2942.93000164 Ry
     estimated scf accuracy    <       0.14393426 Ry

     total magnetization       =     0.03 Bohr mag/cell
     absolute magnetization    =     0.04 Bohr mag/cell

     iteration #  2     ecut=   120.00 Ry     beta= 0.70
     Davidson diagonalization with overlap
     ethr =  5.20E-05,  avg # of iterations =  3.0

     negative rho (up, down):  9.085E-01 9.085E-01

     total cpu time spent up to now is      448.0 secs

     total energy              =   -2942.94505504 Ry
     estimated scf accuracy    <       0.04015212 Ry

     total magnetization       =     0.02 Bohr mag/cell
     absolute magnetization    =     0.04 Bohr mag/cell

     iteration #  3     ecut=   120.00 Ry     beta= 0.70
     Davidson diagonalization with overlap
     ethr =  1.45E-05,  avg # of iterations =  2.0

     negative rho (up, down):  9.086E-01 9.086E-01

     total cpu time spent up to now is      474.9 secs

     total energy              =   -2942.94753842 Ry
     estimated scf accuracy    <       0.00562269 Ry

     total magnetization       =     0.02 Bohr mag/cell
     absolute magnetization    =     0.04 Bohr mag/cell

     iteration #  4     ecut=   120.00 Ry     beta= 0.70
     Davidson diagonalization with overlap
     ethr =  2.03E-06,  avg # of iterations =  2.0

     negative rho (up, down):  9.087E-01 9.087E-01

     Magnetic moment per site  (integrated on atomic sphere of radius R)
     atom   1 (R=0.108)  charge=  9.2272  magn= -0.0001
     atom   2 (R=0.108)  charge=  8.8666  magn=  0.0001
     atom   3 (R=0.108)  charge=  8.8666  magn=  0.0001
     atom   4 (R=0.108)  charge=  8.8700  magn=  0.0001
     atom   5 (R=0.108)  charge=  8.8698  magn=  0.0000
     atom   6 (R=0.110)  charge= 10.3465  magn=  0.0001
     atom   7 (R=0.110)  charge= 10.3493  magn= -0.0000
     atom   8 (R=0.079)  charge=  7.1130  magn=  0.0000
     atom   9 (R=0.079)  charge=  7.1192  magn=  0.0001
     atom  10 (R=0.079)  charge=  7.0978  magn=  0.0006
     atom  11 (R=0.079)  charge=  7.0965  magn=  0.0007
     atom  12 (R=0.079)  charge=  7.0977  magn=  0.0009
     atom  13 (R=0.079)  charge=  7.0973  magn=  0.0004
     atom  14 (R=0.079)  charge=  7.0969  magn=  0.0003
     atom  15 (R=0.079)  charge=  7.0957  magn= -0.0001
     atom  16 (R=0.079)  charge=  7.0978  magn= -0.0000
     atom  17 (R=0.079)  charge=  7.0963  magn=  0.0003
     atom  18 (R=0.056)  charge=  2.8345  magn=  0.0000
     atom  19 (R=0.056)  charge=  2.8124  magn=  0.0000
     atom  20 (R=0.056)  charge=  2.8124  magn=  0.0002
     atom  21 (R=0.056)  charge=  2.8127  magn= -0.0001
     atom  22 (R=0.056)  charge=  2.8237  magn=  0.0000
     atom  23 (R=0.056)  charge=  0.7411  magn=  0.0000

     total cpu time spent up to now is      490.9 secs

     End of self-consistent calculation

 ------ SPIN UP ------------


          k = 0.0000 0.0000 0.0000 ( 61588 PWs)   bands (ev):

   -60.7542 -60.7513 -60.7081 -60.7058 -60.6776 -60.6712 -60.6334 -60.6260
   -60.5421 -60.5160 -54.3631 -54.3175 -54.2373 -54.1920 -52.7194 -46.2678
   -46.2302 -41.5885 -41.5633 -41.4659 -41.1936 -39.7649 -27.7562 -27.7494
   -27.6686 -27.6615 -27.5737 -27.5616 -27.4448 -27.4361 -27.4234 -27.3174
   -27.2985 -27.2477 -27.2380 -27.2315 -27.2040 -27.1862 -27.1601 -27.1522
   -27.1366 -27.1130 -27.0764 -27.0474 -26.9338 -26.9262 -26.9211 -26.9115
   -26.8616 -26.8560 -26.8339 -26.8240 -24.1481 -23.9375 -23.6411 -23.5565
   -23.2968 -23.1678 -23.1424 -23.0469 -22.9128 -22.8431 -22.8248 -22.6066
   -22.4981 -22.4390 -22.3781 -22.3455 -22.2523 -22.2159 -21.7485 -21.7214
   -21.6401 -20.1510 -19.8675 -19.8057 -19.7461 -19.6032 -19.5683 -19.5587
   -19.5131 -19.4935 -19.3216 -19.2263 -19.0875 -18.1175 -17.9071 -17.7732
     0.9198   1.8452   2.9640   3.1664   3.3210   3.4386   3.4990   3.5912
     3.7039   3.7595   3.9484   4.0076   4.2665   4.4491   4.5908   4.7206
     4.7612   5.0063   5.0564   5.0867   5.2044   5.2908   5.3053   5.3274
     5.4095   5.5735   5.5870   5.7117   5.7571   5.7636   5.8064   5.9281
     5.9547   6.0712   6.1617   6.2367   6.3001   6.3723   6.3864   6.4022
     6.5059   6.6472   6.6687   6.6909   6.8678   7.0053   7.0536   7.0940
     7.1451   7.1618   7.2535   7.3326   7.4006   7.4498   7.5379   7.6155
     7.6716   7.7597   7.9064   7.9965   8.0681   8.1222   8.1471   8.1528
     8.2730   8.2999   8.3294   8.3834   8.5232   8.5475   8.6050   8.7870
     8.8503   8.9337   9.0110   9.0785   9.2142   9.2930   9.3031

 ------ SPIN DOWN ----------


          k = 0.0000 0.0000 0.0000 ( 61588 PWs)   bands (ev):

   -60.7536 -60.7508 -60.7073 -60.7053 -60.6770 -60.6707 -60.6327 -60.6257
   -60.5419 -60.5159 -54.3631 -54.3175 -54.2373 -54.1919 -52.7194 -46.2678
   -46.2301 -41.5888 -41.5623 -41.4667 -41.1937 -39.7648 -27.7554 -27.7486
   -27.6674 -27.6607 -27.5729 -27.5608 -27.4442 -27.4353 -27.4231 -27.3168
   -27.2980 -27.2471 -27.2372 -27.2312 -27.2035 -27.1860 -27.1597 -27.1519
   -27.1360 -27.1127 -27.0762 -27.0473 -26.9329 -26.9256 -26.9205 -26.9106
   -26.8608 -26.8548 -26.8330 -26.8235 -24.1481 -23.9374 -23.6410 -23.5565
   -23.2967 -23.1677 -23.1423 -23.0468 -22.9127 -22.8430 -22.8248 -22.6065
   -22.4981 -22.4389 -22.3781 -22.3455 -22.2522 -22.2159 -21.7485 -21.7214
   -21.6402 -20.1515 -19.8668 -19.8062 -19.7470 -19.6028 -19.5682 -19.5578
   -19.5123 -19.4944 -19.3226 -19.2265 -19.0874 -18.1175 -17.9071 -17.7732
     0.9200   1.8457   2.9651   3.1667   3.3214   3.4389   3.5003   3.5914
     3.7041   3.7600   3.9496   4.0078   4.2669   4.4498   4.5914   4.7215
     4.7616   5.0070   5.0566   5.0875   5.2049   5.2916   5.3059   5.3277
     5.4103   5.5737   5.5873   5.7119   5.7576   5.7640   5.8068   5.9280
     5.9549   6.0719   6.1626   6.2371   6.3005   6.3730   6.3869   6.4026
     6.5067   6.6477   6.6693   6.6916   6.8686   7.0061   7.0556   7.0960
     7.1466   7.1626   7.2561   7.3335   7.4019   7.4528   7.5376   7.6163
     7.6728   7.7609   7.9072   7.9973   8.0691   8.1236   8.1478   8.1534
     8.2752   8.3009   8.3298   8.3851   8.5240   8.5479   8.6057   8.7876
     8.8512   8.9357   9.0116   9.0799   9.2147   9.2940   9.3039

     the Fermi energy is     7.2710 ev

!    total energy              =   -2942.94754999 Ry
     estimated scf accuracy    <       0.00056944 Ry
     smearing contrib. (-TS)   =      -0.10100141 Ry
     internal energy E=F+TS    =   -2942.84654858 Ry

     total magnetization       =     0.02 Bohr mag/cell
     absolute magnetization    =     0.04 Bohr mag/cell

     convergence has been achieved in   4 iterations

     negative rho (up, down):  9.087E-01 9.087E-01

     Forces acting on atoms (cartesian axes, Ry/au):

     atom    1 type  1   force =    -0.01240238   -0.03052283    0.00947040
     atom    2 type  1   force =    -0.11790018   -0.01355607   -0.00046576
     atom    3 type  1   force =    -0.11546127    0.00944726    0.00534802
     atom    4 type  1   force =     0.11828359   -0.02072605   -0.00579106
     atom    5 type  1   force =     0.11900183    0.01697636   -0.00078770
     atom    6 type  2   force =    -0.00108824   -0.01375488    0.00888675
     atom    7 type  2   force =    -0.01481081    0.02689117   -0.00827909
     atom    8 type  3   force =    -0.10745193    0.00205270   -0.00299168
     atom    9 type  3   force =     0.10916520    0.00182274   -0.00722756
     atom   10 type  3   force =    -0.02523769   -0.03460363   -0.06249528
     atom   11 type  3   force =    -0.01842217   -0.03761229    0.05537701
     atom   12 type  3   force =    -0.01988466    0.03988215   -0.05709152
     atom   13 type  3   force =    -0.01814139    0.03206862    0.05886603
     atom   14 type  3   force =     0.02146677   -0.03329986   -0.05887750
     atom   15 type  3   force =     0.01506260   -0.03859619    0.05577298
     atom   16 type  3   force =     0.01725644    0.03918307   -0.05268668
     atom   17 type  3   force =     0.01356180    0.03264234    0.05900032
     atom   18 type  4   force =    -0.00689240    0.02482601   -0.01117011
     atom   19 type  4   force =    -0.13113824   -0.00525156   -0.11628977
     atom   20 type  4   force =    -0.12613184    0.00484839    0.11531450
     atom   21 type  4   force =     0.13601627   -0.00652627   -0.11903404
     atom   22 type  4   force =     0.01618234    0.01143096    0.42403317
     atom   23 type  5   force =     0.14896636   -0.00762214   -0.28888143
     The non-local contrib.  to forces
     atom    1 type  1   force =     0.01579185   -0.00361099    0.03097334
     atom    2 type  1   force =    -0.24624440   -0.16243554    0.02034238
     atom    3 type  1   force =    -0.23919392    0.15637292   -0.02133034
     atom    4 type  1   force =     0.25501280   -0.16263884    0.02891615
     atom    5 type  1   force =     0.24836104    0.15437179   -0.01336714
     atom    6 type  2   force =     0.00937761   -0.04477551   -0.06244815
     atom    7 type  2   force =    -0.00003729    0.07447620    0.04788382
     atom    8 type  3   force =    -0.26277343   -0.00029601    0.00647241
     atom    9 type  3   force =     0.24927599   -0.00371871    0.06031052
     atom   10 type  3   force =    -0.20969872    0.00316122   -0.20234264
     atom   11 type  3   force =    -0.21797114    0.00533987    0.19451831
     atom   12 type  3   force =    -0.20079918   -0.01780962   -0.17336629
     atom   13 type  3   force =    -0.20734332   -0.00096391    0.20520620
     atom   14 type  3   force =     0.21501472    0.01008705   -0.21010912
     atom   15 type  3   force =     0.22563118    0.01217540    0.18428059
     atom   16 type  3   force =     0.20482988   -0.02545264   -0.17890742
     atom   17 type  3   force =     0.21139719   -0.00829218    0.19144950
     atom   18 type  4   force =     0.01096695    0.05244536   -0.06102464
     atom   19 type  4   force =     0.05727049    0.00859810    0.07763428
     atom   20 type  4   force =     0.04586832   -0.01333910   -0.07975870
     atom   21 type  4   force =    -0.06676767    0.00555744    0.06983708
     atom   22 type  4   force =    -0.02597886   -0.00950995   -0.03624593
     atom   23 type  5   force =    -0.04069773   -0.00105947    0.03627668
     The ionic contribution  to forces
     atom    1 type  1   force =    -0.80831820   -5.18790092   13.86347530
     atom    2 type  1   force =   -39.76887093   -6.20218303    0.67705082
     atom    3 type  1   force =   -39.74262588    6.18991022   -0.81731694
     atom    4 type  1   force =    39.58483923   -6.41306595    0.52804286
     atom    5 type  1   force =    39.55580182    6.40532579   -0.96669236
     atom    6 type  2   force =    -0.16044724   -3.63935780  -14.09912302
     atom    7 type  2   force =    -0.86192277    4.23098040   13.79636112
     atom    8 type  3   force =   -52.36643790    0.07191711   -0.28192600
     atom    9 type  3   force =    51.50010001    0.07298481   -2.21036942
     atom   10 type  3   force =   -36.08755197   -2.11567526  -23.03875370
     atom   11 type  3   force =   -35.25617592   -0.94733499   22.11748958
     atom   12 type  3   force =   -35.27156453    0.81803584  -22.09160901
     atom   13 type  3   force =   -36.15698403    2.28180720   23.09577377
     atom   14 type  3   force =    36.01352002   -2.14312127  -23.05565540
     atom   15 type  3   force =    35.01007727   -1.24322465   22.26935874
     atom   16 type  3   force =    35.19798826    0.84526204  -22.10781582
     atom   17 type  3   force =    35.90809167    2.58028542   23.24787624
     atom   18 type  4   force =    -0.14996671    4.44227404  -14.04833175
     atom   19 type  4   force =   -35.94292908    0.95665352  -25.49652189
     atom   20 type  4   force =   -36.18801307   -0.95176398   25.63396137
     atom   21 type  4   force =    35.84485540    0.95615787  -25.53108445
     atom   22 type  4   force =    34.75427620   -0.92205517   28.47109943
     atom   23 type  5   force =     5.39225838   -0.08591125    0.04471050
     The local contribution  to forces
     atom    1 type  1   force =     0.78621644    5.16152754  -13.86765326
     atom    2 type  1   force =    39.89654182    6.34911733   -0.68721351
     atom    3 type  1   force =    39.86805478   -6.33494633    0.85594865
     atom    4 type  1   force =   -39.72791523    6.55662741   -0.55523507
     atom    5 type  1   force =   -39.69286233   -6.54399096    0.98850608
     atom    6 type  2   force =     0.15024948    3.66088322   14.17021490
     atom    7 type  2   force =     0.85626042   -4.28207678  -13.83384747
     atom    8 type  3   force =    52.55051351   -0.07012590    0.28846246
     atom    9 type  3   force =   -51.65094519   -0.06723650    2.18986811
     atom   10 type  3   force =    36.28820334    2.05954295   23.18876066
     atom   11 type  3   force =    35.46829699    0.89083264  -22.27505030
     atom   12 type  3   force =    35.46846585   -0.73874258   22.21991302
     atom   13 type  3   force =    36.35748557   -2.23058598  -23.26124573
     atom   14 type  3   force =   -36.22602842    2.08219782   23.21982670
     atom   15 type  3   force =   -35.23992992    1.19273017  -22.41011207
     atom   16 type  3   force =   -35.40302631   -0.76016185   22.24786466
     atom   17 type  3   force =   -36.12165733   -2.53722328  -23.39363091
     atom   18 type  4   force =     0.13274334   -4.46100909   14.10019235
     atom   19 type  4   force =    35.76124354   -0.97271200   25.31066584
     atom   20 type  4   force =    36.03052074    0.96617409  -25.44989315
     atom   21 type  4   force =   -35.64645205   -0.97006557   25.34647493
     atom   22 type  4   force =   -34.71939708    0.94018337  -28.02367138
     atom   23 type  5   force =    -5.20371242    0.07930432   -0.37122306
     The core correction contribution to forces
     atom    1 type  1   force =     0.00125553    0.00402317    0.00024565
     atom    2 type  1   force =    -0.01169702   -0.00159020    0.00103198
     atom    3 type  1   force =    -0.01199190    0.00240151   -0.00118696
     atom    4 type  1   force =     0.01402845   -0.00245468    0.00087908
     atom    5 type  1   force =     0.01407168    0.00235493   -0.00120836
     atom    6 type  2   force =    -0.00058660    0.00199072    0.00248911
     atom    7 type  2   force =     0.00043317   -0.00376849   -0.00174112
     atom    8 type  3   force =    -0.03228026    0.00025057   -0.00040635
     atom    9 type  3   force =     0.02687836    0.00000138   -0.00398135
     atom   10 type  3   force =    -0.02139905    0.00866646   -0.01532335
     atom   11 type  3   force =    -0.02337737    0.01000323    0.01702457
     atom   12 type  3   force =    -0.02139480   -0.00908832   -0.01484964
     atom   13 type  3   force =    -0.02141014   -0.00945957    0.01649047
     atom   14 type  3   force =     0.02159008    0.00838129   -0.01628780
     atom   15 type  3   force =     0.02532248    0.01093017    0.01572785
     atom   16 type  3   force =     0.02124908   -0.00873089   -0.01546901
     atom   17 type  3   force =     0.02272806   -0.00979029    0.01572697
     atom   18 type  4   force =    -0.00074130   -0.00266036    0.00290969
     atom   19 type  4   force =    -0.00944223    0.00004764   -0.00991048
     atom   20 type  4   force =    -0.00867737    0.00032953    0.00996907
     atom   21 type  4   force =     0.01005969    0.00019224   -0.00985417
     atom   22 type  4   force =     0.00586325    0.00019495    0.01152962
     atom   23 type  5   force =     0.00000000    0.00000000    0.00000000
     The Hubbard contrib.    to forces
     atom    1 type  1   force =     0.00000000    0.00000000    0.00000000
     atom    2 type  1   force =     0.00000000    0.00000000    0.00000000
     atom    3 type  1   force =     0.00000000    0.00000000    0.00000000
     atom    4 type  1   force =     0.00000000    0.00000000    0.00000000
     atom    5 type  1   force =     0.00000000    0.00000000    0.00000000
     atom    6 type  2   force =     0.00000000    0.00000000    0.00000000
     atom    7 type  2   force =     0.00000000    0.00000000    0.00000000
     atom    8 type  3   force =     0.00000000    0.00000000    0.00000000
     atom    9 type  3   force =     0.00000000    0.00000000    0.00000000
     atom   10 type  3   force =     0.00000000    0.00000000    0.00000000
     atom   11 type  3   force =     0.00000000    0.00000000    0.00000000
     atom   12 type  3   force =     0.00000000    0.00000000    0.00000000
     atom   13 type  3   force =     0.00000000    0.00000000    0.00000000
     atom   14 type  3   force =     0.00000000    0.00000000    0.00000000
     atom   15 type  3   force =     0.00000000    0.00000000    0.00000000
     atom   16 type  3   force =     0.00000000    0.00000000    0.00000000
     atom   17 type  3   force =     0.00000000    0.00000000    0.00000000
     atom   18 type  4   force =     0.00000000    0.00000000    0.00000000
     atom   19 type  4   force =     0.00000000    0.00000000    0.00000000
     atom   20 type  4   force =     0.00000000    0.00000000    0.00000000
     atom   21 type  4   force =     0.00000000    0.00000000    0.00000000
     atom   22 type  4   force =     0.00000000    0.00000000    0.00000000
     atom   23 type  5   force =     0.00000000    0.00000000    0.00000000
     The SCF correction term to forces
     atom    1 type  1   force =    -0.00716841   -0.00444346   -0.01665783
     atom    2 type  1   force =     0.01254995    0.00365354   -0.01076463
     atom    3 type  1   force =     0.01047523   -0.00417289   -0.00985358
     atom    4 type  1   force =    -0.00750208    0.00092417   -0.00748128
     atom    5 type  1   force =    -0.00619079   -0.00096703   -0.00711313
     atom    6 type  2   force =     0.00049809    0.00762266   -0.00133330
     atom    7 type  2   force =    -0.00936476    0.00739802   -0.01602263
     atom    8 type  3   force =     0.00370574    0.00042509   -0.01468140
     atom    9 type  3   force =    -0.01596438   -0.00009008   -0.04214262
     atom   10 type  3   force =     0.00538830    0.00981917    0.00607655
     atom   11 type  3   force =     0.01098486    0.00366511    0.00230765
     atom   12 type  3   force =     0.00558759   -0.01239500    0.00373321
     atom   13 type  3   force =     0.01029012   -0.00861094    0.00355411
     atom   14 type  3   force =    -0.00245005    0.00927342    0.00426092
     atom   15 type  3   force =    -0.00585883   -0.01108911   -0.00256932
     atom   16 type  3   force =    -0.00360488   -0.01161542    0.00255371
     atom   17 type  3   force =    -0.00681821    0.00778083   -0.00150868
     atom   18 type  4   force =     0.00028491   -0.00610577   -0.00400296
     atom   19 type  4   force =     0.00289863    0.00227934    0.00275528
     atom   20 type  4   force =    -0.00565088    0.00356602    0.00194871
     atom   21 type  4   force =    -0.00549951    0.00174992    0.00650537
     atom   22 type  4   force =     0.00159842    0.00273593    0.00223423
     atom   23 type  5   force =     0.00129772    0.00016243    0.00226724

     Total force =     0.708261     Total SCF correction =     0.072345
     SCF correction compared to forces is large: reduce conv_thr to get better values


     Computing stress (Cartesian axis) and pressure


     negative rho (up, down):  9.087E-01 9.087E-01
          total   stress  (Ry/bohr**3)                   (kbar)     P=       93.75
   0.00065801  -0.00000230  -0.00005009           96.80       -0.34       -7.37
  -0.00000230   0.00068639  -0.00000994           -0.34      100.97       -1.46
  -0.00005009  -0.00000994   0.00056745           -7.37       -1.46       83.47


     Entering Dynamics:    iteration =     2
                           time      =   0.0004 pico-seconds


ATOMIC_POSITIONS (angstrom)
Hf            2.6700636134        2.8271195492        6.6042079276
Hf            1.2530424331        1.2862826492        5.0587087448
Hf            1.2555389106        7.3898053393        5.0883110022
Hf            4.0870877261        1.2862817136        5.0587082941
Hf            4.0845916003        7.3898063473        5.0883104645
Nb            2.6700648687        2.7969279172        3.5158281636
Nb            2.6700619632        5.8763842472        6.6352390763
Ta            1.2094259726        4.3409281320        5.0713681143
Ta            4.1307049207        4.3409280821        5.0713694354
Ta            1.3073148549        1.3141188135        2.0590149601
Ta            1.3028513034        1.3083868911        8.0948285354
Ta            1.3040724416        7.3758304856        2.0464736197
Ta            1.3077737757        7.3650865169        8.0862519714
Ta            4.0328148261        1.3141189459        2.0590153551
Ta            4.0372783072        1.3083865528        8.0948283965
Ta            4.0360573667        7.3758304187        2.0464741156
Ta            4.0323556587        7.3650868023        8.0862517904
Zr            2.6700635210        5.8662907857        3.5276238668
Zr            1.2438704891        4.3220768815        2.0002169994
Zr            1.2404219645        4.3541246072        8.1500249351
Zr            4.0962604471        4.3220765927        2.0002169735
Zr            4.0996635330        4.3541264639        8.1501247891
H             4.5425748948        4.3399080871        6.5962949868


     kinetic energy (Ekin) =           8.24639263 Ry
     temperature           =       39454.61875377 K 
     Ekin + Etot (const)   =       -2934.70115736 Ry
     Ions kinetic stress =          145.64 (kbar)
                                     27.51           0.02         106.12
                                      0.02           0.00           0.09
                                    106.12           0.09         409.41



     Linear momentum :   -0.0000000000   -0.0000000000    0.0000000000

     Writing config-only to output data dir outdir/pwscf.save/
     NEW-OLD atomic charge density approx. for the potential

     Check: negative core charge=   -0.000002

     negative rho (up, down):  9.087E-01 9.087E-01
     Generating pointlists ...
     new r_m :   0.1063 (alat units)  1.8765 (a.u.) for type    1
     new r_m :   0.1070 (alat units)  1.8884 (a.u.) for type    2
     new r_m :   0.0698 (alat units)  1.2313 (a.u.) for type    3

     total cpu time spent up to now is      515.4 secs

     Self-consistent Calculation

     iteration #  1     ecut=   120.00 Ry     beta= 0.70
     Davidson diagonalization with overlap
     ethr =  1.00E-06,  avg # of iterations = 12.5

     negative rho (up, down):  9.089E-01 9.089E-01

     total cpu time spent up to now is      552.7 secs

     total energy              =   -2942.97163717 Ry
     estimated scf accuracy    <       0.14117044 Ry

     total magnetization       =     0.02 Bohr mag/cell
     absolute magnetization    =     0.03 Bohr mag/cell

     iteration #  2     ecut=   120.00 Ry     beta= 0.70
     Davidson diagonalization with overlap
     ethr =  5.10E-05,  avg # of iterations =  2.5

     negative rho (up, down):  9.089E-01 9.089E-01

     total cpu time spent up to now is      590.3 secs

     total energy              =   -2942.98695817 Ry
     estimated scf accuracy    <       0.03794533 Ry

     total magnetization       =     0.02 Bohr mag/cell
     absolute magnetization    =     0.03 Bohr mag/cell

     iteration #  3     ecut=   120.00 Ry     beta= 0.70
     Davidson diagonalization with overlap
     ethr =  1.37E-05,  avg # of iterations =  2.0

     negative rho (up, down):  9.089E-01 9.088E-01

     total cpu time spent up to now is      625.5 secs

     total energy              =   -2942.98907934 Ry
     estimated scf accuracy    <       0.00408271 Ry

     total magnetization       =     0.02 Bohr mag/cell
     absolute magnetization    =     0.03 Bohr mag/cell

     iteration #  4     ecut=   120.00 Ry     beta= 0.70
     Davidson diagonalization with overlap
     ethr =  1.47E-06,  avg # of iterations =  2.0

     negative rho (up, down):  9.088E-01 9.088E-01

     Magnetic moment per site  (integrated on atomic sphere of radius R)
     atom   1 (R=0.106)  charge=  9.0682  magn= -0.0001
     atom   2 (R=0.106)  charge=  8.7382  magn=  0.0000
     atom   3 (R=0.106)  charge=  8.7379  magn=  0.0000
     atom   4 (R=0.106)  charge=  8.7416  magn= -0.0000
     atom   5 (R=0.106)  charge=  8.7408  magn= -0.0000
     atom   6 (R=0.107)  charge= 10.1237  magn=  0.0000
     atom   7 (R=0.107)  charge= 10.1252  magn= -0.0001
     atom   8 (R=0.070)  charge=  5.8049  magn=  0.0000
     atom   9 (R=0.070)  charge=  5.8230  magn= -0.0000
     atom  10 (R=0.070)  charge=  5.7921  magn=  0.0003
     atom  11 (R=0.070)  charge=  5.7918  magn=  0.0004
     atom  12 (R=0.070)  charge=  5.7901  magn=  0.0005
     atom  13 (R=0.070)  charge=  5.7938  magn=  0.0003
     atom  14 (R=0.070)  charge=  5.7887  magn=  0.0001
     atom  15 (R=0.070)  charge=  5.7890  magn= -0.0000
     atom  16 (R=0.070)  charge=  5.7878  magn=  0.0000
     atom  17 (R=0.070)  charge=  5.7899  magn=  0.0001
     atom  18 (R=0.056)  charge=  2.8340  magn=  0.0000
     atom  19 (R=0.056)  charge=  2.8124  magn=  0.0001
     atom  20 (R=0.056)  charge=  2.8125  magn=  0.0001
     atom  21 (R=0.056)  charge=  2.8128  magn= -0.0001
     atom  22 (R=0.056)  charge=  2.8196  magn=  0.0001
     atom  23 (R=0.056)  charge=  0.7190  magn=  0.0000

     total cpu time spent up to now is      644.6 secs

     End of self-consistent calculation

 ------ SPIN UP ------------


          k = 0.0000 0.0000 0.0000 ( 61588 PWs)   bands (ev):

   -60.7645 -60.7543 -60.7192 -60.7070 -60.6831 -60.6769 -60.6395 -60.6318
   -60.5313 -60.4283 -54.3760 -54.3298 -54.2509 -54.2048 -52.7484 -46.2932
   -46.2293 -41.5899 -41.5664 -41.4649 -41.3632 -39.7706 -27.7642 -27.7531
   -27.6724 -27.6685 -27.5782 -27.5663 -27.4505 -27.4354 -27.4022 -27.3275
   -27.3007 -27.2604 -27.2421 -27.2329 -27.2080 -27.1995 -27.1652 -27.1426
   -27.1389 -27.0929 -27.0619 -26.9991 -26.9392 -26.9330 -26.9325 -26.9119
   -26.8725 -26.8556 -26.8354 -26.8316 -24.1599 -23.9492 -23.6525 -23.5684
   -23.3114 -23.1815 -23.1556 -23.0618 -22.9241 -22.8544 -22.8364 -22.6183
   -22.5169 -22.4470 -22.3954 -22.3626 -22.2612 -22.2255 -21.7740 -21.7498
   -21.6658 -20.1547 -19.8564 -19.8090 -19.7482 -19.5817 -19.5712 -19.5635
   -19.5193 -19.4918 -19.4052 -19.3252 -19.2225 -18.1248 -17.9133 -17.7795
     0.5374   1.7690   2.9530   3.1608   3.3101   3.4294   3.4884   3.5768
     3.6962   3.7539   3.9374   3.9912   4.2507   4.4447   4.5816   4.7096
     4.7435   4.9941   5.0626   5.0941   5.2332   5.2796   5.2937   5.3170
     5.4070   5.5628   5.5795   5.6910   5.7453   5.7606   5.7915   5.9230
     5.9454   6.0697   6.1562   6.2243   6.2873   6.3608   6.3779   6.3851
     6.5142   6.6378   6.6710   6.6866   6.8632   7.0007   7.0429   7.0814
     7.1438   7.1620   7.2502   7.3239   7.4190   7.4468   7.5384   7.5950
     7.6652   7.7282   7.9023   7.9826   8.0688   8.1101   8.1480   8.1521
     8.2600   8.2999   8.3278   8.3739   8.5171   8.5407   8.5922   8.7776
     8.8444   8.9307   8.9748   9.0712   9.1972   9.2836   9.2992

 ------ SPIN DOWN ----------


          k = 0.0000 0.0000 0.0000 ( 61588 PWs)   bands (ev):

   -60.7642 -60.7539 -60.7188 -60.7064 -60.6828 -60.6766 -60.6391 -60.6312
   -60.5313 -60.4283 -54.3760 -54.3298 -54.2509 -54.2048 -52.7485 -46.2933
   -46.2293 -41.5898 -41.5658 -41.4653 -41.3625 -39.7706 -27.7638 -27.7524
   -27.6718 -27.6676 -27.5777 -27.5656 -27.4500 -27.4347 -27.4021 -27.3271
   -27.3004 -27.2600 -27.2415 -27.2326 -27.2077 -27.1994 -27.1648 -27.1422
   -27.1387 -27.0928 -27.0618 -26.9991 -26.9387 -26.9327 -26.9319 -26.9112
   -26.8717 -26.8547 -26.8349 -26.8309 -24.1599 -23.9492 -23.6525 -23.5684
   -23.3114 -23.1815 -23.1555 -23.0618 -22.9241 -22.8544 -22.8364 -22.6183
   -22.5169 -22.4470 -22.3954 -22.3626 -22.2612 -22.2255 -21.7740 -21.7499
   -21.6659 -20.1548 -19.8555 -19.8090 -19.7486 -19.5810 -19.5707 -19.5629
   -19.5186 -19.4923 -19.4047 -19.3256 -19.2215 -18.1248 -17.9133 -17.7794
     0.5375   1.7694   2.9538   3.1610   3.3103   3.4296   3.4894   3.5770
     3.6963   3.7542   3.9385   3.9914   4.2510   4.4452   4.5821   4.7103
     4.7438   4.9945   5.0631   5.0946   5.2337   5.2802   5.2941   5.3174
     5.4075   5.5631   5.5798   5.6911   5.7458   5.7611   5.7919   5.9231
     5.9455   6.0703   6.1569   6.2246   6.2876   6.3613   6.3784   6.3854
     6.5148   6.6382   6.6715   6.6871   6.8639   7.0014   7.0446   7.0831
     7.1453   7.1625   7.2523   7.3245   7.4207   7.4491   7.5384   7.5959
     7.6662   7.7292   7.9029   7.9833   8.0696   8.1113   8.1484   8.1527
     8.2619   8.3008   8.3281   8.3755   8.5177   8.5410   8.5928   8.7782
     8.8450   8.9324   8.9754   9.0719   9.1975   9.2845   9.2988

     the Fermi energy is     7.2675 ev

!    total energy              =   -2942.98909600 Ry
     estimated scf accuracy    <       0.00051094 Ry
     smearing contrib. (-TS)   =      -0.10058153 Ry
     internal energy E=F+TS    =   -2942.88851447 Ry

     total magnetization       =     0.02 Bohr mag/cell
     absolute magnetization    =     0.03 Bohr mag/cell

     convergence has been achieved in   4 iterations

     negative rho (up, down):  9.088E-01 9.088E-01

     Forces acting on atoms (cartesian axes, Ry/au):

     atom    1 type  1   force =    -0.01209285   -0.03345863    0.00670686
     atom    2 type  1   force =    -0.11082538   -0.01171778   -0.00590679
     atom    3 type  1   force =    -0.10973623    0.00707207    0.00019987
     atom    4 type  1   force =     0.11311399   -0.01790149   -0.01024006
     atom    5 type  1   force =     0.11403109    0.01410893   -0.00501398
     atom    6 type  2   force =    -0.00225828   -0.01549415    0.00981287
     atom    7 type  2   force =    -0.01565517    0.02975298   -0.00713718
     atom    8 type  3   force =    -0.10807615    0.00261467   -0.00611573
     atom    9 type  3   force =     0.07389737    0.00258271   -0.13022381
     atom   10 type  3   force =    -0.02419094   -0.02980819   -0.06067034
     atom   11 type  3   force =    -0.01369680   -0.03685596    0.05830859
     atom   12 type  3   force =    -0.01862972    0.03460730   -0.05578936
     atom   13 type  3   force =    -0.01218213    0.02996306    0.06174182
     atom   14 type  3   force =     0.02011612   -0.02889343   -0.05787703
     atom   15 type  3   force =     0.01288397   -0.03939263    0.05835017
     atom   16 type  3   force =     0.01540774    0.03442645   -0.05258906
     atom   17 type  3   force =     0.01018028    0.03240022    0.06224475
     atom   18 type  4   force =    -0.00650014    0.02520129   -0.01130825
     atom   19 type  4   force =    -0.13033602   -0.00426498   -0.11688297
     atom   20 type  4   force =    -0.12472267    0.00601862    0.11898329
     atom   21 type  4   force =     0.13558617   -0.00567578   -0.12567463
     atom   22 type  4   force =     0.09216897    0.01030556    0.25514686
     atom   23 type  5   force =     0.10151678   -0.00559084    0.01393410
     The non-local contrib.  to forces
     atom    1 type  1   force =     0.01923091   -0.00306310    0.02817501
     atom    2 type  1   force =    -0.24097207   -0.16143714    0.01603696
     atom    3 type  1   force =    -0.23541154    0.15494079   -0.02543966
     atom    4 type  1   force =     0.25397180   -0.15905545    0.02653056
     atom    5 type  1   force =     0.24709796    0.15040831   -0.01597217
     atom    6 type  2   force =     0.00966091   -0.04683393   -0.06425356
     atom    7 type  2   force =     0.00111733    0.07644955    0.05092595
     atom    8 type  3   force =    -0.26016215   -0.00050628    0.00324768
     atom    9 type  3   force =     0.22956008   -0.00279962    0.03944920
     atom   10 type  3   force =    -0.21007559    0.00485615   -0.20165393
     atom   11 type  3   force =    -0.21456062    0.00567212    0.19715107
     atom   12 type  3   force =    -0.20124110   -0.01993173   -0.17379682
     atom   13 type  3   force =    -0.20283916   -0.00247143    0.20811670
     atom   14 type  3   force =     0.21482671    0.01361400   -0.21286494
     atom   15 type  3   force =     0.22541586    0.01011538    0.18237284
     atom   16 type  3   force =     0.20398569   -0.02927077   -0.18188384
     atom   17 type  3   force =     0.21016021   -0.00747665    0.18876610
     atom   18 type  4   force =     0.00808374    0.05129708   -0.06422493
     atom   19 type  4   force =     0.05665204    0.00910484    0.07477672
     atom   20 type  4   force =     0.05170604   -0.01182183   -0.07740993
     atom   21 type  4   force =    -0.07330890    0.00690572    0.06454050
     atom   22 type  4   force =    -0.02962102   -0.00905890   -0.04967608
     atom   23 type  5   force =    -0.03581624   -0.00149490   -0.01127466
     The ionic contribution  to forces
     atom    1 type  1   force =    -0.83923913   -5.22921648   13.95377581
     atom    2 type  1   force =   -39.77946210   -6.21022731    0.68174266
     atom    3 type  1   force =   -39.75325784    6.19801472   -0.81233729
     atom    4 type  1   force =    39.58564837   -6.44923026    0.53444720
     atom    5 type  1   force =    39.55666050    6.44178710   -0.95946080
     atom    6 type  2   force =    -0.18268482   -3.65980472  -14.13493755
     atom    7 type  2   force =    -0.89119122    4.27269480   13.89352903
     atom    8 type  3   force =   -52.40913739    0.07192852   -0.28023370
     atom    9 type  3   force =    51.32610880    0.07366686   -2.84127082
     atom   10 type  3   force =   -36.09009792   -2.11709557  -23.05217326
     atom   11 type  3   force =   -35.25319137   -0.94402782   22.12859709
     atom   12 type  3   force =   -35.27409657    0.81943836  -22.10502487
     atom   13 type  3   force =   -36.15397283    2.27851537   23.10701285
     atom   14 type  3   force =    36.01470056   -2.14648339  -23.07939630
     atom   15 type  3   force =    35.02597285   -1.20901400   22.28716690
     atom   16 type  3   force =    35.19923370    0.84851632  -22.13150067
     atom   17 type  3   force =    35.92415109    2.54589367   23.26598312
     atom   18 type  4   force =    -0.17089799    4.46126357  -14.08167052
     atom   19 type  4   force =   -35.94706008    0.95660185  -25.51564022
     atom   20 type  4   force =   -36.17510491   -0.95181525   25.65239317
     atom   21 type  4   force =    35.84606140    0.95607521  -25.57687005
     atom   22 type  4   force =    35.16692282   -0.93140938   27.88515647
     atom   23 type  5   force =     5.27393407   -0.07607217    1.18071175
     The local contribution  to forces
     atom    1 type  1   force =     0.81643333    5.19547887  -13.96675680
     atom    2 type  1   force =    39.92872095    6.36094934   -0.71065484
     atom    3 type  1   force =    39.89759841   -6.34866856    0.83319758
     atom    4 type  1   force =   -39.74588270    6.59307041   -0.57613988
     atom    5 type  1   force =   -39.70862445   -6.58109903    0.96748494
     atom    6 type  2   force =     0.17312718    3.69595791   14.19703948
     atom    7 type  2   force =     0.88501753   -4.31643769  -13.93726149
     atom    8 type  3   force =    52.59756052   -0.06789485    0.25740601
     atom    9 type  3   force =   -51.50088584   -0.06795713    2.68681865
     atom   10 type  3   force =    36.30132371    2.08618649   23.20917146
     atom   11 type  3   force =    35.49481914    0.89084017  -22.27826947
     atom   12 type  3   force =    35.48246563   -0.77097621   22.23772635
     atom   13 type  3   force =    36.38317522   -2.23930514  -23.26201603
     atom   14 type  3   force =   -36.22937133    2.10453748   23.25028025
     atom   15 type  3   force =   -35.27349878    1.15444027  -22.41914767
     atom   16 type  3   force =   -35.40761082   -0.78739266   22.27419317
     atom   17 type  3   force =   -36.15650402   -2.50495529  -23.39802717
     atom   18 type  4   force =     0.15805897   -4.49047592   14.12156620
     atom   19 type  4   force =    35.77429418   -0.96786702   25.32885511
     atom   20 type  4   force =    36.03006455    0.97208002  -25.45153829
     atom   21 type  4   force =   -35.64713190   -0.96680584   25.38402497
     atom   22 type  4   force =   -35.07013401    0.95279849  -27.56288648
     atom   23 type  5   force =    -5.13860864    0.07197899   -1.15828301
     The core correction contribution to forces
     atom    1 type  1   force =     0.00108873    0.00421225   -0.00023130
     atom    2 type  1   force =    -0.01131811   -0.00139656    0.00093177
     atom    3 type  1   force =    -0.01182786    0.00213049   -0.00126968
     atom    4 type  1   force =     0.01399474   -0.00175700    0.00069729
     atom    5 type  1   force =     0.01402405    0.00154145   -0.00113303
     atom    6 type  2   force =    -0.00055800    0.00220990    0.00264042
     atom    7 type  2   force =     0.00047825   -0.00391135   -0.00189930
     atom    8 type  3   force =    -0.03152751    0.00024913   -0.00042009
     atom    9 type  3   force =     0.02414248    0.00009104   -0.00486228
     atom   10 type  3   force =    -0.02151715    0.00897198   -0.01539934
     atom   11 type  3   force =    -0.02333263    0.00977969    0.01731436
     atom   12 type  3   force =    -0.02149514   -0.00926733   -0.01502643
     atom   13 type  3   force =    -0.02120189   -0.00928018    0.01667751
     atom   14 type  3   force =     0.02136814    0.00848755   -0.01663346
     atom   15 type  3   force =     0.02547993    0.01059847    0.01561269
     atom   16 type  3   force =     0.02089641   -0.00881109   -0.01574274
     atom   17 type  3   force =     0.02266423   -0.00944006    0.01557991
     atom   18 type  4   force =    -0.00049978   -0.00278917    0.00306907
     atom   19 type  4   force =    -0.00938837    0.00004660   -0.00979076
     atom   20 type  4   force =    -0.00898981    0.00028421    0.00993812
     atom   21 type  4   force =     0.01037564    0.00014712   -0.00947147
     atom   22 type  4   force =     0.00680324    0.00017012    0.01095465
     atom   23 type  5   force =     0.00000000    0.00000000    0.00000000
     The Hubbard contrib.    to forces
     atom    1 type  1   force =     0.00000000    0.00000000    0.00000000
     atom    2 type  1   force =     0.00000000    0.00000000    0.00000000
     atom    3 type  1   force =     0.00000000    0.00000000    0.00000000
     atom    4 type  1   force =     0.00000000    0.00000000    0.00000000
     atom    5 type  1   force =     0.00000000    0.00000000    0.00000000
     atom    6 type  2   force =     0.00000000    0.00000000    0.00000000
     atom    7 type  2   force =     0.00000000    0.00000000    0.00000000
     atom    8 type  3   force =     0.00000000    0.00000000    0.00000000
     atom    9 type  3   force =     0.00000000    0.00000000    0.00000000
     atom   10 type  3   force =     0.00000000    0.00000000    0.00000000
     atom   11 type  3   force =     0.00000000    0.00000000    0.00000000
     atom   12 type  3   force =     0.00000000    0.00000000    0.00000000
     atom   13 type  3   force =     0.00000000    0.00000000    0.00000000
     atom   14 type  3   force =     0.00000000    0.00000000    0.00000000
     atom   15 type  3   force =     0.00000000    0.00000000    0.00000000
     atom   16 type  3   force =     0.00000000    0.00000000    0.00000000
     atom   17 type  3   force =     0.00000000    0.00000000    0.00000000
     atom   18 type  4   force =     0.00000000    0.00000000    0.00000000
     atom   19 type  4   force =     0.00000000    0.00000000    0.00000000
     atom   20 type  4   force =     0.00000000    0.00000000    0.00000000
     atom   21 type  4   force =     0.00000000    0.00000000    0.00000000
     atom   22 type  4   force =     0.00000000    0.00000000    0.00000000
     atom   23 type  5   force =     0.00000000    0.00000000    0.00000000
     The SCF correction term to forces
     atom    1 type  1   force =    -0.00909316   -0.00092291   -0.00807453
     atom    2 type  1   force =    -0.00728052    0.00034114    0.00621798
     atom    3 type  1   force =    -0.00632389    0.00060188    0.00623025
     atom    4 type  1   force =     0.00589530   -0.00098193    0.00440610
     atom    5 type  1   force =     0.00538655    0.00141836    0.00424842
     atom    6 type  2   force =    -0.00129004   -0.00707606    0.00950540
     atom    7 type  2   force =    -0.01056353    0.00090493   -0.01225004
     atom    8 type  3   force =    -0.00429609   -0.00121460    0.01406570
     atom    9 type  3   force =    -0.00451463   -0.00047118   -0.01017722
     atom   10 type  3   force =    -0.00331048   -0.01277998   -0.00043393
     atom   11 type  3   force =    -0.01691780    0.00082713   -0.00630313
     atom   12 type  3   force =    -0.00374901    0.01529147    0.00051375
     atom   13 type  3   force =    -0.01682995    0.00245170   -0.00786787
     atom   14 type  3   force =    -0.00089444   -0.00910182    0.00091874
     atom   15 type  3   force =     0.01002763   -0.00558548   -0.00747326
     atom   16 type  3   force =    -0.00058371    0.01133191    0.00252635
     atom   17 type  3   force =     0.01022229    0.00832581   -0.00987588
     atom   18 type  4   force =    -0.00073156    0.00585299    0.01013326
     atom   19 type  4   force =    -0.00432028   -0.00220399    0.00509750
     atom   20 type  4   force =    -0.02188502   -0.00276128   -0.01421846
     atom   21 type  4   force =     0.00010344   -0.00205073    0.01228275
     atom   22 type  4   force =     0.01871146   -0.00224752   -0.02822037
     atom   23 type  5   force =     0.00252112   -0.00005551    0.00296136

     Total force =     0.553340     Total SCF correction =     0.071742
     SCF correction compared to forces is large: reduce conv_thr to get better values


     Computing stress (Cartesian axis) and pressure


     negative rho (up, down):  9.088E-01 9.088E-01
          total   stress  (Ry/bohr**3)                   (kbar)     P=       93.63
[...]
     3.7329   3.7547   3.9473   3.9869   4.2255   4.3201   4.5267   4.7104
     4.7245   4.8702   5.0243   5.0785   5.1338   5.2777   5.3186   5.3234
     5.3896   5.5840   5.5854   5.7310   5.7444   5.7568   5.8054   5.9096
     5.9602   6.0772   6.1419   6.2473   6.2888   6.3207   6.4079   6.4222
     6.4475   6.6461   6.6675   6.6989   6.8373   6.9512   7.0263   7.0540
     7.1103   7.1428   7.2679   7.2913   7.3403   7.4413   7.5221   7.6301
     7.6665   7.8376   7.9062   8.0214   8.1198   8.1271   8.1285   8.1610
     8.2746   8.3292   8.3425   8.3831   8.4827   8.5420   8.6615   8.7751
     8.8132   8.9149   9.0297   9.0775   9.2019   9.2039   9.3263

     the Fermi energy is     7.2451 ev

!    total energy              =   -2942.75829150 Ry
     estimated scf accuracy    <       0.00048994 Ry
     smearing contrib. (-TS)   =      -0.09785439 Ry
     internal energy E=F+TS    =   -2942.66043712 Ry

     total magnetization       =     0.00 Bohr mag/cell
     absolute magnetization    =     0.01 Bohr mag/cell

     convergence has been achieved in   5 iterations

     negative rho (up, down):  9.077E-01 9.077E-01

     Forces acting on atoms (cartesian axes, Ry/au):

     atom    1 type  1   force =     0.00196308   -0.01305301   -0.00109356
     atom    2 type  1   force =    -0.11566792   -0.01459405   -0.00994017
     atom    3 type  1   force =    -0.11327418    0.01175997   -0.00397791
     atom    4 type  1   force =     0.11452865   -0.02255452   -0.00884760
     atom    5 type  1   force =     0.11381297    0.02143523   -0.00325270
     atom    6 type  2   force =    -0.00843917   -0.01557904    0.00585884
     atom    7 type  2   force =    -0.00045485    0.00568749   -0.01373746
     atom    8 type  3   force =    -0.10369082    0.00229776   -0.01009394
     atom    9 type  3   force =     0.12171103    0.00014689    0.02818182
     atom   10 type  3   force =    -0.02365939   -0.03307459   -0.05784486
     atom   11 type  3   force =    -0.01847568   -0.03401279    0.06101716
     atom   12 type  3   force =    -0.01845367    0.03769553   -0.05308170
     atom   13 type  3   force =    -0.01799993    0.02853887    0.06456195
     atom   14 type  3   force =     0.02340704   -0.03248170   -0.05614773
     atom   15 type  3   force =     0.01322567   -0.04064825    0.05711839
     atom   16 type  3   force =     0.01822377    0.03710785   -0.05123070
     atom   17 type  3   force =     0.01151924    0.03413110    0.06033158
     atom   18 type  4   force =    -0.01103922    0.02495416   -0.01802978
     atom   19 type  4   force =    -0.12770343   -0.00524048   -0.11326990
     atom   20 type  4   force =    -0.10782403    0.00642344    0.12163748
     atom   21 type  4   force =     0.12670887   -0.00496384   -0.11272134
     atom   22 type  4   force =    -0.47101829    0.02669353    0.59876214
     atom   23 type  5   force =     0.59260027   -0.02066956   -0.48420000
     The non-local contrib.  to forces
     atom    1 type  1   force =     0.00473172   -0.01278815    0.02740843
     atom    2 type  1   force =    -0.24416208   -0.16353557    0.01034205
     atom    3 type  1   force =    -0.23839908    0.15936044   -0.03280585
     atom    4 type  1   force =     0.24847441   -0.16838693    0.02347280
     atom    5 type  1   force =     0.24175758    0.16600127   -0.01934711
     atom    6 type  2   force =     0.00439672   -0.03288441   -0.05356596
     atom    7 type  2   force =    -0.00133808    0.05961648    0.06028959
     atom    8 type  3   force =    -0.26643118   -0.00081702   -0.00746792
     atom    9 type  3   force =     0.28480806    0.00243526    0.01729258
     atom   10 type  3   force =    -0.21047920    0.00521512   -0.20752676
     atom   11 type  3   force =    -0.22207420    0.00529246    0.19961677
     atom   12 type  3   force =    -0.20034622   -0.02123892   -0.17839426
     atom   13 type  3   force =    -0.21014451   -0.00129931    0.21201444
     atom   14 type  3   force =     0.20883655    0.00403565   -0.21051873
     atom   15 type  3   force =     0.23387330    0.02035287    0.19030373
     atom   16 type  3   force =     0.19792728   -0.02069106   -0.18145299
     atom   17 type  3   force =     0.21883577   -0.01486626    0.20269678
     atom   18 type  4   force =     0.00673123    0.03870149   -0.05294705
     atom   19 type  4   force =     0.06507415    0.01028186    0.08251959
     atom   20 type  4   force =     0.05281288   -0.01350984   -0.05320017
     atom   21 type  4   force =    -0.06000474    0.00814846    0.08499820
     atom   22 type  4   force =    -0.05306821   -0.01137005   -0.06925593
     atom   23 type  5   force =    -0.12895967    0.00529314    0.10560409
     The ionic contribution  to forces
     atom    1 type  1   force =    -0.32351525   -4.69205450   13.78702494
     atom    2 type  1   force =   -39.70990354   -6.17039151    0.74088750
     atom    3 type  1   force =   -39.68349996    6.15833858   -0.75325685
     atom    4 type  1   force =    39.58049552   -6.28416269    0.69670622
     atom    5 type  1   force =    39.55489763    6.26860674   -0.79361494
     atom    6 type  2   force =    -0.35459464   -3.86998448  -14.08068852
     atom    7 type  2   force =    -0.34434768    3.70084969   13.70558832
     atom    8 type  3   force =   -52.28394405    0.07165732   -0.06337756
     atom    9 type  3   force =    51.61745877    0.11998258   -0.44419284
     atom   10 type  3   force =   -36.07625186   -2.11525593  -22.99274712
     atom   11 type  3   force =   -35.17845198   -0.89761754   22.01788388
     atom   12 type  3   force =   -35.26377112    0.81948075  -22.04859028
     atom   13 type  3   force =   -36.07613922    2.23063614   22.99667730
     atom   14 type  3   force =    35.98267890   -2.18231768  -23.00560033
     atom   15 type  3   force =    34.90542614   -1.19790938   22.07232741
     atom   16 type  3   force =    35.17127003    0.88482622  -22.06085345
     atom   17 type  3   force =    35.80884189    2.51744433   23.04550773
     atom   18 type  4   force =    -0.33634302    4.65606691  -14.03109228
     atom   19 type  4   force =   -35.94884112    0.95368517  -25.43358698
     atom   20 type  4   force =   -35.99040524   -0.94907129   25.40947291
     atom   21 type  4   force =    35.79945958    0.95195311  -25.63658776
     atom   22 type  4   force =    32.41912008   -0.82765027   27.78463557
     atom   23 type  5   force =     6.73036017   -0.14711228   -0.91252287
     The local contribution  to forces
     atom    1 type  1   force =     0.32551161    4.69621268  -13.82152664
     atom    2 type  1   force =    39.85201866    6.32036947   -0.78346534
     atom    3 type  1   force =    39.82176152   -6.30714602    0.76110632
     atom    4 type  1   force =   -39.72657240    6.43394636   -0.75195065
     atom    5 type  1   force =   -39.69512450   -6.41677021    0.78857837
     atom    6 type  2   force =     0.34314310    3.88136546   14.11268440
     atom    7 type  2   force =     0.35173115   -3.75823161  -13.78541145
     atom    8 type  3   force =    52.48362492   -0.06997242    0.03962402
     atom    9 type  3   force =   -51.81396821   -0.12370596    0.43648715
     atom   10 type  3   force =    36.28485446    2.06127713   23.15574063
     atom   11 type  3   force =    35.41033937    0.85232301  -22.16206533
     atom   12 type  3   force =    35.46714887   -0.74489583   22.18670966
     atom   13 type  3   force =    36.29414733   -2.19405797  -23.14859069
     atom   14 type  3   force =   -36.18976445    2.13139058   23.17257107
     atom   15 type  3   force =   -35.15290319    1.13330532  -22.21120181
     atom   16 type  3   force =   -35.37260161   -0.81213655   22.20311120
     atom   17 type  3   force =   -36.04017110   -2.46469666  -23.19281635
     atom   18 type  4   force =     0.31938235   -4.66289010   14.03952673
     atom   19 type  4   force =    35.76473796   -0.96886471   25.24335874
     atom   20 type  4   force =    35.84903755    0.96749409  -25.23204058
     atom   21 type  4   force =   -35.62001979   -0.96533119   25.44529400
     atom   22 type  4   force =   -32.84484892    0.86463057  -27.12063976
     atom   23 type  5   force =    -6.00899250    0.12113833    0.32206748
     The core correction contribution to forces
     atom    1 type  1   force =     0.00063840    0.00098402   -0.00113541
     atom    2 type  1   force =    -0.01185058   -0.00204392    0.00021045
     atom    3 type  1   force =    -0.01199739    0.00321361   -0.00191887
     atom    4 type  1   force =     0.01313206   -0.00349502    0.00279898
     atom    5 type  1   force =     0.01351442    0.00438292    0.00054975
     atom    6 type  2   force =    -0.00037597    0.00147917    0.00195309
     atom    7 type  2   force =     0.00024733   -0.00295802   -0.00233694
     atom    8 type  3   force =    -0.03373404    0.00022354   -0.00138606
     atom    9 type  3   force =     0.03393915   -0.00011055    0.00090220
     atom   10 type  3   force =    -0.02149135    0.00890213   -0.01638083
     atom   11 type  3   force =    -0.02409015    0.00973958    0.01696593
     atom   12 type  3   force =    -0.02142425   -0.00944720   -0.01570754
     atom   13 type  3   force =    -0.02245052   -0.00920485    0.01687280
     atom   14 type  3   force =     0.02174885    0.00902516   -0.01577255
     atom   15 type  3   force =     0.02571999    0.01226710    0.01579664
     atom   16 type  3   force =     0.02159695   -0.00927073   -0.01536449
     atom   17 type  3   force =     0.02371083   -0.01181201    0.01602252
     atom   18 type  4   force =    -0.00050837   -0.00199333    0.00215442
     atom   19 type  4   force =    -0.00985007   -0.00003367   -0.01009800
     atom   20 type  4   force =    -0.00868150    0.00036194    0.00893703
     atom   21 type  4   force =     0.00960672    0.00008973   -0.01048006
     atom   22 type  4   force =     0.00310566    0.00043228    0.01358130
     atom   23 type  5   force =     0.00000000    0.00000000    0.00000000
     The Hubbard contrib.    to forces
     atom    1 type  1   force =     0.00000000    0.00000000    0.00000000
     atom    2 type  1   force =     0.00000000    0.00000000    0.00000000
     atom    3 type  1   force =     0.00000000    0.00000000    0.00000000
     atom    4 type  1   force =     0.00000000    0.00000000    0.00000000
     atom    5 type  1   force =     0.00000000    0.00000000    0.00000000
     atom    6 type  2   force =     0.00000000    0.00000000    0.00000000
     atom    7 type  2   force =     0.00000000    0.00000000    0.00000000
     atom    8 type  3   force =     0.00000000    0.00000000    0.00000000
     atom    9 type  3   force =     0.00000000    0.00000000    0.00000000
     atom   10 type  3   force =     0.00000000    0.00000000    0.00000000
     atom   11 type  3   force =     0.00000000    0.00000000    0.00000000
     atom   12 type  3   force =     0.00000000    0.00000000    0.00000000
     atom   13 type  3   force =     0.00000000    0.00000000    0.00000000
     atom   14 type  3   force =     0.00000000    0.00000000    0.00000000
     atom   15 type  3   force =     0.00000000    0.00000000    0.00000000
     atom   16 type  3   force =     0.00000000    0.00000000    0.00000000
     atom   17 type  3   force =     0.00000000    0.00000000    0.00000000
     atom   18 type  4   force =     0.00000000    0.00000000    0.00000000
     atom   19 type  4   force =     0.00000000    0.00000000    0.00000000
     atom   20 type  4   force =     0.00000000    0.00000000    0.00000000
     atom   21 type  4   force =     0.00000000    0.00000000    0.00000000
     atom   22 type  4   force =     0.00000000    0.00000000    0.00000000
     atom   23 type  5   force =     0.00000000    0.00000000    0.00000000
     The SCF correction term to forces
     atom    1 type  1   force =    -0.00500177   -0.00533426    0.00566212
     atom    2 type  1   force =    -0.00136875    0.00108027    0.02061217
     atom    3 type  1   force =    -0.00073762   -0.00193385    0.02142434
     atom    4 type  1   force =    -0.00059929   -0.00038344    0.01865205
     atom    5 type  1   force =    -0.00083052   -0.00071269    0.01910822
     atom    6 type  2   force =    -0.00060675    0.00451801    0.02400283
     atom    7 type  2   force =    -0.00634594    0.00648375    0.00666002
     atom    8 type  3   force =    -0.00280484    0.00127914    0.02104058
     atom    9 type  3   force =    -0.00012509    0.00161836    0.01621974
     atom   10 type  3   force =     0.00011020    0.00685975    0.00159623
     atom   11 type  3   force =    -0.00379708   -0.00367750   -0.01285709
     atom   12 type  3   force =     0.00034069   -0.00613047    0.00142772
     atom   13 type  3   force =    -0.00301138    0.00253765   -0.01388490
     atom   14 type  3   force =     0.00030882    0.00545739    0.00169981
     atom   15 type  3   force =     0.00151107   -0.00859136   -0.01158059
     atom   16 type  3   force =     0.00043275   -0.00554723    0.00185603
     atom   17 type  3   force =     0.00070349    0.00813449   -0.01255209
     atom   18 type  4   force =     0.00010024   -0.00485800    0.02285541
     atom   19 type  4   force =     0.00157728   -0.00023632    0.00306375
     atom   20 type  4   force =    -0.01018609    0.00122134   -0.01300471
     atom   21 type  4   force =    -0.00193128    0.00024885    0.00258128
     atom   22 type  4   force =     0.00507473    0.00072380   -0.01103204
     atom   23 type  5   force =     0.00059390    0.00008407   -0.00082171

     Total force =     1.171692     Total SCF correction =     0.071535


     Computing stress (Cartesian axis) and pressure


     negative rho (up, down):  9.077E-01 9.077E-01
          total   stress  (Ry/bohr**3)                   (kbar)     P=       98.01
   0.00081551  -0.00000753  -0.00014720          119.97       -1.11      -21.65
  -0.00000753   0.00066833  -0.00000557           -1.11       98.31       -0.82
  -0.00014720  -0.00000557   0.00051496          -21.65       -0.82       75.75


     Entering Dynamics:    iteration =    20
                           time      =   0.0041 pico-seconds


ATOMIC_POSITIONS (angstrom)
Hf            2.6705657457        2.8268109908        6.6064278464
Hf            1.2523241874        1.2861523698        5.0608295984
Hf            1.2548265158        7.3899002407        5.0905182167
Hf            4.0889927482        1.2861286883        5.0608276933
Hf            4.0864997850        7.3899227505        5.0904963256
Nb            2.6706780665        2.7966049649        3.5182455990
Nb            2.6704915694        5.8768341700        6.6371769354
Ta            1.2087627870        4.3409609891        5.0735238328
Ta            4.1155550381        4.3411963501        5.0216203169
Ta            1.3076297168        1.3137426227        2.0605425667
Ta            1.3032421297        1.3079803104        8.0976533222
Ta            1.3044384073        7.3762552923        2.0480460033
Ta            1.3081842499        7.3654261731        8.0891143243
Ta            4.0336223439        1.3138061794        2.0605356611
Ta            4.0380413393        1.3079879946        8.0976391060
Ta            4.0368211566        7.3762099004        2.0480484732
Ta            4.0330885394        7.3654144334        8.0891061805
Zr            2.6706465250        5.8667999800        3.5296407389
Zr            1.2415891973        4.3219712232        1.9998092563
Zr            1.2381419286        4.3542425126        8.1548166894
Zr            4.0998074388        4.3219426610        1.9996999091
Zr            4.1023214054        4.3543245862        8.1567242350
H             5.1499528865        4.3162203893        7.5676195472


     kinetic energy (Ekin) =           8.07613008 Ry
     temperature           =       38640.00268832 K 
     Ekin + Etot (const)   =       -2934.68216142 Ry
     Ions kinetic stress =          142.63 (kbar)
                                     73.05          -1.92         160.31
                                     -1.92           0.06          -4.21
                                    160.31          -4.21         354.79



     Linear momentum :    0.0000000000   -0.0000000000   -0.0000000000

     The maximum number of steps has been reached.

     End of molecular dynamics calculation

     diffusion coefficients :
     atom     1   D =       0.00000003 cm^2/s
     atom     2   D =       0.00000002 cm^2/s
     atom     3   D =       0.00000003 cm^2/s
     atom     4   D =       0.00000004 cm^2/s
     atom     5   D =       0.00000004 cm^2/s
     atom     6   D =       0.00000003 cm^2/s
     atom     7   D =       0.00000002 cm^2/s
     atom     8   D =       0.00000003 cm^2/s
     atom     9   D =       0.00001098 cm^2/s
     atom    10   D =       0.00000001 cm^2/s
     atom    11   D =       0.00000004 cm^2/s
     atom    12   D =       0.00000001 cm^2/s
     atom    13   D =       0.00000004 cm^2/s
     atom    14   D =       0.00000002 cm^2/s
     atom    15   D =       0.00000004 cm^2/s
     atom    16   D =       0.00000002 cm^2/s
     atom    17   D =       0.00000004 cm^2/s
     atom    18   D =       0.00000002 cm^2/s
     atom    19   D =       0.00000002 cm^2/s
     atom    20   D =       0.00000013 cm^2/s
     atom    21   D =       0.00000005 cm^2/s
     atom    22   D =       0.00000023 cm^2/s
     atom    23   D =       0.00233730 cm^2/s

     < D > =       0.00010214 cm^2/s

     Writing all to output data dir outdir/pwscf.save/

     init_run     :      9.44s CPU     11.70s WALL (       1 calls)
     electrons    :   1940.76s CPU   2562.13s WALL (      20 calls)
     update_pot   :     18.86s CPU     20.32s WALL (      19 calls)
     forces       :    210.11s CPU    257.01s WALL (      20 calls)
     stress       :    345.92s CPU    395.00s WALL (      20 calls)

     Called by init_run:
     wfcinit      :      7.31s CPU      8.80s WALL (       1 calls)
     potinit      :      0.43s CPU      0.51s WALL (       1 calls)
     hinit0       :      0.82s CPU      1.09s WALL (       1 calls)

     Called by electrons:
     c_bands      :   1551.05s CPU   2068.80s WALL (      94 calls)
     sum_band     :    254.73s CPU    323.88s WALL (      94 calls)
     v_of_rho     :      9.48s CPU     11.74s WALL (     114 calls)
     newd         :    155.74s CPU    192.52s WALL (     114 calls)
     mix_rho      :      0.78s CPU      1.15s WALL (      94 calls)

     Called by c_bands:
     init_us_2    :      3.24s CPU      3.36s WALL (     458 calls)
     init_us_2:cp :      3.24s CPU      3.36s WALL (     458 calls)
     regterg      :   1538.82s CPU   2053.52s WALL (     188 calls)

     Called by *egterg:
     rdiaghg      :     61.53s CPU     77.33s WALL (    1552 calls)
     h_psi        :    757.01s CPU    913.44s WALL (    1592 calls)
     s_psi        :    242.30s CPU    243.38s WALL (    1592 calls)
     g_psi        :      0.58s CPU      0.66s WALL (    1402 calls)

     Called by h_psi:
     h_psi:calbec :    371.66s CPU    488.75s WALL (    1592 calls)
     vloc_psi     :     87.66s CPU    125.21s WALL (    1592 calls)
     add_vuspsi   :    296.63s CPU    298.30s WALL (    1592 calls)

     General routines
     calbec       :    664.33s CPU    871.37s WALL (    1980 calls)
     fft          :      8.97s CPU     29.45s WALL (    2409 calls)
     ffts         :      0.18s CPU      0.25s WALL (      94 calls)
     fftw         :     95.09s CPU    136.77s WALL (  101618 calls)

     Parallel routines

     PWSCF        :  42m36.30s CPU  54m43.26s WALL


   This run was terminated on:   7:51:21  15Jun2023            

=------------------------------------------------------------------------------=
   JOB DONE.
=------------------------------------------------------------------------------=
