
     Program PWSCF v.7.2 starts on 15Jun2023 at  6: 0:15 

     This program is part of the open-source Quantum ESPRESSO suite
     for quantum simulation of materials; please cite
         "P. Giannozzi et al., J. Phys.:Condens. Matter 21 395502 (2009);
         "P. Giannozzi et al., J. Phys.:Condens. Matter 29 465901 (2017);
         "P. Giannozzi et al., J. Chem. Phys. 152 154105 (2020);
          URL http://www.quantum-espresso.org", 
     in publications or presentations arising from this work. More details at
     http://www.quantum-espresso.org/quote

     Parallel version (MPI), running on    42 processors

     MPI processes distributed on     1 nodes
     174275 MiB available memory on the printing compute node when the environment starts

     Reading input from md_data/md_Hf5Nb2Ta10Zr5H_20steps_100eV_incident75_polar60.in
Warning: card &CELL ignored
Warning: card / ignored

     Current dimensions of program PWSCF are:
     Max number of different atomic species (ntypx) = 10
     Max number of k-points (npk) =  40000
     Max angular momentum in pseudopotentials (lmaxx) =  4

     File outdir/pwscf.md deleted, as requested

     gamma-point specific algorithms are used

     R & G space division:  proc/nbgrp/npool/nimage =      42
     Subspace diagonalization in iterative solution of the eigenvalue problem:
     one sub-group per band group will be used
     custom distributed-memory algorithm (size of sub-group:  2*  2 procs)


     Parallelization info
     --------------------
     sticks:   dense  smooth     PW     G-vecs:    dense   smooth      PW
     Min         262     262     63                23470    23470    2920
     Max         265     265     66                23484    23484    2942
     Sum       11057   11057   2753               986005   986005  123175

     Using Slab Decomposition



     bravais-lattice index     =            0
     lattice parameter (alat)  =      17.6500  a.u.
     unit-cell volume          =    5552.8853 (a.u.)^3
     number of atoms/cell      =           23
     number of atomic types    =            5
     number of electrons       =       277.00
     number of Kohn-Sham states=          167
     kinetic-energy cutoff     =     120.0000  Ry
     charge density cutoff     =     480.0000  Ry
     scf convergence threshold =      1.0E-03
     mixing beta               =       0.7000
     number of iterations used =            8  TF        mixing
     energy convergence thresh.=      0.0E+00
     force convergence thresh. =      0.0E+00
     Exchange-correlation=  SLA  PW   PBX  PBC
                           (   1   4   3   4   0   0   0)
     nstep                     =           20


     celldm(1)=  17.650041  celldm(2)=   0.000000  celldm(3)=   0.000000
     celldm(4)=   0.000000  celldm(5)=   0.000000  celldm(6)=   0.000000

     crystal axes: (cart. coord. in units of alat)
               a(1) = (   1.000000   0.000000   0.000000 )  
               a(2) = (   0.000000   0.929336   0.000000 )  
               a(3) = (   0.000000   0.000000   1.086698 )  

     reciprocal axes: (cart. coord. in units 2 pi/alat)
               b(1) = (  1.000000  0.000000  0.000000 )  
               b(2) = (  0.000000  1.076037  0.000000 )  
               b(3) = (  0.000000  0.000000  0.920219 )  


     PseudoPot. # 1 for Hf read from file:
     q-e/pseudo/hf_pbe_v1.uspp.F.UPF
     MD5 check sum: 8ee9378dfe14276e333edf04c5e4aa26
     Pseudo is Ultrasoft + core correction, Zval = 12.0
     Generated by new atomic code, or converted to UPF format
     Using radial grid of  921 points,  8 beta functions with: 
                l(1) =   0
                l(2) =   0
                l(3) =   0
                l(4) =   1
                l(5) =   1
                l(6) =   2
                l(7) =   2
                l(8) =   3
     Q(r) pseudized with  6 coefficients,  rinner =    1.200   1.200   1.200
                                                       1.200   1.200   1.200
                                                       1.200

     PseudoPot. # 2 for Nb read from file:
     q-e/pseudo/nb_pbe_v1.uspp.F.UPF
     MD5 check sum: 573aab8a2fa660278ed4a62cd769473f
     Pseudo is Ultrasoft + core correction, Zval = 13.0
     Generated by new atomic code, or converted to UPF format
     Using radial grid of  887 points,  6 beta functions with: 
                l(1) =   0
                l(2) =   0
                l(3) =   1
                l(4) =   1
                l(5) =   2
                l(6) =   2
     Q(r) pseudized with  6 coefficients,  rinner =    1.000   1.000   1.000
                                                       1.000   1.000

     PseudoPot. # 3 for Ta read from file:
     q-e/pseudo/ta_pbe_v1.uspp.F.UPF
     MD5 check sum: f8bbe9446314a3b8ea5d9f3e3836c939
     Pseudo is Ultrasoft + core correction, Zval = 13.0
     Generated by new atomic code, or converted to UPF format
     Using radial grid of  921 points,  7 beta functions with: 
                l(1) =   0
                l(2) =   0
                l(3) =   1
                l(4) =   1
                l(5) =   2
                l(6) =   2
                l(7) =   3
     Q(r) pseudized with  6 coefficients,  rinner =    1.300   1.300   1.300
                                                       1.300   1.300   1.300
                                                       1.300

     PseudoPot. # 4 for Zr read from file:
     q-e/pseudo/zr_pbe_v1.uspp.F.UPF
     MD5 check sum: 5db81b1e868ab7776c4564c113de050b
     Pseudo is Ultrasoft + core correction, Zval = 12.0
     Generated by new atomic code, or converted to UPF format
     Using radial grid of  887 points,  6 beta functions with: 
                l(1) =   0
                l(2) =   0
                l(3) =   1
                l(4) =   1
                l(5) =   2
                l(6) =   2
     Q(r) pseudized with  6 coefficients,  rinner =    1.200   1.200   1.200
                                                       1.200   1.200

     PseudoPot. # 5 for H  read from file:
     q-e/pseudo/h_pbe_v1.4.uspp.F.UPF
     MD5 check sum: 761ae9a214b05c3daf00ab9f6b793d6f
     Pseudo is Ultrasoft, Zval =  1.0
     Generated by new atomic code, or converted to UPF format
     Using radial grid of  615 points,  2 beta functions with: 
                l(1) =   0
                l(2) =   0
     Q(r) pseudized with  8 coefficients,  rinner =    0.700

     atomic species   valence    mass     pseudopotential
        Hf            12.00   178.49000     Hf( 1.00)
        Nb            13.00    92.90637     Nb( 1.00)
        Ta            13.00   180.94788     Ta( 1.00)
        Zr            12.00    91.22400     Zr( 1.00)
        H              1.00     2.01400     H ( 1.00)

     Starting magnetic structure 
     atomic species   magnetization
        Hf           0.000
        Nb           0.000
        Ta           0.000
        Zr           0.000
        H            0.000

     No symmetry found



   Cartesian axes

     site n.     atom                  positions (alat units)
         1           Hf  tau(   1) = (   0.2858672   0.3026898   0.7070626  )
         2           Hf  tau(   2) = (   0.1341532   0.1377178   0.5415917  )
         3           Hf  tau(   3) = (   0.1344204   0.7911996   0.5447610  )
         4           Hf  tau(   4) = (   0.4375813   0.1377178   0.5415917  )
         5           Hf  tau(   5) = (   0.4373140   0.7911996   0.5447610  )
         6           Nb  tau(   6) = (   0.2858672   0.2994572   0.3764008  )
         7           Nb  tau(   7) = (   0.2858672   0.6291626   0.7103852  )
         8           Ta  tau(   8) = (   0.1294832   0.4647675   0.5429471  )
         9           Ta  tau(   9) = (   0.4422513   0.4647675   0.5429471  )
        10           Ta  tau(  10) = (   0.1399628   0.1406984   0.2204260  )
        11           Ta  tau(  11) = (   0.1394848   0.1400847   0.8666573  )
        12           Ta  tau(  12) = (   0.1396156   0.7897030   0.2190832  )
        13           Ta  tau(  13) = (   0.1400119   0.7885528   0.8657390  )
        14           Ta  tau(  14) = (   0.4317717   0.1406984   0.2204260  )
        15           Ta  tau(  15) = (   0.4322496   0.1400847   0.8666573  )
        16           Ta  tau(  16) = (   0.4321189   0.7897030   0.2190832  )
        17           Ta  tau(  17) = (   0.4317226   0.7885528   0.8657390  )
        18           Zr  tau(  18) = (   0.2858672   0.6280820   0.3776642  )
        19           Zr  tau(  19) = (   0.1331729   0.4627493   0.2141328  )
        20           Zr  tau(  20) = (   0.1328036   0.4661802   0.8725649  )
        21           Zr  tau(  21) = (   0.4385616   0.4627493   0.2141328  )
        22           Zr  tau(  22) = (   0.4389309   0.4661802   0.8725649  )
        23           H   tau(  23) = (   0.4976729   0.5680863   0.7221855  )

     number of k points=     1  Gaussian smearing, width (Ry)=  0.0220
                       cart. coord. in units 2pi/alat
        k(    1) = (   0.0000000   0.0000000   0.0000000), wk =   1.0000000

     Dense  grid:   493003 G-vectors     FFT dimensions: ( 125, 120, 135)

     Estimated max dynamical RAM per process >     133.03 MB

     Estimated total dynamical RAM >       5.46 GB

     Check: negative core charge=   -0.000002
     Generating pointlists ...
     new r_m :   0.1117 (alat units)  1.9717 (a.u.) for type    1
     new r_m :   0.0911 (alat units)  1.6072 (a.u.) for type    2
     new r_m :   0.0883 (alat units)  1.5594 (a.u.) for type    3
     new r_m :   0.0788 (alat units)  1.3900 (a.u.) for type    4
     new r_m :   0.0788 (alat units)  1.3900 (a.u.) for type    5

     Initial potential from superposition of free atoms

     starting charge     266.9726, renormalised to     277.0000

     negative rho (up, down):  9.216E-01 9.216E-01
     Starting wfcs are  287 randomized atomic wfcs

     total cpu time spent up to now is       12.7 secs

     Self-consistent Calculation

     iteration #  1     ecut=   120.00 Ry     beta= 0.70
     Davidson diagonalization with overlap
     ethr =  1.00E-02,  avg # of iterations =  2.0

     negative rho (up, down):  9.977E-01 9.973E-01

     total cpu time spent up to now is       31.3 secs

     total energy              =   -2930.48586107 Ry
     estimated scf accuracy    <     276.77796815 Ry

     total magnetization       =    -0.00 Bohr mag/cell
     absolute magnetization    =     0.09 Bohr mag/cell

     iteration #  2     ecut=   120.00 Ry     beta= 0.70
     Davidson diagonalization with overlap
     ethr =  1.00E-02,  avg # of iterations =  5.0

     negative rho (up, down):  9.660E-01 9.671E-01

     total cpu time spent up to now is       51.3 secs

     total energy              =   -2942.19735374 Ry
     estimated scf accuracy    <      29.77674899 Ry

     total magnetization       =    -0.05 Bohr mag/cell
     absolute magnetization    =     0.28 Bohr mag/cell

     iteration #  3     ecut=   120.00 Ry     beta= 0.70
     Davidson diagonalization with overlap
     ethr =  1.00E-02,  avg # of iterations =  2.0

     negative rho (up, down):  9.958E-01 1.005E+00

     total cpu time spent up to now is       85.4 secs

     total energy              =   -2942.67579649 Ry
     estimated scf accuracy    <      12.62999693 Ry

     total magnetization       =    -0.02 Bohr mag/cell
     absolute magnetization    =     0.42 Bohr mag/cell

     iteration #  4     ecut=   120.00 Ry     beta= 0.70
     Davidson diagonalization with overlap
     ethr =  4.56E-03,  avg # of iterations =  4.5

     negative rho (up, down):  1.000E+00 1.009E+00

     total cpu time spent up to now is      122.5 secs

     total energy              =   -2942.93573495 Ry
     estimated scf accuracy    <       2.92957913 Ry

     total magnetization       =    -0.13 Bohr mag/cell
     absolute magnetization    =     0.44 Bohr mag/cell

     iteration #  5     ecut=   120.00 Ry     beta= 0.70
     Davidson diagonalization with overlap
     ethr =  1.06E-03,  avg # of iterations =  7.5

     negative rho (up, down):  9.779E-01 9.824E-01

     total cpu time spent up to now is      151.4 secs

     total energy              =   -2943.08854239 Ry
     estimated scf accuracy    <       1.42339660 Ry

     total magnetization       =    -0.07 Bohr mag/cell
     absolute magnetization    =     0.23 Bohr mag/cell

     iteration #  6     ecut=   120.00 Ry     beta= 0.70
     Davidson diagonalization with overlap
     ethr =  5.14E-04,  avg # of iterations =  2.0

     negative rho (up, down):  9.672E-01 9.702E-01

     total cpu time spent up to now is      167.1 secs

     total energy              =   -2943.11281834 Ry
     estimated scf accuracy    <       1.03529926 Ry

     total magnetization       =    -0.05 Bohr mag/cell
     absolute magnetization    =     0.17 Bohr mag/cell

     iteration #  7     ecut=   120.00 Ry     beta= 0.70
     Davidson diagonalization with overlap
     ethr =  3.74E-04,  avg # of iterations =  2.0

     negative rho (up, down):  9.396E-01 9.409E-01

     total cpu time spent up to now is      182.8 secs

     total energy              =   -2943.06866695 Ry
     estimated scf accuracy    <       0.33773236 Ry

     total magnetization       =    -0.05 Bohr mag/cell
     absolute magnetization    =     0.15 Bohr mag/cell

     iteration #  8     ecut=   120.00 Ry     beta= 0.70
     Davidson diagonalization with overlap
     ethr =  1.22E-04,  avg # of iterations =  3.0

     negative rho (up, down):  9.184E-01 9.185E-01

     total cpu time spent up to now is      199.3 secs

     total energy              =   -2943.06529430 Ry
     estimated scf accuracy    <       0.22539210 Ry

     total magnetization       =    -0.05 Bohr mag/cell
     absolute magnetization    =     0.11 Bohr mag/cell

     iteration #  9     ecut=   120.00 Ry     beta= 0.70
     Davidson diagonalization with overlap
     ethr =  8.14E-05,  avg # of iterations =  4.5

     negative rho (up, down):  9.081E-01 9.081E-01

     total cpu time spent up to now is      215.8 secs

     total energy              =   -2943.06609898 Ry
     estimated scf accuracy    <       0.06060793 Ry

     total magnetization       =    -0.04 Bohr mag/cell
     absolute magnetization    =     0.08 Bohr mag/cell

     iteration # 10     ecut=   120.00 Ry     beta= 0.70
     Davidson diagonalization with overlap
     ethr =  2.19E-05,  avg # of iterations = 12.5

     negative rho (up, down):  9.082E-01 9.081E-01

     total cpu time spent up to now is      260.0 secs

     total energy              =   -2943.06879362 Ry
     estimated scf accuracy    <       0.04725917 Ry

     total magnetization       =    -0.03 Bohr mag/cell
     absolute magnetization    =     0.06 Bohr mag/cell

     iteration # 11     ecut=   120.00 Ry     beta= 0.70
     Davidson diagonalization with overlap
     ethr =  1.71E-05,  avg # of iterations =  2.0

     negative rho (up, down):  9.090E-01 9.090E-01

     total cpu time spent up to now is      295.1 secs

     total energy              =   -2943.07285363 Ry
     estimated scf accuracy    <       0.00896467 Ry

     total magnetization       =    -0.03 Bohr mag/cell
     absolute magnetization    =     0.05 Bohr mag/cell

     iteration # 12     ecut=   120.00 Ry     beta= 0.70
     Davidson diagonalization with overlap
     ethr =  3.24E-06,  avg # of iterations =  8.5

     negative rho (up, down):  9.091E-01 9.091E-01

     total cpu time spent up to now is      315.7 secs

     total energy              =   -2943.07560578 Ry
     estimated scf accuracy    <       0.00215327 Ry

     total magnetization       =    -0.02 Bohr mag/cell
     absolute magnetization    =     0.04 Bohr mag/cell

     iteration # 13     ecut=   120.00 Ry     beta= 0.70
     Davidson diagonalization with overlap
     ethr =  7.77E-07,  avg # of iterations =  4.0

     negative rho (up, down):  9.089E-01 9.089E-01

     Magnetic moment per site  (integrated on atomic sphere of radius R)
     atom   1 (R=0.112)  charge=  9.4620    0.0000
     atom   2 (R=0.112)  charge=  9.0571   -0.0002
     atom   3 (R=0.112)  charge=  9.0561   -0.0002
     atom   4 (R=0.112)  charge=  9.0578    0.0001
     atom   5 (R=0.112)  charge=  9.0688   -0.0001
     atom   6 (R=0.091)  charge=  8.6978    0.0000
     atom   7 (R=0.091)  charge=  8.7033   -0.0001
     atom   8 (R=0.088)  charge=  8.1269    0.0001
     atom   9 (R=0.088)  charge=  8.1343   -0.0001
     atom  10 (R=0.088)  charge=  8.1071   -0.0004
     atom  11 (R=0.088)  charge=  8.1055   -0.0006
     atom  12 (R=0.088)  charge=  8.1066   -0.0006
     atom  13 (R=0.088)  charge=  8.1070    0.0006
     atom  14 (R=0.088)  charge=  8.1067   -0.0002
     atom  15 (R=0.088)  charge=  8.1026   -0.0002
     atom  16 (R=0.088)  charge=  8.1064   -0.0008
     atom  17 (R=0.088)  charge=  8.1123   -0.0000
     atom  18 (R=0.079)  charge=  6.3497    0.0001
     atom  19 (R=0.079)  charge=  6.2514   -0.0007
     atom  20 (R=0.079)  charge=  6.2491   -0.0001
     atom  21 (R=0.079)  charge=  6.2505   -0.0007
     atom  22 (R=0.079)  charge=  6.2630   -0.0000
     atom  23 (R=0.079)  charge=  1.0717    0.0000

     total cpu time spent up to now is      333.3 secs

     End of self-consistent calculation

 ------ SPIN UP ------------


          k = 0.0000 0.0000 0.0000 ( 61588 PWs)   bands (ev):

   -60.7911 -60.7553 -60.7458 -60.7109 -60.6776 -60.6710 -60.6305 -60.6244
   -60.5686 -60.5466 -54.3961 -54.3421 -54.2509 -54.2053 -52.6835 -46.3821
   -46.2398 -41.5917 -41.5845 -41.4895 -41.4178 -39.7843 -27.7796 -27.7507
   -27.6876 -27.6657 -27.6016 -27.5690 -27.4605 -27.4374 -27.4232 -27.3527
   -27.3082 -27.2826 -27.2513 -27.2373 -27.2082 -27.1977 -27.1668 -27.1580
   -27.1407 -27.1227 -27.1068 -27.0749 -26.9635 -26.9381 -26.9312 -26.9085
   -26.8735 -26.8538 -26.8283 -26.8245 -24.1742 -23.9684 -23.6683 -23.5759
   -23.3102 -23.2293 -23.1766 -23.0725 -22.9321 -22.8759 -22.8430 -22.6236
   -22.5755 -22.4649 -22.4494 -22.4219 -22.2671 -22.2418 -21.7446 -21.6793
   -21.6122 -20.1619 -19.8638 -19.8007 -19.7859 -19.5959 -19.5798 -19.5612
   -19.5313 -19.5295 -19.4311 -19.3318 -19.2593 -18.1289 -17.9285 -17.7955
     0.4745   1.8319   2.9634   3.1322   3.2553   3.3475   3.4827   3.5928
     3.6824   3.7437   3.9184   4.0179   4.1907   4.5013   4.5501   4.7210
     4.7611   4.9403   5.0515   5.1216   5.2063   5.2791   5.3052   5.3692
     5.4394   5.5367   5.5774   5.7030   5.7401   5.7620   5.7925   5.8324
     5.9673   6.0623   6.1619   6.2000   6.2809   6.3559   6.3647   6.3973
     6.4625   6.5841   6.6793   6.7167   6.9243   6.9966   7.0428   7.1252
     7.1307   7.1680   7.2775   7.3142   7.4138   7.5133   7.5526   7.5934
     7.6530   7.8270   7.9006   8.0417   8.0579   8.1081   8.1347   8.1732
     8.2509   8.2654   8.3348   8.3734   8.4956   8.5433   8.6007   8.7343
     8.8409   8.9389   8.9858   9.0738   9.1542   9.2599   9.2848

 ------ SPIN DOWN ----------


          k = 0.0000 0.0000 0.0000 ( 61588 PWs)   bands (ev):

   -60.7908 -60.7558 -60.7455 -60.7115 -60.6782 -60.6712 -60.6311 -60.6248
   -60.5687 -60.5467 -54.3961 -54.3422 -54.2509 -54.2053 -52.6834 -46.3822
   -46.2398 -41.5933 -41.5846 -41.4911 -41.4178 -39.7842 -27.7795 -27.7514
   -27.6875 -27.6664 -27.6013 -27.5696 -27.4606 -27.4382 -27.4236 -27.3526
   -27.3087 -27.2823 -27.2519 -27.2376 -27.2086 -27.1980 -27.1669 -27.1582
   -27.1413 -27.1230 -27.1068 -27.0749 -26.9632 -26.9383 -26.9319 -26.9093
   -26.8738 -26.8546 -26.8291 -26.8247 -24.1742 -23.9684 -23.6684 -23.5758
   -23.3102 -23.2295 -23.1767 -23.0725 -22.9321 -22.8759 -22.8430 -22.6236
   -22.5756 -22.4650 -22.4496 -22.4220 -22.2672 -22.2419 -21.7446 -21.6793
   -21.6123 -20.1635 -19.8637 -19.8025 -19.7875 -19.5963 -19.5797 -19.5626
   -19.5328 -19.5299 -19.4313 -19.3338 -19.2593 -18.1287 -17.9285 -17.7957
     0.4745   1.8315   2.9627   3.1320   3.2550   3.3472   3.4821   3.5926
     3.6823   3.7433   3.9176   4.0172   4.1903   4.5008   4.5499   4.7205
     4.7605   4.9398   5.0507   5.1213   5.2059   5.2789   5.3047   5.3686
     5.4388   5.5363   5.5770   5.7025   5.7400   5.7610   5.7920   5.8318
     5.9671   6.0618   6.1613   6.1995   6.2806   6.3555   6.3640   6.3965
     6.4617   6.5838   6.6788   6.7161   6.9234   6.9957   7.0413   7.1229
     7.1294   7.1669   7.2756   7.3138   7.4115   7.5108   7.5508   7.5926
     7.6517   7.8266   7.9000   8.0408   8.0571   8.1072   8.1340   8.1721
     8.2489   8.2647   8.3337   8.3725   8.4946   8.5424   8.5998   8.7337
     8.8401   8.9371   8.9849   9.0730   9.1535   9.2603   9.2835

     the Fermi energy is     7.2787 ev

!    total energy              =   -2943.07684084 Ry
     estimated scf accuracy    <       0.00044198 Ry
     smearing contrib. (-TS)   =      -0.09980191 Ry
     internal energy E=F+TS    =   -2942.97703893 Ry

     total magnetization       =    -0.02 Bohr mag/cell
     absolute magnetization    =     0.03 Bohr mag/cell

     convergence has been achieved in  13 iterations

     negative rho (up, down):  9.089E-01 9.089E-01

     Forces acting on atoms (cartesian axes, Ry/au):

     atom    1 type  1   force =    -0.00177813   -0.03183500   -0.00161029
     atom    2 type  1   force =    -0.11594628   -0.01365274   -0.00219813
     atom    3 type  1   force =    -0.10520521    0.01289805    0.00171363
     atom    4 type  1   force =     0.11656127   -0.01291196   -0.00726899
     atom    5 type  1   force =     0.10676189    0.01921002   -0.00744902
     atom    6 type  2   force =    -0.00300682   -0.01561975    0.00935505
     atom    7 type  2   force =    -0.01604145    0.00864091   -0.01271494
     atom    8 type  3   force =    -0.10488557    0.00517862   -0.00634624
     atom    9 type  3   force =     0.10568380   -0.01422232   -0.00850969
     atom   10 type  3   force =    -0.02229559   -0.03186220   -0.05824882
     atom   11 type  3   force =    -0.01948870   -0.03663762    0.05410541
     atom   12 type  3   force =    -0.02106049    0.03658544   -0.05466143
     atom   13 type  3   force =    -0.00446644    0.03293566    0.06413598
     atom   14 type  3   force =     0.02166169   -0.03115741   -0.05701045
     atom   15 type  3   force =     0.02430246   -0.03987035    0.05859112
     atom   16 type  3   force =     0.01815166    0.03700499   -0.05205872
     atom   17 type  3   force =     0.00575337    0.04204710    0.06726341
     atom   18 type  4   force =     0.00186260    0.02585062   -0.00642242
     atom   19 type  4   force =    -0.13050440   -0.00546520   -0.11666356
     atom   20 type  4   force =    -0.12811762    0.00929637    0.11813375
     atom   21 type  4   force =     0.13129107   -0.00684474   -0.11478000
     atom   22 type  4   force =     0.10256711   -0.04690854    0.19117529
     atom   23 type  5   force =     0.03819977    0.05734004   -0.05853093
     The non-local contrib.  to forces
     atom    1 type  1   force =     0.00408751   -0.01410256    0.02594906
     atom    2 type  1   force =    -0.24500925   -0.16469161    0.01484572
     atom    3 type  1   force =    -0.23475357    0.15637507   -0.01965694
     atom    4 type  1   force =     0.24472603   -0.15875633    0.02161591
     atom    5 type  1   force =     0.26758289    0.11609612    0.01876230
     atom    6 type  2   force =     0.00739505   -0.04408296   -0.05976730
     atom    7 type  2   force =     0.00338375    0.09431838    0.04944298
     atom    8 type  3   force =    -0.25675153    0.00879076    0.00210771
     atom    9 type  3   force =     0.25750796    0.03762055    0.04017710
     atom   10 type  3   force =    -0.20881782    0.00777134   -0.20246440
     atom   11 type  3   force =    -0.21530242    0.00295890    0.19302145
     atom   12 type  3   force =    -0.20672675   -0.02248551   -0.17381631
     atom   13 type  3   force =    -0.20000049   -0.00601623    0.20014649
     atom   14 type  3   force =     0.21329690    0.00491249   -0.20720951
     atom   15 type  3   force =     0.22410859    0.01005968    0.18397706
     atom   16 type  3   force =     0.20290690   -0.02226344   -0.18025450
     atom   17 type  3   force =     0.23628701   -0.04630324    0.14492680
     atom   18 type  4   force =     0.00190564    0.05553410   -0.05991400
     atom   19 type  4   force =     0.05799517    0.01132863    0.07533394
     atom   20 type  4   force =     0.04903123   -0.01623989   -0.06947113
     atom   21 type  4   force =    -0.06269160    0.02439565    0.07358064
     atom   22 type  4   force =    -0.03962238   -0.03098812   -0.05141350
     atom   23 type  5   force =    -0.03442417   -0.02299772    0.00764909
     The ionic contribution  to forces
     atom    1 type  1   force =    -0.36622675   -4.97216707   13.92139096
     atom    2 type  1   force =   -39.74098463   -6.13692441    0.69683088
     atom    3 type  1   force =   -39.79630789    6.22303605   -0.84783074
     atom    4 type  1   force =    39.60505891   -6.18510108    0.61847605
     atom    5 type  1   force =    39.45285071    6.69845549   -1.24031728
     atom    6 type  2   force =    -0.11936554   -3.63653627  -14.02724328
     atom    7 type  2   force =    -1.56138839    4.00650558   13.78471495
     atom    8 type  3   force =   -52.32806066   -0.02226407   -0.25437613
     atom    9 type  3   force =    51.61896029   -0.76205049   -1.54586134
     atom   10 type  3   force =   -36.08106162   -2.09066133  -23.03914949
     atom   11 type  3   force =   -35.21508262   -0.86405454   22.10121739
     atom   12 type  3   force =   -35.28017439    0.82699989  -22.10046831
     atom   13 type  3   force =   -36.22458272    2.31914692   23.13292453
     atom   14 type  3   force =    36.01475515   -2.09884796  -23.05328401
     atom   15 type  3   force =    35.04665039   -0.92820800   22.17727089
     atom   16 type  3   force =    35.18918460    0.86435325  -22.13080042
     atom   17 type  3   force =    35.75172276    2.98217200   23.57824686
     atom   18 type  4   force =    -0.19310453    4.38597503  -14.11033219
     atom   19 type  4   force =   -35.93797704    0.93026294  -25.49968993
     atom   20 type  4   force =   -36.13046679   -1.05010310   25.61458746
     atom   21 type  4   force =    35.84367548    0.90526602  -25.53677185
     atom   22 type  4   force =    35.22671915   -2.04043194   27.08310347
     atom   23 type  5   force =     5.22520613    0.64517711    0.67736153
     The local contribution  to forces
     atom    1 type  1   force =     0.36101798    4.95108819  -13.95379919
     atom    2 type  1   force =    39.89058635    6.28584778   -0.71344958
     atom    3 type  1   force =    39.94554590   -6.36450938    0.87373260
     atom    4 type  1   force =   -39.75389105    6.32815512   -0.64939964
     atom    5 type  1   force =   -39.63594728   -6.79023203    1.21407269
     atom    6 type  2   force =     0.11196820    3.66334581   14.09163786
     atom    7 type  2   force =     1.54210800   -4.08222244  -13.84869043
     atom    8 type  3   force =    52.51067991    0.01774211    0.24277380
     atom    9 type  3   force =   -51.79743419    0.71034319    1.49385698
     atom   10 type  3   force =    36.29187146    2.04833747   23.20223763
     atom   11 type  3   force =    35.43654256    0.81003076  -22.26191646
     atom   12 type  3   force =    35.48820995   -0.75871489   22.23783831
     atom   13 type  3   force =    36.44436390   -2.26848518  -23.28957083
     atom   14 type  3   force =   -36.22814372    2.05842790   23.22293916
     atom   15 type  3   force =   -35.27499039    0.86615337  -22.32453734
     atom   16 type  3   force =   -35.39199831   -0.79711460   22.27892387
     atom   17 type  3   force =   -36.00885016   -2.88292061  -23.67261785
     atom   18 type  4   force =     0.19646935   -4.41737364   14.16345407
     atom   19 type  4   force =    35.75799782   -0.95135018   25.32292457
     atom   20 type  4   force =    35.95901162    1.07614862  -25.43974505
     atom   21 type  4   force =   -35.65658236   -0.93906455   25.36440612
     atom   22 type  4   force =   -35.08792113    2.02493161  -26.85387748
     atom   23 type  5   force =    -5.15233755   -0.56486234   -0.74403540
     The core correction contribution to forces
     atom    1 type  1   force =     0.00015052    0.00126405   -0.00060239
     atom    2 type  1   force =    -0.01169869   -0.00201540    0.00025929
     atom    3 type  1   force =    -0.01173210    0.00228602   -0.00096289
     atom    4 type  1   force =     0.01249585   -0.00118710    0.00127970
     atom    5 type  1   force =     0.01539207   -0.00152901    0.00136157
     atom    6 type  2   force =    -0.00052042    0.00204330    0.00242163
     atom    7 type  2   force =     0.00083615   -0.00491669   -0.00194065
     atom    8 type  3   force =    -0.03137243    0.00102296   -0.00009680
     atom    9 type  3   force =     0.02897881    0.00017184    0.00025402
     atom   10 type  3   force =    -0.02216619    0.00932935   -0.01592730
     atom   11 type  3   force =    -0.02269549    0.00919418    0.01713638
     atom   12 type  3   force =    -0.02128046   -0.00921677   -0.01520721
     atom   13 type  3   force =    -0.02079546   -0.00952872    0.01576439
     atom   14 type  3   force =     0.02134813    0.00960289   -0.01580636
     atom   15 type  3   force =     0.02484397    0.00920795    0.01764667
     atom   16 type  3   force =     0.02066873   -0.00868237   -0.01626477
     atom   17 type  3   force =     0.02284826   -0.01084772    0.01272203
     atom   18 type  4   force =     0.00000473   -0.00295611    0.00290382
     atom   19 type  4   force =    -0.00956783   -0.00010359   -0.00971652
     atom   20 type  4   force =    -0.00906549    0.00061243    0.00935141
     atom   21 type  4   force =     0.00977251   -0.00076582   -0.00967375
     atom   22 type  4   force =     0.00768964    0.00036481    0.00979286
     atom   23 type  5   force =     0.00000000    0.00000000    0.00000000
     The Hubbard contrib.    to forces
     atom    1 type  1   force =     0.00000000    0.00000000    0.00000000
     atom    2 type  1   force =     0.00000000    0.00000000    0.00000000
     atom    3 type  1   force =     0.00000000    0.00000000    0.00000000
     atom    4 type  1   force =     0.00000000    0.00000000    0.00000000
     atom    5 type  1   force =     0.00000000    0.00000000    0.00000000
     atom    6 type  2   force =     0.00000000    0.00000000    0.00000000
     atom    7 type  2   force =     0.00000000    0.00000000    0.00000000
     atom    8 type  3   force =     0.00000000    0.00000000    0.00000000
     atom    9 type  3   force =     0.00000000    0.00000000    0.00000000
     atom   10 type  3   force =     0.00000000    0.00000000    0.00000000
     atom   11 type  3   force =     0.00000000    0.00000000    0.00000000
     atom   12 type  3   force =     0.00000000    0.00000000    0.00000000
     atom   13 type  3   force =     0.00000000    0.00000000    0.00000000
     atom   14 type  3   force =     0.00000000    0.00000000    0.00000000
     atom   15 type  3   force =     0.00000000    0.00000000    0.00000000
     atom   16 type  3   force =     0.00000000    0.00000000    0.00000000
     atom   17 type  3   force =     0.00000000    0.00000000    0.00000000
     atom   18 type  4   force =     0.00000000    0.00000000    0.00000000
     atom   19 type  4   force =     0.00000000    0.00000000    0.00000000
     atom   20 type  4   force =     0.00000000    0.00000000    0.00000000
     atom   21 type  4   force =     0.00000000    0.00000000    0.00000000
     atom   22 type  4   force =     0.00000000    0.00000000    0.00000000
     atom   23 type  5   force =     0.00000000    0.00000000    0.00000000
     The SCF correction term to forces
     atom    1 type  1   force =    -0.00066213    0.00201841    0.00536673
     atom    2 type  1   force =    -0.00869481    0.00406692   -0.00076899
     atom    3 type  1   force =    -0.00781230   -0.00435369   -0.00365295
     atom    4 type  1   force =     0.00831678    0.00391345    0.00067442
     atom    5 type  1   force =     0.00702875   -0.00364453   -0.00141285
     atom    6 type  2   force =    -0.00233886   -0.00045361    0.00222158
     atom    7 type  2   force =    -0.00083571   -0.00510790    0.00367365
     atom    8 type  3   force =     0.00076440   -0.00017712    0.00316063
     atom    9 type  3   force =    -0.00218382   -0.00037140    0.00297900
     atom   10 type  3   force =    -0.00197617   -0.00670301   -0.00302981
     atom   11 type  3   force =    -0.00280548    0.00516910    0.00456209
     atom   12 type  3   force =    -0.00094359   -0.00006127   -0.00309247
     atom   13 type  3   force =    -0.00330642   -0.00224511    0.00478685
     atom   14 type  3   force =     0.00055048   -0.00531671   -0.00373428
     atom   15 type  3   force =     0.00383515    0.00285266    0.00414929
     atom   16 type  3   force =    -0.00246500    0.00064817   -0.00374745
     atom   17 type  3   force =     0.00389075   -0.00011732    0.00390101
     atom   18 type  4   force =    -0.00326735    0.00460727   -0.00261868
     atom   19 type  4   force =     0.00119274    0.00433302   -0.00560018
     atom   20 type  4   force =     0.00351706   -0.00118567    0.00332651
     atom   21 type  4   force =    -0.00273771    0.00325998   -0.00640571
     atom   22 type  4   force =    -0.00415293   -0.00084888    0.00348538
     atom   23 type  5   force =    -0.00009940   -0.00004100    0.00040930

     Total force =     0.514964     Total SCF correction =     0.030743


     Computing stress (Cartesian axis) and pressure


     negative rho (up, down):  9.089E-01 9.089E-01
          total   stress  (Ry/bohr**3)                   (kbar)     P=       86.60
   0.00063355   0.00000738  -0.00000504           93.20        1.09       -0.74
   0.00000738   0.00068576  -0.00002572            1.09      100.88       -3.78
  -0.00000504  -0.00002572   0.00044675           -0.74       -3.78       65.72


     Molecular Dynamics Calculation

     Starting temperature  =   300.00 K

     temperature is set once at start

     mass Hf               =   178.49
     mass Nb               =    92.91
     mass Ta               =   180.95
     mass Zr               =    91.22
     mass H                =     2.01
     Time step             =     4.20 a.u.,  0.2032 femto-seconds

     Entering Dynamics:    iteration =     1
                           time      =   0.0002 pico-seconds


ATOMIC_POSITIONS (angstrom)
Hf            2.6700324419        2.8271828265        6.6040693256
Hf            1.2530198897        1.2863445003        5.0585713163
Hf            1.2555164163        7.3898653755        5.0881729698
Hf            4.0870451139        1.2863445216        5.0585711708
Hf            4.0845486143        7.3898655565        5.0881727069
Nb            2.6700323272        2.7969904552        3.5156888856
Nb            2.6700316088        5.8764398632        6.6351023956
Ta            1.2094026237        4.3409887088        5.0712308059
Ta            4.1306623848        4.3409881597        5.0712307447
Ta            1.3072845891        1.3141823983        2.0588826149
Ta            1.3028202986        1.3084508098        8.0946858868
Ta            1.3040415621        7.3758878701        2.0463407861
Ta            1.3077432080        7.3651445911        8.0861091891
Ta            4.0327803789        1.3141824183        2.0588826499
Ta            4.0372448235        1.3084507183        8.0946860138
Ta            4.0360233416        7.3758878820        2.0463408598
Ta            4.0323218144        7.3651448489        8.0861092776
Zr            2.6700325975        5.8663480051        3.5274887231
Zr            1.2438598292        4.3221383683        2.0000986044
Zr            1.2404107568        4.3541845170        8.1498673339
Zr            4.0962052009        4.3221382909        2.0000987101
Zr            4.0996527948        4.3541813619        8.1498714341
H             4.5943423343        5.2052732209        6.5704767532


     kinetic energy (Ekin) =           8.09837954 Ry
     temperature           =       38746.45454354 K 
     Ekin + Etot (const)   =       -2934.97846130 Ry
     Ions kinetic stress =          143.03 (kbar)
                                     28.75          53.64          92.90
                                     53.64         100.08         173.35
                                     92.90         173.35         300.25



     Linear momentum :    0.0000000000   -0.0000000000   -0.0000000000

     File outdir/pwscf.msd.dat deleted, as requested

     Writing config-only to output data dir outdir/pwscf.save/
     NEW-OLD atomic charge density approx. for the potential

     Check: negative core charge=   -0.000002

     negative rho (up, down):  9.088E-01 9.088E-01
     Generating pointlists ...
     new r_m :   0.0901 (alat units)  1.5894 (a.u.) for type    2
     new r_m :   0.0791 (alat units)  1.3966 (a.u.) for type    3

     total cpu time spent up to now is      357.9 secs

     Self-consistent Calculation

     iteration #  1     ecut=   120.00 Ry     beta= 0.70
     Davidson diagonalization with overlap
     ethr =  1.00E-06,  avg # of iterations = 13.0

     negative rho (up, down):  9.089E-01 9.089E-01

     total cpu time spent up to now is      400.4 secs

     total energy              =   -2943.07098078 Ry
     estimated scf accuracy    <       0.01792486 Ry

     total magnetization       =    -0.02 Bohr mag/cell
     absolute magnetization    =     0.03 Bohr mag/cell

     iteration #  2     ecut=   120.00 Ry     beta= 0.70
     Davidson diagonalization with overlap
     ethr =  6.47E-06,  avg # of iterations =  2.0

     negative rho (up, down):  9.088E-01 9.088E-01

     total cpu time spent up to now is      438.1 secs

     total energy              =   -2943.07243635 Ry
     estimated scf accuracy    <       0.00356462 Ry

     total magnetization       =    -0.02 Bohr mag/cell
     absolute magnetization    =     0.03 Bohr mag/cell

     iteration #  3     ecut=   120.00 Ry     beta= 0.70
     Davidson diagonalization with overlap
     ethr =  1.29E-06,  avg # of iterations =  2.0

     negative rho (up, down):  9.089E-01 9.089E-01

     Magnetic moment per site  (integrated on atomic sphere of radius R)
     atom   1 (R=0.112)  charge=  9.4623   -0.0000
     atom   2 (R=0.112)  charge=  9.0555   -0.0001
     atom   3 (R=0.112)  charge=  9.0553   -0.0001
     atom   4 (R=0.112)  charge=  9.0575   -0.0000
     atom   5 (R=0.112)  charge=  9.0650   -0.0001
     atom   6 (R=0.090)  charge=  8.5958   -0.0000
     atom   7 (R=0.090)  charge=  8.5998   -0.0001
     atom   8 (R=0.079)  charge=  7.1153    0.0000
     atom   9 (R=0.079)  charge=  7.1265   -0.0000
     atom  10 (R=0.079)  charge=  7.1005   -0.0003
     atom  11 (R=0.079)  charge=  7.1003   -0.0003
     atom  12 (R=0.079)  charge=  7.1035   -0.0004
     atom  13 (R=0.079)  charge=  7.0991    0.0002
     atom  14 (R=0.079)  charge=  7.0992   -0.0002
     atom  15 (R=0.079)  charge=  7.0983   -0.0002
     atom  16 (R=0.079)  charge=  7.1007   -0.0005
     atom  17 (R=0.079)  charge=  7.1032   -0.0001
     atom  18 (R=0.079)  charge=  6.3503    0.0000
     atom  19 (R=0.079)  charge=  6.2503   -0.0005
     atom  20 (R=0.079)  charge=  6.2478   -0.0000
     atom  21 (R=0.079)  charge=  6.2495   -0.0005
     atom  22 (R=0.079)  charge=  6.2594   -0.0000
     atom  23 (R=0.079)  charge=  1.1198   -0.0000

     total cpu time spent up to now is      465.6 secs

     End of self-consistent calculation

 ------ SPIN UP ------------


          k = 0.0000 0.0000 0.0000 ( 61588 PWs)   bands (ev):

   -60.7674 -60.7424 -60.7224 -60.6977 -60.6694 -60.6617 -60.6255 -60.6130
   -60.5374 -60.4674 -54.3792 -54.3293 -54.2382 -54.1932 -52.6770 -46.3700
   -46.2319 -41.5772 -41.5708 -41.4727 -41.4636 -39.7794 -27.7621 -27.7396
   -27.6697 -27.6557 -27.5798 -27.5529 -27.4347 -27.4256 -27.4052 -27.3284
   -27.2939 -27.2607 -27.2349 -27.2196 -27.2000 -27.1621 -27.1508 -27.1348
   -27.1257 -27.0943 -27.0758 -27.0229 -26.9432 -26.9232 -26.9194 -26.8982
   -26.8583 -26.8443 -26.8213 -26.8131 -24.1601 -23.9533 -23.6562 -23.5623
   -23.2972 -23.2141 -23.1641 -23.0616 -22.9188 -22.8615 -22.8293 -22.6103
   -22.5675 -22.4562 -22.4352 -22.4117 -22.2571 -22.2302 -21.7372 -21.6721
   -21.6071 -20.1469 -19.8680 -19.7887 -19.7667 -19.5947 -19.5730 -19.5498
   -19.5190 -19.5118 -19.4706 -19.3154 -19.2806 -18.1243 -17.9214 -17.7888
     0.3193   1.8197   2.9690   3.1429   3.3095   3.3566   3.4895   3.6007
     3.6941   3.7590   3.9335   4.0242   4.2115   4.5150   4.5617   4.7308
     4.7692   4.9535   5.0622   5.1258   5.2304   5.2877   5.3151   5.3788
     5.4396   5.5473   5.5844   5.7104   5.7531   5.7744   5.8009   5.8673
     5.9828   6.0747   6.1750   6.2171   6.2929   6.3684   6.3849   6.4068
     6.4809   6.5985   6.6922   6.7255   6.9345   7.0091   7.0533   7.1224
     7.1447   7.1770   7.2800   7.3191   7.4289   7.5208   7.5678   7.5980
     7.6600   7.8231   7.9134   8.0310   8.0665   8.1167   8.1449   8.1763
     8.2664   8.2919   8.3461   8.3844   8.5119   8.5571   8.6020   8.7538
     8.8503   8.9414   8.9662   9.0835   9.1638   9.2851   9.3036

 ------ SPIN DOWN ----------


          k = 0.0000 0.0000 0.0000 ( 61588 PWs)   bands (ev):

   -60.7673 -60.7429 -60.7223 -60.6982 -60.6699 -60.6619 -60.6260 -60.6133
   -60.5374 -60.4674 -54.3793 -54.3294 -54.2383 -54.1933 -52.6771 -46.3701
   -46.2319 -41.5783 -41.5709 -41.4738 -41.4637 -39.7793 -27.7622 -27.7403
   -27.6698 -27.6564 -27.5797 -27.5534 -27.4352 -27.4261 -27.4054 -27.3284
   -27.2943 -27.2606 -27.2355 -27.2199 -27.2004 -27.1623 -27.1509 -27.1353
   -27.1259 -27.0944 -27.0759 -27.0228 -26.9431 -26.9234 -26.9201 -26.8989
   -26.8587 -26.8451 -26.8220 -26.8134 -24.1602 -23.9534 -23.6563 -23.5624
   -23.2973 -23.2142 -23.1641 -23.0616 -22.9188 -22.8616 -22.8293 -22.6103
   -22.5676 -22.4562 -22.4353 -22.4118 -22.2572 -22.2303 -21.7373 -21.6721
   -21.6072 -20.1481 -19.8679 -19.7899 -19.7678 -19.5947 -19.5733 -19.5508
   -19.5193 -19.5128 -19.4707 -19.3169 -19.2806 -18.1242 -17.9213 -17.7888
     0.3192   1.8194   2.9683   3.1426   3.3094   3.3564   3.4889   3.6005
     3.6940   3.7586   3.9327   4.0237   4.2112   4.5146   4.5614   4.7303
     4.7688   4.9530   5.0615   5.1255   5.2300   5.2873   5.3146   5.3783
     5.4390   5.5471   5.5840   5.7101   5.7530   5.7737   5.8004   5.8668
     5.9825   6.0742   6.1744   6.2167   6.2925   6.3680   6.3843   6.4061
     6.4804   6.5982   6.6918   6.7250   6.9337   7.0082   7.0517   7.1203
     7.1436   7.1761   7.2782   7.3186   7.4268   7.5189   7.5665   7.5974
     7.6590   7.8227   7.9128   8.0303   8.0659   8.1158   8.1443   8.1754
     8.2645   8.2913   8.3452   8.3833   8.5112   8.5564   8.6013   8.7533
     8.8496   8.9399   8.9656   9.0830   9.1633   9.2849   9.3030

     the Fermi energy is     7.2868 ev

!    total energy              =   -2943.07244735 Ry
     estimated scf accuracy    <       0.00058849 Ry
     smearing contrib. (-TS)   =      -0.09972173 Ry
     internal energy E=F+TS    =   -2942.97272561 Ry

     total magnetization       =    -0.02 Bohr mag/cell
     absolute magnetization    =     0.02 Bohr mag/cell

     convergence has been achieved in   3 iterations

     negative rho (up, down):  9.089E-01 9.089E-01

     Forces acting on atoms (cartesian axes, Ry/au):

     atom    1 type  1   force =    -0.00068077   -0.03357645    0.00524392
     atom    2 type  1   force =    -0.12093505   -0.01351385   -0.00315442
     atom    3 type  1   force =    -0.11178289    0.01180504   -0.00335265
     atom    4 type  1   force =     0.12210001   -0.01117603   -0.00548923
     atom    5 type  1   force =     0.11343609    0.01581578   -0.00895078
     atom    6 type  2   force =    -0.00407969   -0.01861201    0.00814842
     atom    7 type  2   force =    -0.01861148    0.01090157   -0.01543829
     atom    8 type  3   force =    -0.10620292    0.00608572   -0.00465536
     atom    9 type  3   force =     0.09861986   -0.03551280   -0.03853769
     atom   10 type  3   force =    -0.02408434   -0.03378645   -0.05962160
     atom   11 type  3   force =    -0.02143348   -0.03540152    0.05564359
     atom   12 type  3   force =    -0.02003297    0.03615305   -0.05527202
     atom   13 type  3   force =    -0.00520601    0.03395796    0.06766636
     atom   14 type  3   force =     0.02171083   -0.03150593   -0.05895842
     atom   15 type  3   force =     0.02389062   -0.03680122    0.06075321
     atom   16 type  3   force =     0.01636531    0.03605900   -0.05353008
     atom   17 type  3   force =     0.00643083    0.04541815    0.06987394
     atom   18 type  4   force =    -0.00123987    0.03014019   -0.01080894
     atom   19 type  4   force =    -0.13031884   -0.00327641   -0.11902206
     atom   20 type  4   force =    -0.12639447    0.00717354    0.12065443
     atom   21 type  4   force =     0.13183397   -0.00524780   -0.12086519
     atom   22 type  4   force =     0.11483266   -0.02981189    0.16406597
     atom   23 type  5   force =     0.04178262    0.05471235    0.00560690
     The non-local contrib.  to forces
     atom    1 type  1   force =     0.00446400   -0.01577390    0.02908034
     atom    2 type  1   force =    -0.24737514   -0.16332112    0.01491270
     atom    3 type  1   force =    -0.23879459    0.15496088   -0.02260602
     atom    4 type  1   force =     0.24744431   -0.15815191    0.02252661
     atom    5 type  1   force =     0.26782456    0.11796213    0.01350950
     atom    6 type  2   force =     0.00807762   -0.04603862   -0.06242555
     atom    7 type  2   force =     0.00838742    0.09914937    0.06029099
     atom    8 type  3   force =    -0.25719811    0.00894658    0.00399469
     atom    9 type  3   force =     0.24408953    0.02702701    0.02886627
     atom   10 type  3   force =    -0.20897476    0.00447109   -0.20433657
     atom   11 type  3   force =    -0.21532251    0.00398757    0.19425128
     atom   12 type  3   force =    -0.20279517   -0.02242269   -0.17402302
     atom   13 type  3   force =    -0.19762808   -0.00630407    0.20309112
     atom   14 type  3   force =     0.21106808    0.00436438   -0.20944821
     atom   15 type  3   force =     0.22224362    0.00907986    0.18564735
     atom   16 type  3   force =     0.19937575   -0.02372242   -0.18241000
     atom   17 type  3   force =     0.23325294   -0.03807925    0.15355773
     atom   18 type  4   force =    -0.00032157    0.05975057   -0.06192838
     atom   19 type  4   force =     0.05772965    0.01358835    0.07388594
     atom   20 type  4   force =     0.05164325   -0.01821696   -0.06958940
     atom   21 type  4   force =    -0.06638816    0.02633977    0.07070826
     atom   22 type  4   force =    -0.03903938   -0.02653558   -0.05303522
     atom   23 type  5   force =    -0.03545546   -0.02696023   -0.00776764
     The ionic contribution  to forces
     atom    1 type  1   force =    -0.40196116   -5.01422784   13.95790856
     atom    2 type  1   force =   -39.74881224   -6.14667650    0.70010065
     atom    3 type  1   force =   -39.80604078    6.23281330   -0.83976554
     atom    4 type  1   force =    39.60597378   -6.21621188    0.62213851
     atom    5 type  1   force =    39.46302056    6.75021849   -1.20546472
     atom    6 type  2   force =    -0.13516306   -3.65550617  -14.05304922
     atom    7 type  2   force =    -1.57407927    4.10427195   13.92880767
     atom    8 type  3   force =   -52.36702869   -0.02371412   -0.25559888
     atom    9 type  3   force =    51.50137224   -0.98236889   -1.92614698
     atom   10 type  3   force =   -36.08352296   -2.09419801  -23.04944878
     atom   11 type  3   force =   -35.21616651   -0.87222050   22.10996241
     atom   12 type  3   force =   -35.28254243    0.82890339  -22.11383171
     atom   13 type  3   force =   -36.21190254    2.31431874   23.14129938
     atom   14 type  3   force =    36.01589193   -2.10533319  -23.07021029
     atom   15 type  3   force =    35.05315531   -0.94944378   22.19356865
     atom   16 type  3   force =    35.19133755    0.86868661  -22.15655665
     atom   17 type  3   force =    35.81687904    2.85645074   23.53709046
     atom   18 type  4   force =    -0.21693520    4.40511076  -14.14647553
     atom   19 type  4   force =   -35.94266292    0.93151101  -25.51578844
     atom   20 type  4   force =   -36.13054141   -1.03990577   25.63278679
     atom   21 type  4   force =    35.84472885    0.90677555  -25.57467894
     atom   22 type  4   force =    35.35925482   -1.80483248   27.05927529
     atom   23 type  5   force =     5.26574509    0.70557857    1.02407729
     The local contribution  to forces
     atom    1 type  1   force =     0.40153019    4.98993079  -13.96917302
     atom    2 type  1   force =    39.87753884    6.29485749   -0.71886880
     atom    3 type  1   force =    39.93494264   -6.37535749    0.84926775
     atom    4 type  1   force =   -39.73695376    6.36598390   -0.64707747
     atom    5 type  1   force =   -39.62213605   -6.85583320    1.18197243
     atom    6 type  2   force =     0.11810370    3.67147805   14.11385669
     atom    7 type  2   force =     1.55321047   -4.19008407  -14.00000614
     atom    8 type  3   force =    52.54440431    0.02041263    0.24592266
     atom    9 type  3   force =   -51.65399255    0.93840290    1.89411373
     atom   10 type  3   force =    36.27946813    2.03033461   23.20260145
     atom   11 type  3   force =    35.42672627    0.82555857  -22.25743602
     atom   12 type  3   force =    35.47702117   -0.75892181   22.24184913
     atom   13 type  3   force =    36.41378443   -2.25826741  -23.28065661
     atom   14 type  3   force =   -36.22336955    2.05266694   23.22797791
     atom   15 type  3   force =   -35.26880452    0.90297466  -22.32784258
     atom   16 type  3   force =   -35.40039166   -0.79963448   22.29430601
     atom   17 type  3   force =   -36.05907040   -2.75750403  -23.62321007
     atom   18 type  4   force =     0.20879937   -4.41626140   14.18071322
     atom   19 type  4   force =    35.75863708   -0.93884277   25.32274138
     atom   20 type  4   force =    35.96345539    1.05939934  -25.44114698
     atom   21 type  4   force =   -35.65455194   -0.93306929   25.38008209
     atom   22 type  4   force =   -35.21650114    1.78192243  -26.84007574
     atom   23 type  5   force =    -5.18868417   -0.62596441   -1.01509757
     The core correction contribution to forces
     atom    1 type  1   force =     0.00033200    0.00118993   -0.00064361
     atom    2 type  1   force =    -0.01162465   -0.00186696    0.00022065
     atom    3 type  1   force =    -0.01189389    0.00223424   -0.00088511
     atom    4 type  1   force =     0.01266446   -0.00134565    0.00130579
     atom    5 type  1   force =     0.01498420   -0.00160109    0.00068409
     atom    6 type  2   force =    -0.00049573    0.00221198    0.00260342
     atom    7 type  2   force =     0.00058015   -0.00510803   -0.00244954
     atom    8 type  3   force =    -0.03108133    0.00088361    0.00007384
     atom    9 type  3   force =     0.02676093   -0.00111130   -0.00175459
     atom   10 type  3   force =    -0.02197810    0.00944315   -0.01591606
     atom   11 type  3   force =    -0.02288603    0.00921685    0.01712577
     atom   12 type  3   force =    -0.02098459   -0.00932199   -0.01505610
     atom   13 type  3   force =    -0.02035458   -0.00986647    0.01576093
     atom   14 type  3   force =     0.02113855    0.00961651   -0.01597240
     atom   15 type  3   force =     0.02431413    0.00917758    0.01686299
     atom   16 type  3   force =     0.02047098   -0.00859706   -0.01629260
     atom   17 type  3   force =     0.02348795   -0.01087413    0.01312981
     atom   18 type  4   force =     0.00006160   -0.00302994    0.00291123
     atom   19 type  4   force =    -0.00953085   -0.00014842   -0.00976079
     atom   20 type  4   force =    -0.00917686    0.00068370    0.00948212
     atom   21 type  4   force =     0.00993148   -0.00080062   -0.00967847
     atom   22 type  4   force =     0.00797514    0.00052099    0.00955637
     atom   23 type  5   force =     0.00000000    0.00000000    0.00000000
     The Hubbard contrib.    to forces
     atom    1 type  1   force =     0.00000000    0.00000000    0.00000000
     atom    2 type  1   force =     0.00000000    0.00000000    0.00000000
     atom    3 type  1   force =     0.00000000    0.00000000    0.00000000
     atom    4 type  1   force =     0.00000000    0.00000000    0.00000000
     atom    5 type  1   force =     0.00000000    0.00000000    0.00000000
     atom    6 type  2   force =     0.00000000    0.00000000    0.00000000
     atom    7 type  2   force =     0.00000000    0.00000000    0.00000000
     atom    8 type  3   force =     0.00000000    0.00000000    0.00000000
     atom    9 type  3   force =     0.00000000    0.00000000    0.00000000
     atom   10 type  3   force =     0.00000000    0.00000000    0.00000000
     atom   11 type  3   force =     0.00000000    0.00000000    0.00000000
     atom   12 type  3   force =     0.00000000    0.00000000    0.00000000
     atom   13 type  3   force =     0.00000000    0.00000000    0.00000000
     atom   14 type  3   force =     0.00000000    0.00000000    0.00000000
     atom   15 type  3   force =     0.00000000    0.00000000    0.00000000
     atom   16 type  3   force =     0.00000000    0.00000000    0.00000000
     atom   17 type  3   force =     0.00000000    0.00000000    0.00000000
     atom   18 type  4   force =     0.00000000    0.00000000    0.00000000
     atom   19 type  4   force =     0.00000000    0.00000000    0.00000000
     atom   20 type  4   force =     0.00000000    0.00000000    0.00000000
     atom   21 type  4   force =     0.00000000    0.00000000    0.00000000
     atom   22 type  4   force =     0.00000000    0.00000000    0.00000000
     atom   23 type  5   force =     0.00000000    0.00000000    0.00000000
     The SCF correction term to forces
     atom    1 type  1   force =    -0.00503128    0.00531139   -0.01177011
     atom    2 type  1   force =     0.00935266    0.00350007    0.00063863
     atom    3 type  1   force =     0.01001826   -0.00283909    0.01079451
     atom    4 type  1   force =    -0.00701426   -0.00144368   -0.00422443
     atom    5 type  1   force =    -0.01024267    0.00507626    0.00050616
     atom    6 type  2   force =     0.00541229    0.00924956    0.00732132
     atom    7 type  2   force =    -0.00669573    0.00267916   -0.00192301
     atom    8 type  3   force =     0.00471542   -0.00043617    0.00111058
     atom    9 type  3   force =    -0.01959577   -0.01745571   -0.03345787
     atom   10 type  3   force =     0.01093786    0.01616952    0.00763661
     atom   11 type  3   force =     0.00622981   -0.00193720   -0.00810161
     atom   12 type  3   force =     0.00928257   -0.00207703    0.00594793
     atom   13 type  3   force =     0.01090928   -0.00591604   -0.01167021
     atom   14 type  3   force =    -0.00300367    0.00718625    0.00885282
     atom   15 type  3   force =    -0.00700341   -0.00858273   -0.00732496
     atom   16 type  3   force =     0.00558720   -0.00066683    0.00758142
     atom   17 type  3   force =    -0.00810418   -0.00456837   -0.01053575
     atom   18 type  4   force =     0.00717045   -0.01542299    0.01412877
     atom   19 type  4   force =     0.00552272   -0.00937777    0.01005811
     atom   20 type  4   force =    -0.00176032    0.00522004   -0.01071985
     atom   21 type  4   force =    -0.00187176   -0.00448640    0.01286013
     atom   22 type  4   force =     0.00315774    0.01911956   -0.01149648
     atom   23 type  5   force =     0.00019168    0.00206523    0.00455307

     Total force =     0.514741     Total SCF correction =     0.076905
     SCF correction compared to forces is large: reduce conv_thr to get better values


     Computing stress (Cartesian axis) and pressure


     negative rho (up, down):  9.089E-01 9.089E-01
          total   stress  (Ry/bohr**3)                   (kbar)     P=       86.68
   0.00062249   0.00000547   0.00000116           91.57        0.80        0.17
   0.00000547   0.00069451  -0.00000306            0.80      102.17       -0.45
   0.00000116  -0.00000306   0.00045071            0.17       -0.45       66.30


     Entering Dynamics:    iteration =     2
                           time      =   0.0004 pico-seconds


ATOMIC_POSITIONS (angstrom)
Hf            2.6700648878        2.8272406972        6.6041747336
Hf            1.2530421600        1.2864040438        5.0586762255
Hf            1.2555395199        7.3899271335        5.0882779798
Hf            4.0870880000        1.2864042205        5.0586758005
Hf            4.0845907221        7.3899277258        5.0882771329
Nb            2.6700642477        2.7970482531        3.5157954527
Nb            2.6700612089        5.8765022518        6.6352051462
Ta            1.2094261803        4.3410499104        5.0713355161
Ta            4.1307034935        4.3410464578        5.0713334759
Ta            1.3073151309        1.3142402949        2.0589827451
Ta            1.3028510699        1.3085084798        8.0947957207
Ta            1.3040723681        7.3759516623        2.0464412640
Ta            1.3077753229        7.3652081558        8.0862199873
Ta            4.0328147567        1.3142404639        2.0589828527
Ta            4.0372793995        1.3085082176        8.0947962638
Ta            4.0360573175        7.3759516807        2.0464415100
Ta            4.0323548772        7.3652093201        8.0862202892
Zr            2.6700650988        5.8664135507        3.5275923023
Zr            1.2438704085        4.3221984043        2.0001838462
Zr            1.2404219108        4.3542465548        8.1499926643
Zr            4.0962599078        4.3221980281        2.0001838508
Zr            4.0997039805        4.3542360924        8.1500057384
H             4.5406321945        5.1048988899        6.3957696165


     kinetic energy (Ekin) =           8.09239924 Ry
     temperature           =       38717.84196916 K 
     Ekin + Etot (const)   =       -2934.98004811 Ry
     Ions kinetic stress =          142.92 (kbar)
                                     28.53          53.28          92.62
                                     53.28          99.52         172.99
                                     92.62         172.99         300.71



     Linear momentum :   -0.0000000000   -0.0000000000   -0.0000000000

     Writing config-only to output data dir outdir/pwscf.save/
     NEW-OLD atomic charge density approx. for the potential

     Check: negative core charge=   -0.000002

     negative rho (up, down):  9.089E-01 9.089E-01
     Generating pointlists ...
     new r_m :   0.0699 (alat units)  1.2339 (a.u.) for type    3
     new r_m :   0.0699 (alat units)  1.2339 (a.u.) for type    5

     total cpu time spent up to now is      489.7 secs

     Self-consistent Calculation

     iteration #  1     ecut=   120.00 Ry     beta= 0.70
     Davidson diagonalization with overlap
     ethr =  1.00E-06,  avg # of iterations =  6.0

     negative rho (up, down):  9.091E-01 9.091E-01

     total cpu time spent up to now is      521.9 secs

     total energy              =   -2943.02431499 Ry
     estimated scf accuracy    <       0.06673241 Ry

     total magnetization       =    -0.02 Bohr mag/cell
     absolute magnetization    =     0.02 Bohr mag/cell

     iteration #  2     ecut=   120.00 Ry     beta= 0.70
     Davidson diagonalization with overlap
     ethr =  2.41E-05,  avg # of iterations =  3.0

     negative rho (up, down):  9.091E-01 9.091E-01

     total cpu time spent up to now is      539.0 secs

     total energy              =   -2943.03104040 Ry
     estimated scf accuracy    <       0.01728085 Ry

     total magnetization       =    -0.02 Bohr mag/cell
     absolute magnetization    =     0.02 Bohr mag/cell

     iteration #  3     ecut=   120.00 Ry     beta= 0.70
     Davidson diagonalization with overlap
     ethr =  6.24E-06,  avg # of iterations =  1.5

     negative rho (up, down):  9.090E-01 9.090E-01

     total cpu time spent up to now is      572.3 secs

     total energy              =   -2943.03228530 Ry
     estimated scf accuracy    <       0.00163415 Ry

     total magnetization       =    -0.02 Bohr mag/cell
     absolute magnetization    =     0.02 Bohr mag/cell

     iteration #  4     ecut=   120.00 Ry     beta= 0.70
     Davidson diagonalization with overlap
     ethr =  5.90E-07,  avg # of iterations =  3.0

     negative rho (up, down):  9.088E-01 9.088E-01

     Magnetic moment per site  (integrated on atomic sphere of radius R)
     atom   1 (R=0.112)  charge=  9.4615   -0.0000
     atom   2 (R=0.112)  charge=  9.0572   -0.0001
     atom   3 (R=0.112)  charge=  9.0571   -0.0001
     atom   4 (R=0.112)  charge=  9.0588   -0.0000
     atom   5 (R=0.112)  charge=  9.0642   -0.0001
     atom   6 (R=0.090)  charge=  8.5955   -0.0000
     atom   7 (R=0.090)  charge=  8.5988   -0.0000
     atom   8 (R=0.070)  charge=  5.8281    0.0000
     atom   9 (R=0.070)  charge=  5.8495   -0.0000
     atom  10 (R=0.070)  charge=  5.8165   -0.0002
     atom  11 (R=0.070)  charge=  5.8133   -0.0002
     atom  12 (R=0.070)  charge=  5.8144   -0.0002
     atom  13 (R=0.070)  charge=  5.8151    0.0000
     atom  14 (R=0.070)  charge=  5.8136   -0.0001
     atom  15 (R=0.070)  charge=  5.8097   -0.0001
     atom  16 (R=0.070)  charge=  5.8128   -0.0003
     atom  17 (R=0.070)  charge=  5.8134   -0.0001
     atom  18 (R=0.079)  charge=  6.3503    0.0000
     atom  19 (R=0.079)  charge=  6.2523   -0.0004
     atom  20 (R=0.079)  charge=  6.2498   -0.0000
     atom  21 (R=0.079)  charge=  6.2509   -0.0004
     atom  22 (R=0.079)  charge=  6.2546   -0.0001
     atom  23 (R=0.070)  charge=  0.9855   -0.0000

     total cpu time spent up to now is      611.4 secs

     End of self-consistent calculation

 ------ SPIN UP ------------


          k = 0.0000 0.0000 0.0000 ( 61588 PWs)   bands (ev):

   -60.7714 -60.7608 -60.7249 -60.7155 -60.6854 -60.6655 -60.6384 -60.6179
   -60.5492 -60.3902 -54.3863 -54.3396 -54.2471 -54.2017 -52.6887 -46.3757
   -46.2416 -41.5999 -41.5950 -41.5147 -41.4878 -39.7950 -27.7656 -27.7561
   -27.6750 -27.6721 -27.5847 -27.5691 -27.4448 -27.4298 -27.4006 -27.3331
   -27.3086 -27.2672 -27.2527 -27.2277 -27.2093 -27.1832 -27.1620 -27.1475
   -27.1309 -27.1052 -27.0346 -26.9877 -26.9463 -26.9356 -26.9278 -26.9145
   -26.8651 -26.8601 -26.8358 -26.8164 -24.1688 -23.9619 -23.6650 -23.5724
   -23.3065 -23.2190 -23.1730 -23.0708 -22.9280 -22.8701 -22.8390 -22.6198
   -22.5782 -22.4674 -22.4395 -22.4215 -22.2670 -22.2396 -21.7499 -21.6845
   -21.6186 -20.1639 -19.9010 -19.8083 -19.7805 -19.6334 -19.5875 -19.5696
   -19.5462 -19.5257 -19.5111 -19.3324 -19.3196 -18.1395 -17.9372 -17.8050
     0.1978   1.7883   2.9527   3.1266   3.3193   3.3596   3.4766   3.5841
     3.6825   3.7494   3.9220   4.0064   4.2113   4.4985   4.5518   4.7182
     4.7492   4.9443   5.0528   5.1089   5.2313   5.2745   5.3023   5.3574
     5.4139   5.5362   5.5719   5.6912   5.7445   5.7633   5.7874   5.8760
     5.9765   6.0694   6.1671   6.2077   6.2808   6.3573   6.3743   6.3951
     6.4805   6.5922   6.6843   6.7115   6.9220   6.9996   7.0417   7.1074
     7.1424   7.1661   7.2632   7.3018   7.4227   7.5105   7.5640   7.5817
     7.6459   7.7910   7.9047   7.9969   8.0609   8.1051   8.1352   8.1627
     8.2566   8.2955   8.3364   8.3737   8.5058   8.5447   8.5838   8.7421
     8.8329   8.9176   8.9350   9.0739   9.1391   9.2770   9.2969

 ------ SPIN DOWN ----------


          k = 0.0000 0.0000 0.0000 ( 61588 PWs)   bands (ev):

   -60.7714 -60.7612 -60.7250 -60.7159 -60.6858 -60.6658 -60.6388 -60.6182
   -60.5492 -60.3902 -54.3864 -54.3396 -54.2471 -54.2017 -52.6887 -46.3758
   -46.2416 -41.6000 -41.5958 -41.5148 -41.4886 -39.7949 -27.7658 -27.7567
   -27.6752 -27.6727 -27.5848 -27.5696 -27.4454 -27.4301 -27.4007 -27.3332
   -27.3090 -27.2673 -27.2532 -27.2279 -27.2096 -27.1833 -27.1622 -27.1480
   -27.1312 -27.1053 -27.0346 -26.9877 -26.9464 -26.9361 -26.9281 -26.9151
   -26.8655 -26.8607 -26.8364 -26.8167 -24.1689 -23.9619 -23.6651 -23.5724
   -23.3065 -23.2191 -23.1731 -23.0708 -22.9280 -22.8702 -22.8390 -22.6199
   -22.5782 -22.4674 -22.4396 -22.4216 -22.2671 -22.2397 -21.7499 -21.6846
   -21.6186 -20.1647 -19.9009 -19.8092 -19.7813 -19.6335 -19.5877 -19.5703
   -19.5463 -19.5263 -19.5113 -19.3335 -19.3197 -18.1395 -17.9372 -17.8051
     0.1978   1.7880   2.9521   3.1264   3.3191   3.3594   3.4761   3.5839
     3.6824   3.7491   3.9213   4.0061   4.2110   4.4982   4.5515   4.7177
     4.7489   4.9439   5.0522   5.1086   5.2310   5.2741   5.3020   5.3570
     5.4134   5.5360   5.5716   5.6909   5.7443   5.7627   5.7870   5.8756
     5.9762   6.0690   6.1667   6.2074   6.2805   6.3569   6.3739   6.3946
     6.4801   6.5919   6.6839   6.7111   6.9214   6.9989   7.0404   7.1057
     7.1414   7.1654   7.2618   7.3013   7.4209   7.5089   7.5630   7.5812
     7.6450   7.7907   7.9042   7.9962   8.0604   8.1042   8.1348   8.1619
     8.2550   8.2950   8.3358   8.3727   8.5052   8.5441   8.5832   8.7416
     8.8324   8.9172   8.9337   9.0734   9.1387   9.2768   9.2971

     the Fermi energy is     7.2753 ev

!    total energy              =   -2943.03222796 Ry
     estimated scf accuracy    <       0.00036571 Ry
     smearing contrib. (-TS)   =      -0.09986632 Ry
     internal energy E=F+TS    =   -2942.93236164 Ry

     total magnetization       =    -0.02 Bohr mag/cell
     absolute magnetization    =     0.02 Bohr mag/cell

     convergence has been achieved in   4 iterations

     negative rho (up, down):  9.088E-01 9.088E-01

     Forces acting on atoms (cartesian axes, Ry/au):

     atom    1 type  1   force =    -0.00225295   -0.03054381   -0.00225149
     atom    2 type  1   force =    -0.11479875   -0.01238853   -0.00594473
     atom    3 type  1   force =    -0.10662858    0.01021806   -0.00012735
     atom    4 type  1   force =     0.11711409   -0.01052265   -0.00972391
     atom    5 type  1   force =     0.10926409    0.01552179   -0.01009847
     atom    6 type  2   force =    -0.00314064   -0.01939534    0.01048189
     atom    7 type  2   force =    -0.02103951    0.01523519   -0.01567906
     atom    8 type  3   force =    -0.10491701    0.00721800   -0.00354089
     atom    9 type  3   force =     0.06354439   -0.10045386   -0.14751894
     atom   10 type  3   force =    -0.02103523   -0.02975514   -0.05545337
     atom   11 type  3   force =    -0.02161048   -0.03519220    0.05380995
     atom   12 type  3   force =    -0.01730897    0.03609740   -0.05220305
     atom   13 type  3   force =    -0.00252529    0.03262118    0.06524961
     atom   14 type  3   force =     0.01853014   -0.03001523   -0.05483170
     atom   15 type  3   force =     0.02054857   -0.03724531    0.05962630
     atom   16 type  3   force =     0.01544870    0.03562052   -0.04920284
     atom   17 type  3   force =     0.00418354    0.04375756    0.06734561
     atom   18 type  4   force =     0.00063211    0.02673732   -0.00875969
     atom   19 type  4   force =    -0.12826294   -0.00564707   -0.11470072
     atom   20 type  4   force =    -0.12703699    0.00726294    0.11902751
     atom   21 type  4   force =     0.13157459   -0.00533337   -0.11864520
     atom   22 type  4   force =     0.12406675   -0.01074066    0.13691142
     atom   23 type  5   force =     0.06565038    0.09694319    0.13622914
     The non-local contrib.  to forces
     atom    1 type  1   force =     0.00320602   -0.01349734    0.02401649
     atom    2 type  1   force =    -0.24323669   -0.16291735    0.01451669
     atom    3 type  1   force =    -0.23661529    0.15448868   -0.02122451
     atom    4 type  1   force =     0.24445980   -0.15962066    0.01923496
     atom    5 type  1   force =     0.26088307    0.12406972    0.00560765
     atom    6 type  2   force =     0.00705213   -0.04400540   -0.06381393
     atom    7 type  2   force =     0.01194825    0.09978947    0.06946608
     atom    8 type  3   force =    -0.25521068    0.00901136    0.00408983
     atom    9 type  3   force =     0.22706543    0.01327938    0.00705294
     atom   10 type  3   force =    -0.20855805    0.00540830   -0.20414112
     atom   11 type  3   force =    -0.21729100    0.00522979    0.19192972
     atom   12 type  3   force =    -0.20099829   -0.02247640   -0.17207409
     atom   13 type  3   force =    -0.19458138   -0.00817352    0.20067905
     atom   14 type  3   force =     0.20932799    0.00606001   -0.20762655
     atom   15 type  3   force =     0.22176281    0.00662010    0.18489380
     atom   16 type  3   force =     0.19948886   -0.02485655   -0.18098452
     atom   17 type  3   force =     0.22562925   -0.02763775    0.16171993
     atom   18 type  4   force =     0.00121261    0.05815732   -0.05862631
     atom   19 type  4   force =     0.05991141    0.01074508    0.07677178
     atom   20 type  4   force =     0.05272027   -0.01730069   -0.07228762
     atom   21 type  4   force =    -0.07003647    0.02587053    0.07271856
     atom   22 type  4   force =    -0.03980866   -0.01833320   -0.06078571
     atom   23 type  5   force =    -0.03736018   -0.03426871   -0.02901399
     The ionic contribution  to forces
     atom    1 type  1   force =    -0.43755303   -5.05402036   14.00284129
     atom    2 type  1   force =   -39.75718680   -6.15740355    0.70436239
     atom    3 type  1   force =   -39.81434514    6.24178954   -0.82968170
     atom    4 type  1   force =    39.60704838   -6.25151659    0.62744902
     atom    5 type  1   force =    39.47689513    6.79088359   -1.15830340
     atom    6 type  2   force =    -0.15423551   -3.67755607  -14.08123608
     atom    7 type  2   force =    -1.53477430    4.18676409   14.07633865
     atom    8 type  3   force =   -52.40967634   -0.02367484   -0.25371868
     atom    9 type  3   force =    51.33418180   -1.29417840   -2.46363753
     atom   10 type  3   force =   -36.08634218   -2.09798394  -23.05971137
     atom   11 type  3   force =   -35.21680048   -0.87954221   22.11788636
     atom   12 type  3   force =   -35.28530410    0.83102950  -22.12653954
     atom   13 type  3   force =   -36.19847380    2.30790620   23.14697259
     atom   14 type  3   force =    36.01676950   -2.11261858  -23.08737235
     atom   15 type  3   force =    35.05942560   -0.96679944   22.20833146
     atom   16 type  3   force =    35.19317358    0.87401487  -22.18063393
     atom   17 type  3   force =    35.86607613    2.74904990   23.49390352
     atom   18 type  4   force =    -0.24381132    4.42863166  -14.18328070
     atom   19 type  4   force =   -35.94815454    0.93274275  -25.53212692
     atom   20 type  4   force =   -36.12685384   -1.02892270   25.64799896
     atom   21 type  4   force =    35.84519442    0.90794172  -25.61479284
     atom   22 type  4   force =    35.47807852   -1.59410777   26.97557819
     atom   23 type  5   force =     5.33666829    0.88757062    1.56937261
     The local contribution  to forces
     atom    1 type  1   force =     0.43331113    5.04153348  -14.04412179
     atom    2 type  1   force =    39.90452584    6.30880415   -0.73472537
     atom    3 type  1   force =    39.96518438   -6.38758819    0.84692117
     atom    4 type  1   force =   -39.75207209    6.40434856   -0.67027724
     atom    5 type  1   force =   -39.64639569   -6.90248143    1.13420347
     atom    6 type  2   force =     0.14837862    3.70074192   14.14649440
     atom    7 type  2   force =     1.50295748   -4.26905029  -14.17599500
     atom    8 type  3   force =    52.59885786    0.02128835    0.23555269
     atom    9 type  3   force =   -51.52092915    1.19141541    2.30953579
     atom   10 type  3   force =    36.30915504    2.06214414   23.23668089
     atom   11 type  3   force =    35.43892089    0.83521053  -22.28326604
     atom   12 type  3   force =    35.50655746   -0.76381735   22.27440230
     atom   13 type  3   force =    36.41434072   -2.26577176  -23.31036582
     atom   14 type  3   force =   -36.23386932    2.06694984   23.26843295
     atom   15 type  3   force =   -35.28780553    0.91559023  -22.35810530
     atom   16 type  3   force =   -35.40081816   -0.80406169   22.34131571
     atom   17 type  3   force =   -36.11078836   -2.67656948  -23.61262662
     atom   18 type  4   force =     0.25195652   -4.46095647   14.22911606
     atom   19 type  4   force =    35.77945159   -0.95410220   25.35984550
     atom   20 type  4   force =    35.95884989    1.05526617  -25.47189846
     atom   21 type  4   force =   -35.65836053   -0.93899333   25.44473275
     atom   22 type  4   force =   -35.32864336    1.60057695  -26.78641194
     atom   23 type  5   force =    -5.23402902   -0.75731927   -1.40943701
     The core correction contribution to forces
     atom    1 type  1   force =     0.00034455    0.00117025   -0.00078987
     atom    2 type  1   force =    -0.01146075   -0.00185339    0.00033803
     atom    3 type  1   force =    -0.01202932    0.00224060   -0.00074021
     atom    4 type  1   force =     0.01262319   -0.00152416    0.00107578
     atom    5 type  1   force =     0.01440767   -0.00127589   -0.00003116
     atom    6 type  2   force =    -0.00028486    0.00230558    0.00281175
     atom    7 type  2   force =     0.00042377   -0.00514730   -0.00288699
     atom    8 type  3   force =    -0.03078015    0.00069806    0.00020066
     atom    9 type  3   force =     0.02482539   -0.00216134   -0.00368586
     atom   10 type  3   force =    -0.02201824    0.00925312   -0.01596406
     atom   11 type  3   force =    -0.02339707    0.00935299    0.01728956
     atom   12 type  3   force =    -0.02115368   -0.00958584   -0.01511393
     atom   13 type  3   force =    -0.01999014   -0.01011192    0.01566633
     atom   14 type  3   force =     0.02095217    0.00958802   -0.01616868
     atom   15 type  3   force =     0.02410812    0.00920078    0.01637620
     atom   16 type  3   force =     0.02040149   -0.00861278   -0.01643324
     atom   17 type  3   force =     0.02349488   -0.01033522    0.01411631
     atom   18 type  4   force =     0.00008265   -0.00312502    0.00283593
     atom   19 type  4   force =    -0.00958301   -0.00006869   -0.00979982
     atom   20 type  4   force =    -0.00929895    0.00064935    0.00954096
     atom   21 type  4   force =     0.01011312   -0.00079086   -0.00956718
     atom   22 type  4   force =     0.00828435    0.00059497    0.00931067
     atom   23 type  5   force =     0.00000000    0.00000000    0.00000000
     The Hubbard contrib.    to forces
     atom    1 type  1   force =     0.00000000    0.00000000    0.00000000
     atom    2 type  1   force =     0.00000000    0.00000000    0.00000000
     atom    3 type  1   force =     0.00000000    0.00000000    0.00000000
     atom    4 type  1   force =     0.00000000    0.00000000    0.00000000
     atom    5 type  1   force =     0.00000000    0.00000000    0.00000000
     atom    6 type  2   force =     0.00000000    0.00000000    0.00000000
     atom    7 type  2   force =     0.00000000    0.00000000    0.00000000
     atom    8 type  3   force =     0.00000000    0.00000000    0.00000000
     atom    9 type  3   force =     0.00000000    0.00000000    0.00000000
     atom   10 type  3   force =     0.00000000    0.00000000    0.00000000
     atom   11 type  3   force =     0.00000000    0.00000000    0.00000000
     atom   12 type  3   force =     0.00000000    0.00000000    0.00000000
     atom   13 type  3   force =     0.00000000    0.00000000    0.00000000
     atom   14 type  3   force =     0.00000000    0.00000000    0.00000000
     atom   15 type  3   force =     0.00000000    0.00000000    0.00000000
     atom   16 type  3   force =     0.00000000    0.00000000    0.00000000
     atom   17 type  3   force =     0.00000000    0.00000000    0.00000000
     atom   18 type  4   force =     0.00000000    0.00000000    0.00000000
     atom   19 type  4   force =     0.00000000    0.00000000    0.00000000
     atom   20 type  4   force =     0.00000000    0.00000000    0.00000000
     atom   21 type  4   force =     0.00000000    0.00000000    0.00000000
     atom   22 type  4   force =     0.00000000    0.00000000    0.00000000
     atom   23 type  5   force =     0.00000000    0.00000000    0.00000000
     The SCF correction term to forces
     atom    1 type  1   force =    -0.00114512   -0.00572626    0.01507974
     atom    2 type  1   force =    -0.00702384    0.00098517    0.00884088
     atom    3 type  1   force =    -0.00840669   -0.00070901    0.00387524
     atom    4 type  1   force =     0.00547131   -0.00220623    0.01207090
     atom    5 type  1   force =     0.00389041    0.00432938    0.00770231
     atom    6 type  2   force =    -0.00363452   -0.00087779    0.00550309
     atom    7 type  2   force =    -0.00117821    0.00288279    0.01667556
     atom    8 type  3   force =    -0.00769120   -0.00010136    0.00961194
     atom    9 type  3   force =    -0.00118258   -0.00880534    0.00249308
     atom   10 type  3   force =    -0.01285530   -0.00857319   -0.01304036
     atom   11 type  3   force =    -0.00262632   -0.00543973    0.00924769
     atom   12 type  3   force =    -0.01599386    0.00095105   -0.01360044
     atom   13 type  3   force =    -0.00340419    0.00877574    0.01157481
     atom   14 type  3   force =     0.00576630    0.00000905   -0.01281972
     atom   15 type  3   force =     0.00347406   -0.00185341    0.00740749
     atom   16 type  3   force =     0.00361943   -0.00085976   -0.01318952
     atom   17 type  3   force =     0.00018815    0.00925368    0.00950982
     atom   18 type  4   force =    -0.00839184    0.00403340    0.00047268
     atom   19 type  4   force =    -0.00947188    0.00503956   -0.01011391
     atom   20 type  4   force =    -0.00203786   -0.00242563    0.00495101
     atom   21 type  4   force =     0.00508055    0.00064214   -0.01245916
     atom   22 type  4   force =     0.00657240    0.00053197   -0.00150244
     atom   23 type  5   force =     0.00078779    0.00096412    0.00458488

     Total force =     0.545678     Total SCF correction =     0.061108
     SCF correction compared to forces is large: reduce conv_thr to get better values


     Computing stress (Cartesian axis) and pressure


     negative rho (up, down):  9.088E-01 9.088E-01
          total   stress  (Ry/bohr**3)                   (kbar)     P=       90.09
   0.00064111   0.00000724   0.00002060           94.31        1.06        3.03
   0.00000724   0.00070427   0.00003030            1.06      103.60        4.46
   0.00002060   0.00003030   0.00049178            3.03        4.46       72.34


     Entering Dynamics:    iteration =     3
                           time      =   0.0006 pico-seconds


ATOMIC_POSITIONS (angstrom)
Hf            2.6700972045        2.8272968152        6.6042800123
Hf            1.2530578433        1.2864628765        5.0587807935
Hf            1.2555565052        7.3899894778        5.0883829826
Hf            4.0871376060        1.2864633156        5.0587798723
Hf            4.0846390995        7.3899907856        5.0883809794
Nb            2.6700958220        2.7971039130        3.5159031753
Nb            2.6700884897        5.8765663199        6.6353061683
Ta            1.2094437987        4.3411115205        5.0714400258
Ta            4.1307481988        4.3410990702        5.0714278575
[...]
     4.7763   4.9517   5.0631   5.1365   5.1932   5.2803   5.3145   5.3642
     5.4506   5.5570   5.6019   5.7149   5.7460   5.7699   5.7896   5.8114
     5.9715   6.0654   6.1632   6.1991   6.2875   6.3546   6.3713   6.4067
     6.4572   6.5883   6.6782   6.7302   6.9311   6.9855   7.0469   7.1087
     7.1310   7.1695   7.2904   7.3189   7.3885   7.5256   7.5594   7.6187
     7.6618   7.8673   7.9009   8.0338   8.1028   8.1142   8.1457   8.2085
     8.2213   8.2861   8.3434   8.3919   8.4968   8.5478   8.6394   8.7009
     8.8462   8.9405   9.0096   9.0574   9.1115   9.2544   9.2853

     the Fermi energy is     7.2802 ev

!    total energy              =   -2943.07721250 Ry
     estimated scf accuracy    <       0.00049994 Ry
     smearing contrib. (-TS)   =      -0.09821484 Ry
     internal energy E=F+TS    =   -2942.97899765 Ry

     total magnetization       =    -0.00 Bohr mag/cell
     absolute magnetization    =     0.00 Bohr mag/cell

     convergence has been achieved in   4 iterations

     negative rho (up, down):  9.091E-01 9.091E-01

     Forces acting on atoms (cartesian axes, Ry/au):

     atom    1 type  1   force =    -0.00091318   -0.02879792    0.00091699
     atom    2 type  1   force =    -0.11591368   -0.01346417   -0.00571029
     atom    3 type  1   force =    -0.10456896    0.01210391   -0.00213604
     atom    4 type  1   force =     0.11578112   -0.01763306   -0.00881129
     atom    5 type  1   force =     0.10436921    0.01683902   -0.00670712
     atom    6 type  2   force =    -0.00919912   -0.01834274    0.00285238
     atom    7 type  2   force =    -0.00431581    0.00348762   -0.00833175
     atom    8 type  3   force =    -0.10373334    0.00313173   -0.00898677
     atom    9 type  3   force =     0.10543502    0.00334083    0.00894676
     atom   10 type  3   force =    -0.02044377   -0.03266701   -0.05994616
     atom   11 type  3   force =    -0.01508121   -0.03532344    0.05777643
     atom   12 type  3   force =    -0.01686300    0.03634080   -0.05500339
     atom   13 type  3   force =    -0.00837320    0.02796160    0.06525271
     atom   14 type  3   force =     0.02148998   -0.03401320   -0.05867059
     atom   15 type  3   force =     0.02785597   -0.03529670    0.06122571
     atom   16 type  3   force =     0.01593001    0.03821187   -0.05450994
     atom   17 type  3   force =     0.00962372    0.02237053    0.06827069
     atom   18 type  4   force =    -0.00078016    0.02928422   -0.01180723
     atom   19 type  4   force =    -0.12686461   -0.00413908   -0.11838124
     atom   20 type  4   force =    -0.12181332    0.01168576    0.11784666
     atom   21 type  4   force =     0.12412688   -0.00572889   -0.11839841
     atom   22 type  4   force =     0.08141999   -0.06779189    0.20323385
     atom   23 type  5   force =     0.04283149    0.08844021   -0.06892194
     The non-local contrib.  to forces
     atom    1 type  1   force =     0.00260415   -0.01579758    0.02798144
     atom    2 type  1   force =    -0.24630886   -0.16498219    0.01050564
     atom    3 type  1   force =    -0.23607635    0.15672119   -0.02230892
     atom    4 type  1   force =     0.24445383   -0.16027007    0.01847598
     atom    5 type  1   force =     0.27277881    0.10912130    0.02107782
     atom    6 type  2   force =     0.00395260   -0.03448153   -0.04893360
     atom    7 type  2   force =    -0.01125169    0.08093817    0.04188788
     atom    8 type  3   force =    -0.26177033    0.00782831   -0.00036263
     atom    9 type  3   force =     0.27406806    0.04331837    0.04304386
     atom   10 type  3   force =    -0.20318284    0.00619793   -0.20324149
     atom   11 type  3   force =    -0.21124323    0.00299232    0.19734913
     atom   12 type  3   force =    -0.20268262   -0.01983785   -0.17660684
     atom   13 type  3   force =    -0.20029375   -0.00903295    0.20281149
     atom   14 type  3   force =     0.20823899    0.00211943   -0.20477085
     atom   15 type  3   force =     0.22493358    0.01660476    0.18819829
     atom   16 type  3   force =     0.19618388   -0.01716387   -0.18256554
     atom   17 type  3   force =     0.21986137   -0.05180843    0.14931184
     atom   18 type  4   force =     0.00288023    0.05132564   -0.06240043
     atom   19 type  4   force =     0.06069943    0.00970926    0.07114263
     atom   20 type  4   force =     0.04633462   -0.01440168   -0.06086359
     atom   21 type  4   force =    -0.05999010    0.02047068    0.07334224
     atom   22 type  4   force =    -0.04666344   -0.03810730   -0.05957100
     atom   23 type  5   force =    -0.03379970   -0.01506582    0.02480779
     The ionic contribution  to forces
     atom    1 type  1   force =    -0.20376773   -4.69360978   14.02825834
     atom    2 type  1   force =   -39.74435334   -6.14531465    0.74450302
     atom    3 type  1   force =   -39.72792766    6.16027204   -0.80580630
     atom    4 type  1   force =    39.61211274   -6.28596298    0.74589282
     atom    5 type  1   force =    39.44544832    6.37144059   -1.14836480
     atom    6 type  2   force =    -0.42719038   -3.85978162  -14.19445554
     atom    7 type  2   force =    -1.02981792    3.54540486   13.48195216
     atom    8 type  3   force =   -52.30768848    0.06451078   -0.08967067
     atom    9 type  3   force =    51.71271719    0.02432318   -0.44879807
     atom   10 type  3   force =   -36.08292220   -2.09279021  -23.01641244
     atom   11 type  3   force =   -35.17609127   -0.81838748   22.04046489
     atom   12 type  3   force =   -35.26805523    0.81012412  -22.05292586
     atom   13 type  3   force =   -36.18485984    2.26896402   23.04794489
     atom   14 type  3   force =    35.99150901   -2.15246955  -23.06571217
     atom   15 type  3   force =    35.01733198   -0.82196707   22.08640095
     atom   16 type  3   force =    35.17036302    0.85923815  -22.05752621
     atom   17 type  3   force =    35.50529971    3.17668955   23.52735853
     atom   18 type  4   force =    -0.23425932    4.54657518  -13.99036669
     atom   19 type  4   force =   -35.94141379    0.94481979  -25.44677817
     atom   20 type  4   force =   -36.00079523   -1.04270894   25.44723616
     atom   21 type  4   force =    35.81147121    0.96081200  -25.65763130
     atom   22 type  4   force =    34.95819342   -2.34490471   26.41543169
     atom   23 type  5   force =     5.10469579    0.52472273    0.40900476
     The local contribution  to forces
     atom    1 type  1   force =     0.20167531    4.67673746  -14.05015989
     atom    2 type  1   force =    39.89662412    6.29549098   -0.77372989
     atom    3 type  1   force =    39.88156824   -6.30460670    0.81530144
     atom    4 type  1   force =   -39.75997360    6.42259659   -0.78449988
     atom    5 type  1   force =   -39.63605175   -6.45751663    1.11074743
     atom    6 type  2   force =     0.41540700    3.86806976   14.21960220
     atom    7 type  2   force =     1.03889996   -3.60957735  -13.52019709
     atom    8 type  3   force =    52.50696439   -0.06982777    0.06983601
     atom    9 type  3   force =   -51.92669919   -0.06842327    0.39378040
     atom   10 type  3   force =    36.29934512    2.03800819   23.15937170
     atom   11 type  3   force =    35.40869910    0.76961531  -22.17473502
     atom   12 type  3   force =    35.48686150   -0.74084562   22.17415807
     atom   13 type  3   force =    36.41565509   -2.22543485  -23.17789247
     atom   14 type  3   force =   -36.20661957    2.09950819   23.20927413
     atom   15 type  3   force =   -35.24563905    0.75103615  -22.21052546
     atom   16 type  3   force =   -35.37966595   -0.78940428   22.18373712
     atom   17 type  3   force =   -35.73204121   -3.09833640  -23.60448914
     atom   18 type  4   force =     0.23152560   -4.55843754   14.01453672
     atom   19 type  4   force =    35.77293770   -0.95727488   25.24854238
     atom   20 type  4   force =    35.85290657    1.07079841  -25.25542824
     atom   21 type  4   force =   -35.64444813   -0.98525672   25.45586507
     atom   22 type  4   force =   -34.84142707    2.32614148  -26.13589497
     atom   23 type  5   force =    -5.02760584   -0.41846739   -0.49909847
     The core correction contribution to forces
     atom    1 type  1   force =    -0.00025435    0.00148547   -0.00094146
     atom    2 type  1   force =    -0.01193333   -0.00227898    0.00048562
     atom    3 type  1   force =    -0.01184893    0.00228375   -0.00124897
     atom    4 type  1   force =     0.01238958   -0.00064737    0.00043223
     atom    5 type  1   force =     0.01582588   -0.00118059    0.00232931
     atom    6 type  2   force =    -0.00041583    0.00142352    0.00176260
     atom    7 type  2   force =     0.00166884   -0.00428292   -0.00151735
     atom    8 type  3   force =    -0.03238816    0.00115958   -0.00021386
     atom    9 type  3   force =     0.03251585    0.00203834    0.00348052
     atom   10 type  3   force =    -0.02217357    0.00940631   -0.01614034
     atom   11 type  3   force =    -0.02221702    0.00918033    0.01706125
     atom   12 type  3   force =    -0.02074017   -0.00903347   -0.01566262
     atom   13 type  3   force =    -0.02149718   -0.00919636    0.01567114
     atom   14 type  3   force =     0.02116189    0.00950014   -0.01525280
     atom   15 type  3   force =     0.02543624    0.00940576    0.01980526
     atom   16 type  3   force =     0.02117272   -0.00918257   -0.01618559
     atom   17 type  3   force =     0.01830571   -0.00942533    0.01349464
     atom   18 type  4   force =    -0.00008387   -0.00263642    0.00289441
     atom   19 type  4   force =    -0.00963310    0.00000643   -0.00961803
     atom   20 type  4   force =    -0.00876971    0.00052993    0.00905865
     atom   21 type  4   force =     0.00951471   -0.00055023   -0.00988220
     atom   22 type  4   force =     0.00745853   -0.00009446    0.01039992
     atom   23 type  5   force =     0.00000000    0.00000000    0.00000000
     The Hubbard contrib.    to forces
     atom    1 type  1   force =     0.00000000    0.00000000    0.00000000
     atom    2 type  1   force =     0.00000000    0.00000000    0.00000000
     atom    3 type  1   force =     0.00000000    0.00000000    0.00000000
     atom    4 type  1   force =     0.00000000    0.00000000    0.00000000
     atom    5 type  1   force =     0.00000000    0.00000000    0.00000000
     atom    6 type  2   force =     0.00000000    0.00000000    0.00000000
     atom    7 type  2   force =     0.00000000    0.00000000    0.00000000
     atom    8 type  3   force =     0.00000000    0.00000000    0.00000000
     atom    9 type  3   force =     0.00000000    0.00000000    0.00000000
     atom   10 type  3   force =     0.00000000    0.00000000    0.00000000
     atom   11 type  3   force =     0.00000000    0.00000000    0.00000000
     atom   12 type  3   force =     0.00000000    0.00000000    0.00000000
     atom   13 type  3   force =     0.00000000    0.00000000    0.00000000
     atom   14 type  3   force =     0.00000000    0.00000000    0.00000000
     atom   15 type  3   force =     0.00000000    0.00000000    0.00000000
     atom   16 type  3   force =     0.00000000    0.00000000    0.00000000
     atom   17 type  3   force =     0.00000000    0.00000000    0.00000000
     atom   18 type  4   force =     0.00000000    0.00000000    0.00000000
     atom   19 type  4   force =     0.00000000    0.00000000    0.00000000
     atom   20 type  4   force =     0.00000000    0.00000000    0.00000000
     atom   21 type  4   force =     0.00000000    0.00000000    0.00000000
     atom   22 type  4   force =     0.00000000    0.00000000    0.00000000
     atom   23 type  5   force =     0.00000000    0.00000000    0.00000000
     The SCF correction term to forces
     atom    1 type  1   force =    -0.00076031    0.00231134   -0.00475645
     atom    2 type  1   force =    -0.00953202    0.00354549    0.01199030
     atom    3 type  1   force =    -0.00987401   -0.00264154    0.01139168
     atom    4 type  1   force =     0.00720883    0.00657560    0.01035253
     atom    5 type  1   force =     0.00677820   -0.00510083    0.00696809
     atom    6 type  2   force =    -0.00054226    0.00635195    0.02434168
     atom    7 type  2   force =    -0.00340474   -0.00907030   -0.01099236
     atom    8 type  3   force =    -0.00844050   -0.00061434    0.01088936
     atom    9 type  3   force =     0.01324337    0.00200902    0.01690503
     atom   10 type  3   force =    -0.01110003    0.00643561    0.01594138
     atom   11 type  3   force =    -0.01381853    0.00120091   -0.02289884
     atom   12 type  3   force =    -0.01183623   -0.00414157    0.01549884
     atom   13 type  3   force =    -0.01696726    0.00258657   -0.02381736
     atom   14 type  3   force =     0.00760992    0.00725341    0.01725607
     atom   15 type  3   force =     0.00620348    0.00954853   -0.02318836
     atom   16 type  3   force =     0.00828660   -0.00535072    0.01749525
     atom   17 type  3   force =    -0.00139161    0.00517597   -0.01794020
     atom   18 type  4   force =    -0.00043254   -0.00761780    0.02299374
     atom   19 type  4   force =    -0.00904459   -0.00147486    0.01779492
     atom   20 type  4   force =    -0.01107931   -0.00260713   -0.02269134
     atom   21 type  4   force =     0.00798944   -0.00127979    0.01937276
     atom   22 type  4   force =     0.00426880   -0.01090207   -0.02766681
     atom   23 type  5   force =    -0.00004850   -0.00282448   -0.00417105

     Total force =     0.519570     Total SCF correction =     0.097782
     SCF correction compared to forces is large: reduce conv_thr to get better values


     Computing stress (Cartesian axis) and pressure


     negative rho (up, down):  9.091E-01 9.091E-01
          total   stress  (Ry/bohr**3)                   (kbar)     P=       85.04
   0.00063598   0.00002312  -0.00000160           93.56        3.40       -0.24
   0.00002312   0.00068786  -0.00003897            3.40      101.19       -5.73
  -0.00000160  -0.00003897   0.00041039           -0.24       -5.73       60.37


     Entering Dynamics:    iteration =    20
                           time      =   0.0041 pico-seconds


ATOMIC_POSITIONS (angstrom)
Hf            2.6707188270        2.8280585650        6.6060851796
Hf            1.2522930129        1.2873427791        5.0605025119
Hf            1.2548524092        7.3911297647        5.0901867005
Hf            4.0890306252        1.2873552613        5.0605252278
Hf            4.0864768545        7.3911868507        5.0901264027
Nb            2.6708758150        2.7979040364        3.5180949363
Nb            2.6703016026        5.8779587100        6.6368037854
Ta            1.2088124553        4.3422474923        5.0732164911
Ta            4.1180530662        4.3158343614        5.0284871976
Ta            1.3076124146        1.3149412434        2.0602191163
Ta            1.3031884188        1.3091827652        8.0973063103
Ta            1.3044539775        7.3774756171        2.0477274374
Ta            1.3082965621        7.3666672383        8.0888335244
Ta            4.0336093428        1.3150252678        2.0602204974
Ta            4.0380824462        1.3092244918        8.0973432059
Ta            4.0368128641        7.3774100474        2.0477520945
Ta            4.0330235695        7.3666915432        8.0888182976
Zr            2.6707143622        5.8680748249        3.5292966927
Zr            1.2415906376        4.3231933043        1.9994519718
Zr            1.2381494632        4.3554634113        8.1545238440
Zr            4.0997616130        4.3231860436        1.9993927797
Zr            4.1031188280        4.3551835030        8.1547304255
H             4.8676976372        5.6439586274        7.2626832892


     kinetic energy (Ekin) =           8.10457161 Ry
     temperature           =       38776.08032499 K 
     Ekin + Etot (const)   =       -2934.97264089 Ry
     Ions kinetic stress =          143.14 (kbar)
                                     34.08          59.75          99.02
                                     59.75         105.48         174.79
                                     99.02         174.79         289.85



     Linear momentum :    0.0000000000    0.0000000000   -0.0000000000

     The maximum number of steps has been reached.

     End of molecular dynamics calculation

     diffusion coefficients :
     atom     1   D =       0.00000002 cm^2/s
     atom     2   D =       0.00000002 cm^2/s
     atom     3   D =       0.00000003 cm^2/s
     atom     4   D =       0.00000004 cm^2/s
     atom     5   D =       0.00000004 cm^2/s
     atom     6   D =       0.00000003 cm^2/s
     atom     7   D =       0.00000002 cm^2/s
     atom     8   D =       0.00000003 cm^2/s
     atom     9   D =       0.00001069 cm^2/s
     atom    10   D =       0.00000001 cm^2/s
     atom    11   D =       0.00000003 cm^2/s
     atom    12   D =       0.00000002 cm^2/s
     atom    13   D =       0.00000004 cm^2/s
     atom    14   D =       0.00000001 cm^2/s
     atom    15   D =       0.00000004 cm^2/s
     atom    16   D =       0.00000002 cm^2/s
     atom    17   D =       0.00000005 cm^2/s
     atom    18   D =       0.00000003 cm^2/s
     atom    19   D =       0.00000003 cm^2/s
     atom    20   D =       0.00000012 cm^2/s
     atom    21   D =       0.00000006 cm^2/s
     atom    22   D =       0.00000016 cm^2/s
     atom    23   D =       0.00176436 cm^2/s

     < D > =       0.00007721 cm^2/s

     Writing all to output data dir outdir/pwscf.save/

     init_run     :     11.05s CPU     11.88s WALL (       1 calls)
     electrons    :   2197.37s CPU   2601.02s WALL (      20 calls)
     update_pot   :     19.54s CPU     20.80s WALL (      19 calls)
     forces       :    307.81s CPU    370.25s WALL (      20 calls)
     stress       :    319.94s CPU    352.46s WALL (      20 calls)

     Called by init_run:
     wfcinit      :      8.37s CPU      8.95s WALL (       1 calls)
     potinit      :      0.47s CPU      0.49s WALL (       1 calls)
     hinit0       :      0.96s CPU      1.04s WALL (       1 calls)

     Called by electrons:
     c_bands      :   1708.71s CPU   2041.60s WALL (      96 calls)
     sum_band     :    320.40s CPU    367.32s WALL (      96 calls)
     v_of_rho     :     10.37s CPU     12.08s WALL (     116 calls)
     newd         :    178.47s CPU    203.26s WALL (     116 calls)
     mix_rho      :      0.98s CPU      1.22s WALL (      96 calls)

     Called by c_bands:
     init_us_2    :      3.80s CPU      3.89s WALL (     466 calls)
     init_us_2:cp :      3.80s CPU      3.89s WALL (     466 calls)
     regterg      :   1695.78s CPU   2026.25s WALL (     192 calls)

     Called by *egterg:
     rdiaghg      :     50.68s CPU     63.08s WALL (    1291 calls)
     h_psi        :    875.39s CPU    978.46s WALL (    1331 calls)
     s_psi        :    291.02s CPU    291.67s WALL (    1331 calls)
     g_psi        :      0.64s CPU      0.68s WALL (    1137 calls)

     Called by h_psi:
     h_psi:calbec :    414.07s CPU    483.95s WALL (    1331 calls)
     vloc_psi     :     89.67s CPU    121.78s WALL (    1331 calls)
     add_vuspsi   :    370.30s CPU    371.33s WALL (    1331 calls)

     General routines
     calbec       :    824.40s CPU    983.22s WALL (    1723 calls)
     fft          :      8.19s CPU     21.89s WALL (    2439 calls)
     ffts         :      0.21s CPU      0.24s WALL (      96 calls)
     fftw         :     97.28s CPU    132.33s WALL (  101888 calls)

     Parallel routines

     PWSCF        :  47m57.26s CPU  56m22.03s WALL


   This run was terminated on:   6:56:37  15Jun2023            

=------------------------------------------------------------------------------=
   JOB DONE.
=------------------------------------------------------------------------------=
