
     Program PWSCF v.7.2 starts on 13Jun2023 at 14:10:41 

     This program is part of the open-source Quantum ESPRESSO suite
     for quantum simulation of materials; please cite
         "P. Giannozzi et al., J. Phys.:Condens. Matter 21 395502 (2009);
         "P. Giannozzi et al., J. Phys.:Condens. Matter 29 465901 (2017);
         "P. Giannozzi et al., J. Chem. Phys. 152 154105 (2020);
          URL http://www.quantum-espresso.org", 
     in publications or presentations arising from this work. More details at
     http://www.quantum-espresso.org/quote

     Parallel version (MPI), running on    42 processors

     MPI processes distributed on     1 nodes
     179570 MiB available memory on the printing compute node when the environment starts

     Reading input from md_data/md_Hf5Nb2Ta10Zr5H_20steps_100eV_incident60_polar0.in
Warning: card &CELL ignored
Warning: card / ignored

     Current dimensions of program PWSCF are:
     Max number of different atomic species (ntypx) = 10
     Max number of k-points (npk) =  40000
     Max angular momentum in pseudopotentials (lmaxx) =  4

     File outdir/pwscf.md deleted, as requested

     gamma-point specific algorithms are used

     R & G space division:  proc/nbgrp/npool/nimage =      42
     Subspace diagonalization in iterative solution of the eigenvalue problem:
     one sub-group per band group will be used
     custom distributed-memory algorithm (size of sub-group:  2*  2 procs)


     Parallelization info
     --------------------
     sticks:   dense  smooth     PW     G-vecs:    dense   smooth      PW
     Min         262     262     63                23470    23470    2920
     Max         265     265     66                23484    23484    2942
     Sum       11057   11057   2753               986005   986005  123175

     Using Slab Decomposition



     bravais-lattice index     =            0
     lattice parameter (alat)  =      17.6500  a.u.
     unit-cell volume          =    5552.8853 (a.u.)^3
     number of atoms/cell      =           23
     number of atomic types    =            5
     number of electrons       =       277.00
     number of Kohn-Sham states=          167
     kinetic-energy cutoff     =     120.0000  Ry
     charge density cutoff     =     480.0000  Ry
     scf convergence threshold =      1.0E-03
     mixing beta               =       0.7000
     number of iterations used =            8  TF        mixing
     energy convergence thresh.=      0.0E+00
     force convergence thresh. =      0.0E+00
     Exchange-correlation=  SLA  PW   PBX  PBC
                           (   1   4   3   4   0   0   0)
     nstep                     =           20


     celldm(1)=  17.650041  celldm(2)=   0.000000  celldm(3)=   0.000000
     celldm(4)=   0.000000  celldm(5)=   0.000000  celldm(6)=   0.000000

     crystal axes: (cart. coord. in units of alat)
               a(1) = (   1.000000   0.000000   0.000000 )  
               a(2) = (   0.000000   0.929336   0.000000 )  
               a(3) = (   0.000000   0.000000   1.086698 )  

     reciprocal axes: (cart. coord. in units 2 pi/alat)
               b(1) = (  1.000000  0.000000  0.000000 )  
               b(2) = (  0.000000  1.076037  0.000000 )  
               b(3) = (  0.000000  0.000000  0.920219 )  


     PseudoPot. # 1 for Hf read from file:
     q-e/pseudo/hf_pbe_v1.uspp.F.UPF
     MD5 check sum: 8ee9378dfe14276e333edf04c5e4aa26
     Pseudo is Ultrasoft + core correction, Zval = 12.0
     Generated by new atomic code, or converted to UPF format
     Using radial grid of  921 points,  8 beta functions with: 
                l(1) =   0
                l(2) =   0
                l(3) =   0
                l(4) =   1
                l(5) =   1
                l(6) =   2
                l(7) =   2
                l(8) =   3
     Q(r) pseudized with  6 coefficients,  rinner =    1.200   1.200   1.200
                                                       1.200   1.200   1.200
                                                       1.200

     PseudoPot. # 2 for Nb read from file:
     q-e/pseudo/nb_pbe_v1.uspp.F.UPF
     MD5 check sum: 573aab8a2fa660278ed4a62cd769473f
     Pseudo is Ultrasoft + core correction, Zval = 13.0
     Generated by new atomic code, or converted to UPF format
     Using radial grid of  887 points,  6 beta functions with: 
                l(1) =   0
                l(2) =   0
                l(3) =   1
                l(4) =   1
                l(5) =   2
                l(6) =   2
     Q(r) pseudized with  6 coefficients,  rinner =    1.000   1.000   1.000
                                                       1.000   1.000

     PseudoPot. # 3 for Ta read from file:
     q-e/pseudo/ta_pbe_v1.uspp.F.UPF
     MD5 check sum: f8bbe9446314a3b8ea5d9f3e3836c939
     Pseudo is Ultrasoft + core correction, Zval = 13.0
     Generated by new atomic code, or converted to UPF format
     Using radial grid of  921 points,  7 beta functions with: 
                l(1) =   0
                l(2) =   0
                l(3) =   1
                l(4) =   1
                l(5) =   2
                l(6) =   2
                l(7) =   3
     Q(r) pseudized with  6 coefficients,  rinner =    1.300   1.300   1.300
                                                       1.300   1.300   1.300
                                                       1.300

     PseudoPot. # 4 for Zr read from file:
     q-e/pseudo/zr_pbe_v1.uspp.F.UPF
     MD5 check sum: 5db81b1e868ab7776c4564c113de050b
     Pseudo is Ultrasoft + core correction, Zval = 12.0
     Generated by new atomic code, or converted to UPF format
     Using radial grid of  887 points,  6 beta functions with: 
                l(1) =   0
                l(2) =   0
                l(3) =   1
                l(4) =   1
                l(5) =   2
                l(6) =   2
     Q(r) pseudized with  6 coefficients,  rinner =    1.200   1.200   1.200
                                                       1.200   1.200

     PseudoPot. # 5 for H  read from file:
     q-e/pseudo/h_pbe_v1.4.uspp.F.UPF
     MD5 check sum: 761ae9a214b05c3daf00ab9f6b793d6f
     Pseudo is Ultrasoft, Zval =  1.0
     Generated by new atomic code, or converted to UPF format
     Using radial grid of  615 points,  2 beta functions with: 
                l(1) =   0
                l(2) =   0
     Q(r) pseudized with  8 coefficients,  rinner =    0.700

     atomic species   valence    mass     pseudopotential
        Hf            12.00   178.49000     Hf( 1.00)
        Nb            13.00    92.90637     Nb( 1.00)
        Ta            13.00   180.94788     Ta( 1.00)
        Zr            12.00    91.22400     Zr( 1.00)
        H              1.00     2.01400     H ( 1.00)

     Starting magnetic structure 
     atomic species   magnetization
        Hf           0.000
        Nb           0.000
        Ta           0.000
        Zr           0.000
        H            0.000

     No symmetry found



   Cartesian axes

     site n.     atom                  positions (alat units)
         1           Hf  tau(   1) = (   0.2858672   0.3026898   0.7070626  )
         2           Hf  tau(   2) = (   0.1341532   0.1377178   0.5415917  )
         3           Hf  tau(   3) = (   0.1344204   0.7911996   0.5447610  )
         4           Hf  tau(   4) = (   0.4375813   0.1377178   0.5415917  )
         5           Hf  tau(   5) = (   0.4373140   0.7911996   0.5447610  )
         6           Nb  tau(   6) = (   0.2858672   0.2994572   0.3764008  )
         7           Nb  tau(   7) = (   0.2858672   0.6291626   0.7103852  )
         8           Ta  tau(   8) = (   0.1294832   0.4647675   0.5429471  )
         9           Ta  tau(   9) = (   0.4422513   0.4647675   0.5429471  )
        10           Ta  tau(  10) = (   0.1399628   0.1406984   0.2204260  )
        11           Ta  tau(  11) = (   0.1394848   0.1400847   0.8666573  )
        12           Ta  tau(  12) = (   0.1396156   0.7897030   0.2190832  )
        13           Ta  tau(  13) = (   0.1400119   0.7885528   0.8657390  )
        14           Ta  tau(  14) = (   0.4317717   0.1406984   0.2204260  )
        15           Ta  tau(  15) = (   0.4322496   0.1400847   0.8666573  )
        16           Ta  tau(  16) = (   0.4321189   0.7897030   0.2190832  )
        17           Ta  tau(  17) = (   0.4317226   0.7885528   0.8657390  )
        18           Zr  tau(  18) = (   0.2858672   0.6280820   0.3776642  )
        19           Zr  tau(  19) = (   0.1331729   0.4627493   0.2141328  )
        20           Zr  tau(  20) = (   0.1328036   0.4661802   0.8725649  )
        21           Zr  tau(  21) = (   0.4385616   0.4627493   0.2141328  )
        22           Zr  tau(  22) = (   0.4389309   0.4661802   0.8725649  )
        23           H   tau(  23) = (   0.5493177   0.6501125   0.5430600  )

     number of k points=     1  Gaussian smearing, width (Ry)=  0.0220
                       cart. coord. in units 2pi/alat
        k(    1) = (   0.0000000   0.0000000   0.0000000), wk =   1.0000000

     Dense  grid:   493003 G-vectors     FFT dimensions: ( 125, 120, 135)

     Estimated max dynamical RAM per process >     133.03 MB

     Estimated total dynamical RAM >       5.46 GB

     Check: negative core charge=   -0.000002
     Generating pointlists ...
     new r_m :   0.0743 (alat units)  1.3116 (a.u.) for type    1
     new r_m :   0.1098 (alat units)  1.9374 (a.u.) for type    2
     new r_m :   0.0883 (alat units)  1.5584 (a.u.) for type    3
     new r_m :   0.1112 (alat units)  1.9625 (a.u.) for type    4
     new r_m :   0.0743 (alat units)  1.3116 (a.u.) for type    5

     Initial potential from superposition of free atoms

     starting charge     266.9726, renormalised to     277.0000

     negative rho (up, down):  9.215E-01 9.215E-01
     Starting wfcs are  287 randomized atomic wfcs

     total cpu time spent up to now is       12.6 secs

     Self-consistent Calculation

     iteration #  1     ecut=   120.00 Ry     beta= 0.70
     Davidson diagonalization with overlap
     ethr =  1.00E-02,  avg # of iterations =  2.0

     negative rho (up, down):  9.929E-01 9.925E-01

     total cpu time spent up to now is       32.6 secs

     total energy              =   -2930.75952896 Ry
     estimated scf accuracy    <     275.99752953 Ry

     total magnetization       =    -0.00 Bohr mag/cell
     absolute magnetization    =     0.09 Bohr mag/cell

     iteration #  2     ecut=   120.00 Ry     beta= 0.70
     Davidson diagonalization with overlap
     ethr =  1.00E-02,  avg # of iterations =  5.0

     negative rho (up, down):  9.662E-01 9.734E-01

     total cpu time spent up to now is       54.2 secs

     total energy              =   -2942.24022512 Ry
     estimated scf accuracy    <      29.87893352 Ry

     total magnetization       =     0.17 Bohr mag/cell
     absolute magnetization    =     0.29 Bohr mag/cell

     iteration #  3     ecut=   120.00 Ry     beta= 0.70
     Davidson diagonalization with overlap
     ethr =  1.00E-02,  avg # of iterations =  2.0

     negative rho (up, down):  1.007E+00 1.006E+00

     total cpu time spent up to now is       73.2 secs

     total energy              =   -2942.60898583 Ry
     estimated scf accuracy    <      13.17580247 Ry

     total magnetization       =     0.19 Bohr mag/cell
     absolute magnetization    =     0.40 Bohr mag/cell

     iteration #  4     ecut=   120.00 Ry     beta= 0.70
     Davidson diagonalization with overlap
     ethr =  4.76E-03,  avg # of iterations =  4.5

     negative rho (up, down):  1.014E+00 1.006E+00

     total cpu time spent up to now is       92.0 secs

     total energy              =   -2942.93599513 Ry
     estimated scf accuracy    <       2.92107439 Ry

     total magnetization       =     0.29 Bohr mag/cell
     absolute magnetization    =     0.66 Bohr mag/cell

     iteration #  5     ecut=   120.00 Ry     beta= 0.70
     Davidson diagonalization with overlap
     ethr =  1.05E-03,  avg # of iterations =  7.0

     negative rho (up, down):  9.859E-01 9.819E-01

     total cpu time spent up to now is      115.4 secs

     total energy              =   -2943.06889294 Ry
     estimated scf accuracy    <       1.34317267 Ry

     total magnetization       =     0.20 Bohr mag/cell
     absolute magnetization    =     0.35 Bohr mag/cell

     iteration #  6     ecut=   120.00 Ry     beta= 0.70
     Davidson diagonalization with overlap
     ethr =  4.85E-04,  avg # of iterations =  2.0

     negative rho (up, down):  9.746E-01 9.718E-01

     total cpu time spent up to now is      133.0 secs

     total energy              =   -2943.08790273 Ry
     estimated scf accuracy    <       1.14781799 Ry

     total magnetization       =     0.13 Bohr mag/cell
     absolute magnetization    =     0.25 Bohr mag/cell

     iteration #  7     ecut=   120.00 Ry     beta= 0.70
     Davidson diagonalization with overlap
     ethr =  4.14E-04,  avg # of iterations =  2.0

     negative rho (up, down):  9.461E-01 9.449E-01

     total cpu time spent up to now is      166.4 secs

     total energy              =   -2943.04906984 Ry
     estimated scf accuracy    <       0.34250945 Ry

     total magnetization       =     0.15 Bohr mag/cell
     absolute magnetization    =     0.26 Bohr mag/cell

     iteration #  8     ecut=   120.00 Ry     beta= 0.70
     Davidson diagonalization with overlap
     ethr =  1.24E-04,  avg # of iterations =  7.0

     negative rho (up, down):  9.202E-01 9.207E-01

     total cpu time spent up to now is      205.6 secs

     total energy              =   -2943.04280587 Ry
     estimated scf accuracy    <       0.22957815 Ry

     total magnetization       =     0.15 Bohr mag/cell
     absolute magnetization    =     0.23 Bohr mag/cell

     iteration #  9     ecut=   120.00 Ry     beta= 0.70
     Davidson diagonalization with overlap
     ethr =  8.29E-05,  avg # of iterations =  2.5

     negative rho (up, down):  9.085E-01 9.089E-01

     total cpu time spent up to now is      228.6 secs

     total energy              =   -2943.04089026 Ry
     estimated scf accuracy    <       0.06626292 Ry

     total magnetization       =     0.11 Bohr mag/cell
     absolute magnetization    =     0.18 Bohr mag/cell

     iteration # 10     ecut=   120.00 Ry     beta= 0.70
     Davidson diagonalization with overlap
     ethr =  2.39E-05,  avg # of iterations = 13.0

     negative rho (up, down):  9.080E-01 9.080E-01

     total cpu time spent up to now is      250.4 secs

     total energy              =   -2943.04428062 Ry
     estimated scf accuracy    <       0.03690977 Ry

     total magnetization       =     0.10 Bohr mag/cell
     absolute magnetization    =     0.16 Bohr mag/cell

     iteration # 11     ecut=   120.00 Ry     beta= 0.70
     Davidson diagonalization with overlap
     ethr =  1.33E-05,  avg # of iterations =  3.5

     negative rho (up, down):  9.089E-01 9.089E-01

     total cpu time spent up to now is      268.4 secs

     total energy              =   -2943.04833370 Ry
     estimated scf accuracy    <       0.00997905 Ry

     total magnetization       =     0.09 Bohr mag/cell
     absolute magnetization    =     0.14 Bohr mag/cell

     iteration # 12     ecut=   120.00 Ry     beta= 0.70
     Davidson diagonalization with overlap
     c_bands:  1 eigenvalues not converged
     ethr =  3.60E-06,  avg # of iterations = 12.5

     negative rho (up, down):  9.091E-01 9.091E-01

     total cpu time spent up to now is      289.8 secs

     total energy              =   -2943.05117637 Ry
     estimated scf accuracy    <       0.00158371 Ry

     total magnetization       =     0.09 Bohr mag/cell
     absolute magnetization    =     0.12 Bohr mag/cell

     iteration # 13     ecut=   120.00 Ry     beta= 0.70
     Davidson diagonalization with overlap
     c_bands:  1 eigenvalues not converged
     ethr =  5.72E-07,  avg # of iterations = 12.0

     negative rho (up, down):  9.088E-01 9.088E-01

     Magnetic moment per site  (integrated on atomic sphere of radius R)
     atom   1 (R=0.074)  charge=  5.9339  magn=  0.0001
     atom   2 (R=0.074)  charge=  5.8660  magn=  0.0001
     atom   3 (R=0.074)  charge=  5.8649  magn= -0.0000
     atom   4 (R=0.074)  charge=  5.8650  magn= -0.0000
     atom   5 (R=0.074)  charge=  5.8807  magn=  0.0001
     atom   6 (R=0.110)  charge= 10.3457  magn=  0.0000
     atom   7 (R=0.110)  charge= 10.3485  magn=  0.0007
     atom   8 (R=0.088)  charge=  8.1223  magn= -0.0000
     atom   9 (R=0.088)  charge=  8.1194  magn=  0.0001
     atom  10 (R=0.088)  charge=  8.1026  magn=  0.0014
     atom  11 (R=0.088)  charge=  8.0985  magn=  0.0010
     atom  12 (R=0.088)  charge=  8.1012  magn=  0.0018
     atom  13 (R=0.088)  charge=  8.1018  magn=  0.0005
     atom  14 (R=0.088)  charge=  8.1029  magn=  0.0011
     atom  15 (R=0.088)  charge=  8.0974  magn=  0.0006
     atom  16 (R=0.088)  charge=  8.1056  magn=  0.0032
     atom  17 (R=0.088)  charge=  8.1033  magn=  0.0012
     atom  18 (R=0.111)  charge=  9.4538  magn= -0.0002
     atom  19 (R=0.111)  charge=  9.0024  magn=  0.0052
     atom  20 (R=0.111)  charge=  8.9941  magn= -0.0016
     atom  21 (R=0.111)  charge=  9.0072  magn=  0.0055
     atom  22 (R=0.111)  charge=  8.9959  magn= -0.0016
     atom  23 (R=0.074)  charge=  0.9756  magn=  0.0001

     total cpu time spent up to now is      325.9 secs

     End of self-consistent calculation

 ------ SPIN UP ------------


          k = 0.0000 0.0000 0.0000 ( 61588 PWs)   bands (ev):

   -60.7847 -60.7829 -60.7408 -60.7370 -60.7104 -60.6918 -60.6674 -60.6483
   -60.5692 -60.4927 -54.3621 -54.2837 -54.2272 -53.9357 -52.7036 -46.2781
   -46.2580 -41.6591 -41.6320 -41.5589 -41.5490 -39.8203 -27.7885 -27.7773
   -27.7045 -27.6885 -27.6059 -27.5949 -27.4764 -27.4644 -27.4340 -27.3363
   -27.3208 -27.2717 -27.2664 -27.2476 -27.2254 -27.1916 -27.1729 -27.1565
   -27.1318 -27.1116 -27.0707 -27.0390 -26.9635 -26.9621 -26.9489 -26.9423
   -26.8943 -26.8868 -26.8639 -26.8507 -24.1318 -23.8943 -23.6203 -23.5098
   -23.2892 -23.1571 -23.0908 -22.9800 -22.9009 -22.7765 -22.7276 -22.5161
   -22.5039 -22.4522 -22.3838 -22.3071 -22.2637 -22.1867 -21.7524 -21.6952
   -21.6318 -20.2196 -19.9346 -19.8681 -19.8616 -19.6223 -19.6100 -19.6085
   -19.5954 -19.5774 -19.5407 -19.3961 -19.3637 -18.1661 -17.9724 -17.8268
     1.1988   2.2749   2.9273   3.1347   3.3400   3.4392   3.5304   3.5935
     3.6812   3.8894   3.9087   4.0932   4.1487   4.4882   4.5493   4.6969
     4.7501   4.8799   5.0267   5.1053   5.1812   5.2607   5.2820   5.3657
     5.4206   5.5464   5.5751   5.7222   5.7262   5.7370   5.7601   5.8687
     5.9789   6.0593   6.1742   6.1924   6.2397   6.2855   6.3626   6.4287
     6.4462   6.5919   6.6462   6.7136   6.7987   6.9830   7.0130   7.0884
     7.0997   7.1562   7.2371   7.2696   7.3184   7.4356   7.5452   7.5534
     7.6127   7.7685   7.8854   7.9032   8.0797   8.0813   8.1093   8.2079
     8.2391   8.2503   8.3526   8.3732   8.4047   8.5448   8.6534   8.6811
     8.8620   8.8980   9.0102   9.0812   9.1434   9.2145   9.2706

 ------ SPIN DOWN ----------


          k = 0.0000 0.0000 0.0000 ( 61588 PWs)   bands (ev):

   -60.7829 -60.7820 -60.7389 -60.7362 -60.7086 -60.6910 -60.6655 -60.6475
   -60.5690 -60.4924 -54.3621 -54.2838 -54.2272 -53.9355 -52.7032 -46.2774
   -46.2577 -41.6542 -41.6336 -41.5541 -41.5504 -39.8203 -27.7861 -27.7758
   -27.7019 -27.6871 -27.6045 -27.5927 -27.4737 -27.4631 -27.4336 -27.3349
   -27.3195 -27.2697 -27.2652 -27.2464 -27.2241 -27.1908 -27.1707 -27.1558
   -27.1312 -27.1111 -27.0701 -27.0388 -26.9615 -26.9604 -26.9468 -26.9405
   -26.8916 -26.8853 -26.8612 -26.8499 -24.1317 -23.8943 -23.6199 -23.5098
   -23.2890 -23.1571 -23.0907 -22.9795 -22.9009 -22.7764 -22.7274 -22.5156
   -22.5038 -22.4519 -22.3833 -22.3068 -22.2632 -22.1863 -21.7521 -21.6948
   -21.6312 -20.2146 -19.9383 -19.8623 -19.8567 -19.6180 -19.6090 -19.6078
   -19.5943 -19.5783 -19.5416 -19.3894 -19.3661 -18.1663 -17.9721 -17.8261
     1.2000   2.2761   2.9304   3.1357   3.3417   3.4421   3.5315   3.5944
     3.6823   3.8906   3.9121   4.0946   4.1510   4.4893   4.5508   4.6994
     4.7517   4.8817   5.0291   5.1074   5.1834   5.2624   5.2840   5.3687
     5.4231   5.5480   5.5766   5.7235   5.7285   5.7375   5.7616   5.8704
     5.9803   6.0613   6.1765   6.1939   6.2414   6.2870   6.3644   6.4323
     6.4476   6.5930   6.6480   6.7158   6.8008   6.9863   7.0190   7.0929
     7.1091   7.1590   7.2454   7.2747   7.3208   7.4437   7.5493   7.5562
     7.6163   7.7721   7.8873   7.9052   8.0830   8.0862   8.1118   8.2137
     8.2433   8.2518   8.3578   8.3758   8.4072   8.5475   8.6557   8.6836
     8.8643   8.9036   9.0141   9.0835   9.1454   9.2156   9.2754

     the Fermi energy is     7.2391 ev

!    total energy              =   -2943.05220992 Ry
     estimated scf accuracy    <       0.00066523 Ry
     smearing contrib. (-TS)   =      -0.10276139 Ry
     internal energy E=F+TS    =   -2942.94944853 Ry

     total magnetization       =     0.08 Bohr mag/cell
     absolute magnetization    =     0.11 Bohr mag/cell

     convergence has been achieved in  13 iterations

     negative rho (up, down):  9.088E-01 9.088E-01

     Forces acting on atoms (cartesian axes, Ry/au):

     atom    1 type  1   force =    -0.00508269   -0.02423710    0.00322389
     atom    2 type  1   force =    -0.12491947   -0.01514951   -0.00605041
     atom    3 type  1   force =    -0.11918787    0.01340452    0.00235171
     atom    4 type  1   force =     0.12762410   -0.00157290   -0.00591270
     atom    5 type  1   force =     0.05308027    0.06952697    0.00722790
     atom    6 type  2   force =    -0.00218508   -0.01424112    0.01545590
     atom    7 type  2   force =    -0.01434883    0.00749207   -0.01091185
     atom    8 type  3   force =    -0.10562734    0.00375406   -0.00566161
     atom    9 type  3   force =     0.12856513    0.04322718   -0.00756757
     atom   10 type  3   force =    -0.02354140   -0.02763995   -0.05871872
     atom   11 type  3   force =    -0.02220433   -0.03395711    0.05737687
     atom   12 type  3   force =    -0.01171372    0.03523619   -0.05650005
     atom   13 type  3   force =    -0.01465212    0.02976300    0.06311127
     atom   14 type  3   force =     0.01923553   -0.03398301   -0.06509037
     atom   15 type  3   force =     0.01960327   -0.03997413    0.06415890
     atom   16 type  3   force =     0.01595716    0.04585545   -0.05789111
     atom   17 type  3   force =     0.01576184    0.03913997    0.06383368
     atom   18 type  4   force =    -0.01209350    0.01420707   -0.00579492
     atom   19 type  4   force =    -0.12436132   -0.00722410   -0.11675851
     atom   20 type  4   force =    -0.13071115    0.00490779    0.11952374
     atom   21 type  4   force =     0.11812581   -0.00815235   -0.11893634
     atom   22 type  4   force =     0.12620760    0.00271074    0.12204787
     atom   23 type  5   force =     0.08646811   -0.10309373   -0.00251758
     The non-local contrib.  to forces
     atom    1 type  1   force =    -0.00276806   -0.00887354    0.02457420
     atom    2 type  1   force =    -0.25375045   -0.15633355    0.01425812
     atom    3 type  1   force =    -0.23069933    0.15527257   -0.02746273
     atom    4 type  1   force =     0.24461940   -0.18916871    0.01495077
     atom    5 type  1   force =     0.12372358    0.24139136   -0.02433661
     atom    6 type  2   force =     0.00653613   -0.04991836   -0.07288961
     atom    7 type  2   force =    -0.00742747    0.06664227    0.06144504
     atom    8 type  3   force =    -0.25349824    0.00737131   -0.00723437
     atom    9 type  3   force =     0.21777060    0.00012561   -0.01473261
     atom   10 type  3   force =    -0.21386295    0.00667033   -0.20748681
     atom   11 type  3   force =    -0.22060274    0.00586424    0.19899525
     atom   12 type  3   force =    -0.20362334   -0.02333509   -0.17843323
     atom   13 type  3   force =    -0.21130496   -0.00674382    0.20907548
     atom   14 type  3   force =     0.21046072    0.00312627   -0.21691462
     atom   15 type  3   force =     0.22072794    0.00532643    0.20495310
     atom   16 type  3   force =     0.21933825   -0.02586353   -0.17186939
     atom   17 type  3   force =     0.22333761   -0.01058886    0.20294976
     atom   18 type  4   force =    -0.00705920    0.05667378   -0.06861117
     atom   19 type  4   force =     0.06242904    0.00548321    0.07216979
     atom   20 type  4   force =     0.05771745   -0.01582008   -0.06737974
     atom   21 type  4   force =    -0.06413858    0.00927723    0.06543461
     atom   22 type  4   force =    -0.05779770   -0.01407641   -0.05618708
     atom   23 type  5   force =    -0.04992718    0.01601116   -0.00028642
     The ionic contribution  to forces
     atom    1 type  1   force =    -0.15905115   -4.69651337   14.07542515
     atom    2 type  1   force =   -39.72588377   -6.07826559    0.77968469
     atom    3 type  1   force =   -39.81772641    6.21047490   -0.71284143
     atom    4 type  1   force =    39.53825981   -5.97820182    0.77874840
     atom    5 type  1   force =    38.18556487    7.89739934   -0.69237617
     atom    6 type  2   force =    -0.16883259   -3.65833932  -13.97728008
     atom    7 type  2   force =    -0.61881640    3.50563163   14.30458496
     atom    8 type  3   force =   -52.23942467   -0.05945702   -0.06497761
     atom    9 type  3   force =    51.19331070   -1.41475963   -0.06581422
     atom   10 type  3   force =   -36.08253748   -2.06127564  -23.10395416
     atom   11 type  3   force =   -35.15662961   -0.81418787   22.10821359
     atom   12 type  3   force =   -35.30700327    0.83805351  -22.21027122
     atom   13 type  3   force =   -36.09790733    2.22201091   23.14027534
     atom   14 type  3   force =    35.97512911   -2.03397179  -23.17500841
     atom   15 type  3   force =    35.04988480   -0.78662086   22.17930581
     atom   16 type  3   force =    35.05598065    0.96652709  -22.50753469
     atom   17 type  3   force =    35.84319470    2.35143130   23.44114829
     atom   18 type  4   force =    -0.57710909    4.28204536  -14.20467501
     atom   19 type  4   force =   -35.94145755    0.90005062  -25.58659188
     atom   20 type  4   force =   -35.92474598   -1.01012132   25.56517148
     atom   21 type  4   force =    35.75702277    0.77666884  -25.80571720
     atom   22 type  4   force =    35.73940216   -1.13316777   25.78769238
     atom   23 type  5   force =     5.47937571   -0.22541150   -0.05320799
     The local contribution  to forces
     atom    1 type  1   force =     0.15647891    4.68182219  -14.10136409
     atom    2 type  1   force =    39.87010256    6.21763367   -0.80976640
     atom    3 type  1   force =    39.94399722   -6.35365967    0.74022152
     atom    4 type  1   force =   -39.66961378    6.16778304   -0.81110786
     atom    5 type  1   force =   -38.25922017   -8.07875271    0.71978572
     atom    6 type  2   force =     0.16416809    3.70258527   14.03643907
     atom    7 type  2   force =     0.61407338   -3.55908626  -14.37669104
     atom    8 type  3   force =    52.41212917    0.05661913    0.05277586
     atom    9 type  3   force =   -51.29632441    1.46559208    0.05650699
     atom   10 type  3   force =    36.29552017    2.02923044   23.26572835
     atom   11 type  3   force =    35.37876744    0.76483082  -22.26232714
     atom   12 type  3   force =    35.52415718   -0.77342743   22.34044417
     atom   13 type  3   force =    36.31914540   -2.18059289  -23.29705524
     atom   14 type  3   force =   -36.18369138    1.99373519   23.33979890
     atom   15 type  3   force =   -35.27241433    0.72627666  -22.33155040
     atom   16 type  3   force =   -35.27684622   -0.88957368   22.62786266
     atom   17 type  3   force =   -36.07203801   -2.29751622  -23.58918054
     atom   18 type  4   force =     0.57787387   -4.33397046   14.24367222
     atom   19 type  4   force =    35.77100518   -0.91747884   25.40512645
     atom   20 type  4   force =    35.74034601    1.03341431  -25.38185003
     atom   21 type  4   force =   -35.58740180   -0.79490714   25.62981711
     atom   22 type  4   force =   -35.55850247    1.15541351  -25.61187898
     atom   23 type  5   force =    -5.34289090    0.10559520    0.04932781
     The core correction contribution to forces
     atom    1 type  1   force =    -0.00050795    0.00190530   -0.00175810
     atom    2 type  1   force =    -0.01128421   -0.00046593    0.00094881
     atom    3 type  1   force =    -0.00956216    0.00339835   -0.00156039
     atom    4 type  1   force =     0.01127467   -0.00504374    0.00088936
     atom    5 type  1   force =     0.00050626    0.01096089   -0.00117763
     atom    6 type  2   force =    -0.00034319    0.00248068    0.00308634
     atom    7 type  2   force =     0.00032779   -0.00339923   -0.00245162
     atom    8 type  3   force =    -0.03021179   -0.00007358   -0.00040115
     atom    9 type  3   force =     0.02171151   -0.00696339   -0.00157353
     atom   10 type  3   force =    -0.02290428    0.00903641   -0.01727053
     atom   11 type  3   force =    -0.02486264    0.00903906    0.01805380
     atom   12 type  3   force =    -0.02225382   -0.01062200   -0.01513166
     atom   13 type  3   force =    -0.02244015   -0.00966240    0.01652688
     atom   14 type  3   force =     0.02174356    0.00945711   -0.01771063
     atom   15 type  3   force =     0.02335819    0.01007086    0.01806220
     atom   16 type  3   force =     0.02393160   -0.01061406   -0.01365221
     atom   17 type  3   force =     0.02334334   -0.00936235    0.01500683
     atom   18 type  4   force =     0.00048871   -0.00328587    0.00331423
     atom   19 type  4   force =    -0.00979634    0.00019809   -0.00955855
     atom   20 type  4   force =    -0.00972520    0.00049719    0.00943827
     atom   21 type  4   force =     0.00997077    0.00017013   -0.00900200
     atom   22 type  4   force =     0.00976426    0.00048938    0.00861611
     atom   23 type  5   force =     0.00000000    0.00000000    0.00000000
     The Hubbard contrib.    to forces
     atom    1 type  1   force =     0.00000000    0.00000000    0.00000000
     atom    2 type  1   force =     0.00000000    0.00000000    0.00000000
     atom    3 type  1   force =     0.00000000    0.00000000    0.00000000
     atom    4 type  1   force =     0.00000000    0.00000000    0.00000000
     atom    5 type  1   force =     0.00000000    0.00000000    0.00000000
     atom    6 type  2   force =     0.00000000    0.00000000    0.00000000
     atom    7 type  2   force =     0.00000000    0.00000000    0.00000000
     atom    8 type  3   force =     0.00000000    0.00000000    0.00000000
     atom    9 type  3   force =     0.00000000    0.00000000    0.00000000
     atom   10 type  3   force =     0.00000000    0.00000000    0.00000000
     atom   11 type  3   force =     0.00000000    0.00000000    0.00000000
     atom   12 type  3   force =     0.00000000    0.00000000    0.00000000
     atom   13 type  3   force =     0.00000000    0.00000000    0.00000000
     atom   14 type  3   force =     0.00000000    0.00000000    0.00000000
     atom   15 type  3   force =     0.00000000    0.00000000    0.00000000
     atom   16 type  3   force =     0.00000000    0.00000000    0.00000000
     atom   17 type  3   force =     0.00000000    0.00000000    0.00000000
     atom   18 type  4   force =     0.00000000    0.00000000    0.00000000
     atom   19 type  4   force =     0.00000000    0.00000000    0.00000000
     atom   20 type  4   force =     0.00000000    0.00000000    0.00000000
     atom   21 type  4   force =     0.00000000    0.00000000    0.00000000
     atom   22 type  4   force =     0.00000000    0.00000000    0.00000000
     atom   23 type  5   force =     0.00000000    0.00000000    0.00000000
     The SCF correction term to forces
     atom    1 type  1   force =     0.00105531   -0.00264293    0.00553885
     atom    2 type  1   force =    -0.00381385    0.00221663    0.00801648
     atom    3 type  1   force =    -0.00490745   -0.00214688    0.00318687
     atom    4 type  1   force =     0.00337375    0.00299307    0.00979875
     atom    5 type  1   force =     0.00279547   -0.00153716    0.00452472
     atom    6 type  2   force =    -0.00342378   -0.01111464    0.02529229
     atom    7 type  2   force =    -0.00221639   -0.00236159    0.00139293
     atom    8 type  3   force =     0.00566794   -0.00077102    0.01336778
     atom    9 type  3   force =    -0.00761352   -0.00083274    0.01723792
     atom   10 type  3   force =     0.00053288   -0.01136673    0.00345655
     atom   11 type  3   force =     0.00141296    0.00043139   -0.00636651
     atom   12 type  3   force =    -0.00270072    0.00450194    0.00608401
     atom   13 type  3   force =    -0.00185533    0.00468595   -0.00651907
     atom   14 type  3   force =    -0.00411673   -0.00639504    0.00393650
     atom   15 type  3   force =    -0.00166359    0.00490752   -0.00741968
     atom   16 type  3   force =    -0.00615737    0.00531439    0.00649464
     atom   17 type  3   force =    -0.00178606    0.00511086   -0.00689854
     atom   18 type  4   force =    -0.00599805    0.01267902    0.01969693
     atom   19 type  4   force =    -0.00625190    0.00445757    0.00128780
     atom   20 type  4   force =     0.00598630   -0.00312756   -0.00666413
     atom   21 type  4   force =     0.00296239    0.00057335   -0.00027674
     atom   22 type  4   force =    -0.00636890   -0.00601322   -0.00700244
     atom   23 type  5   force =     0.00020022    0.00064616    0.00084114

     Total force =     0.515965     Total SCF correction =     0.056494
     SCF correction compared to forces is large: reduce conv_thr to get better values


     Computing stress (Cartesian axis) and pressure


     negative rho (up, down):  9.088E-01 9.088E-01
          total   stress  (Ry/bohr**3)                   (kbar)     P=       88.23
   0.00069097  -0.00003142   0.00000046          101.64       -4.62        0.07
  -0.00003142   0.00069853  -0.00001356           -4.62      102.76       -1.99
   0.00000046  -0.00001356   0.00040978            0.07       -1.99       60.28


     Molecular Dynamics Calculation

     Starting temperature  =   300.00 K

     temperature is set once at start

     mass Hf               =   178.49
     mass Nb               =    92.91
     mass Ta               =   180.95
     mass Zr               =    91.22
     mass H                =     2.01
     Time step             =     4.20 a.u.,  0.2032 femto-seconds

     Entering Dynamics:    iteration =     1
                           time      =   0.0002 pico-seconds


ATOMIC_POSITIONS (angstrom)
Hf            2.6700626623        2.8272311929        6.6039643111
Hf            1.2530499474        1.2863926058        5.0584660525
Hf            1.2555463303        7.3899135384        5.0880678349
Hf            4.0870757464        1.2863929953        5.0584660565
Hf            4.0845773894        7.3899151485        5.0880679748
Nb            2.6700626877        2.7970386796        3.5155840686
Nb            2.6700620173        5.8764879483        6.6349973418
Ta            1.2094329179        4.3410368169        5.0711256721
Ta            4.1306933475        4.3410379339        5.0711256181
Ta            1.3073148690        1.3142306662        2.0587774484
Ta            1.3028505370        1.3084990340        8.0945808262
Ta            1.3040721417        7.3759359803        2.0462355808
Ta            1.3077732349        7.3651926497        8.0860040068
Ta            4.0328106254        1.3142304867        2.0587772680
Ta            4.0372750057        1.3084988638        8.0945810181
Ta            4.0360535946        7.3759362808        2.0462355415
Ta            4.0323524128        7.3651929151        8.0860040273
Zr            2.6700621293        5.8663954999        3.5273836051
Zr            1.2438904892        4.3221864180        1.9999934458
Zr            1.2404409264        4.3542324190        8.1497622587
Zr            4.0962347771        4.3221863659        1.9999933236
Zr            4.0996844370        4.3542322957        8.1497624004
H             5.0264944335        5.8910490608        5.0721733936


     kinetic energy (Ekin) =           8.09785715 Ry
     temperature           =       38743.95520174 K 
     Ekin + Etot (const)   =       -2934.95435276 Ry
     Ions kinetic stress =          143.02 (kbar)
                                    107.27         185.79           0.00
                                    185.79         321.78           0.00
                                      0.00           0.00           0.00



     Linear momentum :   -0.0000000000    0.0000000000    0.0000000000

     File outdir/pwscf.msd.dat deleted, as requested

     Writing config-only to output data dir outdir/pwscf.save/
     NEW-OLD atomic charge density approx. for the potential

     Check: negative core charge=   -0.000002

     negative rho (up, down):  9.088E-01 9.088E-01
     Generating pointlists ...
     new r_m :   0.0791 (alat units)  1.3955 (a.u.) for type    3

     total cpu time spent up to now is      383.3 secs

     Self-consistent Calculation

     iteration #  1     ecut=   120.00 Ry     beta= 0.70
     Davidson diagonalization with overlap
     c_bands:  1 eigenvalues not converged
     ethr =  1.00E-06,  avg # of iterations = 14.5

     negative rho (up, down):  9.090E-01 9.090E-01

     total cpu time spent up to now is      420.2 secs

     total energy              =   -2943.04993708 Ry
     estimated scf accuracy    <       0.10288654 Ry

     total magnetization       =     0.08 Bohr mag/cell
     absolute magnetization    =     0.10 Bohr mag/cell

     iteration #  2     ecut=   120.00 Ry     beta= 0.70
     Davidson diagonalization with overlap
     ethr =  3.71E-05,  avg # of iterations =  2.0

     negative rho (up, down):  9.089E-01 9.089E-01

     total cpu time spent up to now is      437.4 secs

     total energy              =   -2943.05726997 Ry
     estimated scf accuracy    <       0.04983371 Ry

     total magnetization       =     0.08 Bohr mag/cell
     absolute magnetization    =     0.09 Bohr mag/cell

     iteration #  3     ecut=   120.00 Ry     beta= 0.70
     Davidson diagonalization with overlap
     ethr =  1.80E-05,  avg # of iterations =  1.0

     negative rho (up, down):  9.089E-01 9.089E-01

     total cpu time spent up to now is      453.8 secs

     total energy              =   -2943.05991052 Ry
     estimated scf accuracy    <       0.00327514 Ry

     total magnetization       =     0.07 Bohr mag/cell
     absolute magnetization    =     0.09 Bohr mag/cell

     iteration #  4     ecut=   120.00 Ry     beta= 0.70
     Davidson diagonalization with overlap
     ethr =  1.18E-06,  avg # of iterations =  2.0

     negative rho (up, down):  9.089E-01 9.089E-01

     Magnetic moment per site  (integrated on atomic sphere of radius R)
     atom   1 (R=0.074)  charge=  5.9343  magn=  0.0000
     atom   2 (R=0.074)  charge=  5.8654  magn=  0.0001
     atom   3 (R=0.074)  charge=  5.8646  magn=  0.0001
     atom   4 (R=0.074)  charge=  5.8650  magn=  0.0000
     atom   5 (R=0.074)  charge=  5.8765  magn=  0.0001
     atom   6 (R=0.110)  charge= 10.3502  magn= -0.0000
     atom   7 (R=0.110)  charge= 10.3482  magn=  0.0004
     atom   8 (R=0.079)  charge=  7.1092  magn=  0.0000
     atom   9 (R=0.079)  charge=  7.1174  magn=  0.0001
     atom  10 (R=0.079)  charge=  7.0934  magn=  0.0009
     atom  11 (R=0.079)  charge=  7.0929  magn=  0.0007
     atom  12 (R=0.079)  charge=  7.0956  magn=  0.0013
     atom  13 (R=0.079)  charge=  7.0933  magn=  0.0004
     atom  14 (R=0.079)  charge=  7.0933  magn=  0.0008
     atom  15 (R=0.079)  charge=  7.0935  magn=  0.0005
     atom  16 (R=0.079)  charge=  7.0952  magn=  0.0020
     atom  17 (R=0.079)  charge=  7.0926  magn=  0.0007
     atom  18 (R=0.111)  charge=  9.4556  magn= -0.0001
     atom  19 (R=0.111)  charge=  8.9899  magn=  0.0037
     atom  20 (R=0.111)  charge=  8.9951  magn= -0.0007
     atom  21 (R=0.111)  charge=  8.9924  magn=  0.0041
     atom  22 (R=0.111)  charge=  8.9982  magn= -0.0007
     atom  23 (R=0.074)  charge=  1.0020  magn=  0.0001

     total cpu time spent up to now is      485.8 secs

     End of self-consistent calculation

 ------ SPIN UP ------------


          k = 0.0000 0.0000 0.0000 ( 61588 PWs)   bands (ev):

   -60.7634 -60.7599 -60.7172 -60.7151 -60.6910 -60.6780 -60.6455 -60.6341
   -60.5480 -60.3807 -54.3391 -54.2410 -54.2089 -54.0486 -52.6883 -46.2653
   -46.2596 -41.6245 -41.6225 -41.5411 -41.5219 -39.8265 -27.7699 -27.7605
   -27.6849 -27.6722 -27.5821 -27.5713 -27.4568 -27.4472 -27.3953 -27.3152
   -27.2974 -27.2488 -27.2441 -27.2284 -27.2099 -27.1747 -27.1504 -27.1385
   -27.1079 -27.0426 -26.9976 -26.9717 -26.9408 -26.9397 -26.9320 -26.9219
   -26.8732 -26.8709 -26.8435 -26.8363 -24.1221 -23.8910 -23.6172 -23.5039
   -23.2707 -23.1348 -23.0862 -22.9928 -22.8859 -22.7806 -22.7611 -22.5291
   -22.5069 -22.4494 -22.3729 -22.3161 -22.2551 -22.1979 -21.7396 -21.6787
   -21.6192 -20.1874 -19.9268 -19.8314 -19.8301 -19.6020 -19.5939 -19.5898
   -19.5773 -19.5640 -19.5307 -19.3570 -19.3546 -18.1706 -17.9741 -17.8263
     1.0343   2.1163   2.9420   3.1493   3.3503   3.4610   3.5433   3.6191
     3.6944   3.8952   3.9229   4.1248   4.1748   4.5021   4.5640   4.7088
     4.7656   4.8935   5.0383   5.1192   5.1984   5.2729   5.2963   5.3813
     5.4236   5.5571   5.5854   5.7343   5.7422   5.7551   5.7746   5.8863
     6.0210   6.0746   6.1973   6.2176   6.2588   6.3048   6.3730   6.4248
     6.4547   6.6054   6.6568   6.7269   6.8114   6.9998   7.0236   7.1030
     7.1131   7.1682   7.2511   7.2822   7.3308   7.4520   7.5532   7.5680
     7.6297   7.8017   7.9000   7.9136   8.0807   8.0995   8.1242   8.2206
     8.2539   8.2662   8.3671   8.3913   8.4424   8.5579   8.6689   8.6865
     8.8754   8.9084   9.0225   9.0921   9.1317   9.2292   9.2896

 ------ SPIN DOWN ----------


          k = 0.0000 0.0000 0.0000 ( 61588 PWs)   bands (ev):

   -60.7617 -60.7591 -60.7155 -60.7143 -60.6893 -60.6771 -60.6436 -60.6332
   -60.5480 -60.3806 -54.3390 -54.2410 -54.2088 -54.0484 -52.6882 -46.2649
   -46.2596 -41.6252 -41.6190 -41.5418 -41.5183 -39.8265 -27.7677 -27.7592
   -27.6824 -27.6709 -27.5807 -27.5692 -27.4547 -27.4455 -27.3951 -27.3139
   -27.2963 -27.2472 -27.2428 -27.2273 -27.2085 -27.1740 -27.1484 -27.1376
   -27.1076 -27.0423 -26.9972 -26.9715 -26.9391 -26.9378 -26.9303 -26.9201
   -26.8707 -26.8693 -26.8410 -26.8354 -24.1219 -23.8909 -23.6169 -23.5037
   -23.2706 -23.1346 -23.0859 -22.9925 -22.8857 -22.7805 -22.7609 -22.5290
   -22.5067 -22.4494 -22.3726 -22.3158 -22.2548 -22.1977 -21.7395 -21.6786
   -21.6191 -20.1838 -19.9290 -19.8284 -19.8255 -19.6022 -19.5943 -19.5865
   -19.5764 -19.5618 -19.5309 -19.3563 -19.3515 -18.1707 -17.9739 -17.8259
     1.0350   2.1176   2.9446   3.1501   3.3515   3.4636   3.5443   3.6198
     3.6951   3.8960   3.9258   4.1262   4.1763   4.5028   4.5652   4.7109
     4.7670   4.8950   5.0403   5.1208   5.2001   5.2746   5.2979   5.3840
     5.4257   5.5581   5.5866   5.7350   5.7436   5.7566   5.7760   5.8877
     6.0225   6.0765   6.1987   6.2193   6.2603   6.3061   6.3744   6.4269
     6.4572   6.6065   6.6583   6.7288   6.8131   7.0025   7.0288   7.1092
     7.1191   7.1707   7.2583   7.2869   7.3328   7.4589   7.5568   7.5714
     7.6328   7.8046   7.9018   7.9154   8.0835   8.1038   8.1264   8.2254
     8.2572   8.2680   8.3716   8.3937   8.4446   8.5603   8.6707   8.6889
     8.8772   8.9136   9.0256   9.0938   9.1331   9.2301   9.2899

     the Fermi energy is     7.2522 ev

!    total energy              =   -2943.05971959 Ry
     estimated scf accuracy    <       0.00068036 Ry
     smearing contrib. (-TS)   =      -0.10261152 Ry
     internal energy E=F+TS    =   -2942.95710807 Ry

     total magnetization       =     0.07 Bohr mag/cell
     absolute magnetization    =     0.09 Bohr mag/cell

     convergence has been achieved in   4 iterations

     negative rho (up, down):  9.089E-01 9.089E-01

     Forces acting on atoms (cartesian axes, Ry/au):

     atom    1 type  1   force =    -0.00441096   -0.02898574    0.00905886
     atom    2 type  1   force =    -0.12333152   -0.01784391   -0.00012021
     atom    3 type  1   force =    -0.11911233    0.01522313    0.00422970
     atom    4 type  1   force =     0.13441447   -0.00511332    0.00124310
     atom    5 type  1   force =     0.07703530    0.03665268    0.01086057
     atom    6 type  2   force =    -0.00195014   -0.01812074    0.01393148
     atom    7 type  2   force =    -0.01456081    0.00736465   -0.01203026
     atom    8 type  3   force =    -0.10452434    0.00358946   -0.00237345
     atom    9 type  3   force =     0.10136194    0.00880131   -0.00218244
     atom   10 type  3   force =    -0.02375248   -0.03207565   -0.06047345
     atom   11 type  3   force =    -0.02170219   -0.03379965    0.05376670
     atom   12 type  3   force =    -0.01038505    0.03688185   -0.05741754
     atom   13 type  3   force =    -0.01483566    0.03095483    0.05966852
     atom   14 type  3   force =     0.01767310   -0.03658876   -0.06677249
     atom   15 type  3   force =     0.01846895   -0.03884928    0.05982653
     atom   16 type  3   force =     0.01389763    0.04827522   -0.05857204
     atom   17 type  3   force =     0.01676178    0.04161182    0.06031457
     atom   18 type  4   force =    -0.01338832    0.02118539   -0.00285571
     atom   19 type  4   force =    -0.12692465   -0.00500220   -0.11782783
     atom   20 type  4   force =    -0.12833070    0.00371232    0.11503973
     atom   21 type  4   force =     0.12055206   -0.00901932   -0.11951964
     atom   22 type  4   force =     0.12508854   -0.00044519    0.11650014
     atom   23 type  5   force =     0.08195540   -0.02840892   -0.00429485
     The non-local contrib.  to forces
     atom    1 type  1   force =    -0.00095613   -0.00867561    0.02574796
     atom    2 type  1   force =    -0.25229642   -0.15704852    0.01753985
     atom    3 type  1   force =    -0.23432529    0.15356341   -0.02555931
     atom    4 type  1   force =     0.24803449   -0.19102245    0.01934527
     atom    5 type  1   force =     0.14817209    0.21690070   -0.02169883
     atom    6 type  2   force =     0.00666436   -0.04852130   -0.07262702
     atom    7 type  2   force =    -0.00493044    0.06711147    0.06434620
     atom    8 type  3   force =    -0.25143733    0.00619069   -0.00303327
     atom    9 type  3   force =     0.18334915   -0.02544387   -0.00801718
     atom   10 type  3   force =    -0.21363084    0.00333957   -0.20773057
     atom   11 type  3   force =    -0.21977727    0.00539301    0.19801466
     atom   12 type  3   force =    -0.19983351   -0.02222784   -0.17757492
     atom   13 type  3   force =    -0.20782680   -0.00559048    0.20662126
     atom   14 type  3   force =     0.20706082    0.00036640   -0.21617622
     atom   15 type  3   force =     0.21668797    0.00499343    0.20154617
     atom   16 type  3   force =     0.21419414   -0.02335593   -0.17060980
     atom   17 type  3   force =     0.21906240   -0.00794771    0.20011251
     atom   18 type  4   force =    -0.00688121    0.06044659   -0.06503470
     atom   19 type  4   force =     0.06042689    0.00760893    0.07386782
     atom   20 type  4   force =     0.05817448   -0.01643201   -0.06985325
     atom   21 type  4   force =    -0.06421448    0.01099750    0.06663773
     atom   22 type  4   force =    -0.05847909   -0.01494231   -0.05769179
     atom   23 type  5   force =    -0.04766091   -0.00391300   -0.00073829
     The ionic contribution  to forces
     atom    1 type  1   force =    -0.17655758   -4.72541973   14.09013685
     atom    2 type  1   force =   -39.73224755   -6.09126031    0.77968447
     atom    3 type  1   force =   -39.83126937    6.22486237   -0.71282786
     atom    4 type  1   force =    39.55277219   -6.03122858    0.77879944
     atom    5 type  1   force =    38.51579259    7.84354205   -0.69552260
     atom    6 type  2   force =    -0.18700940   -3.68920966  -13.99284871
     atom    7 type  2   force =    -0.66470310    3.55198751   14.35010932
     atom    8 type  3   force =   -52.27731197   -0.06228729   -0.06498530
     atom    9 type  3   force =    50.96556704   -1.81432673   -0.06617901
     atom   10 type  3   force =   -36.08658043   -2.06887222  -23.10440318
     atom   11 type  3   force =   -35.16066771   -0.82173961   22.10863935
     atom   12 type  3   force =   -35.31310625    0.84444922  -22.21028016
     atom   13 type  3   force =   -36.10404751    2.22851381   23.14032526
     atom   14 type  3   force =    35.98112798   -2.05313315  -23.17347791
     atom   15 type  3   force =    35.05590193   -0.80568581   22.17770889
     atom   16 type  3   force =    35.07679819    0.98181204  -22.49091165
     atom   17 type  3   force =    35.86423734    2.36710769   23.42449714
     atom   18 type  4   force =    -0.62073518    4.32498131  -14.24719885
     atom   19 type  4   force =   -35.95276016    0.90066315  -25.59386554
     atom   20 type  4   force =   -35.93605849   -1.00929732   25.57241461
     atom   21 type  4   force =    35.75747149    0.77460335  -25.84138301
     atom   22 type  4   force =    35.74000390   -1.13452026   25.82344586
     atom   23 type  5   force =     5.53338204    0.26445816   -0.05187743
     The local contribution  to forces
     atom    1 type  1   force =     0.17432722    4.69792627  -14.08983113
     atom    2 type  1   force =    39.86746598    6.22613908   -0.78482379
     atom    3 type  1   force =    39.95815139   -6.35967944    0.75097217
     atom    4 type  1   force =   -39.67757330    6.21415072   -0.78123564
     atom    5 type  1   force =   -38.61417076   -8.01796834    0.73979415
     atom    6 type  2   force =     0.17541487    3.70088982   14.09642201
     atom    7 type  2   force =     0.65491480   -3.60664887  -14.41958377
     atom    8 type  3   force =    52.45394873    0.05834823    0.08725321
     atom    9 type  3   force =   -51.05680732    1.87235437    0.09832099
     atom   10 type  3   force =    36.29403433    2.00266896   23.26780387
     atom   11 type  3   force =    35.38097586    0.77118217  -22.27589470
     atom   12 type  3   force =    35.51551043   -0.76188118   22.34604848
     atom   13 type  3   force =    36.30790446   -2.17387871  -23.30715673
     atom   14 type  3   force =   -36.19537640    1.99289177   23.34001392
     atom   15 type  3   force =   -35.27576358    0.75489640  -22.34361562
     atom   16 type  3   force =   -35.30917073   -0.88339439   22.62103927
     atom   17 type  3   force =   -36.08797336   -2.29518137  -23.58778348
     atom   18 type  4   force =     0.60871160   -4.33988204   14.32458352
     atom   19 type  4   force =    35.76232889   -0.90782514   25.41108967
     atom   20 type  4   force =    35.75609475    1.02521731  -25.40298384
     atom   21 type  4   force =   -35.57839100   -0.79638099   25.66666815
     atom   22 type  4   force =   -35.56610614    1.13843515  -25.66858783
     atom   23 type  5   force =    -5.40704166   -0.29243695    0.05075470
     The core correction contribution to forces
     atom    1 type  1   force =    -0.00025264    0.00175468   -0.00215603
     atom    2 type  1   force =    -0.01089274   -0.00048673    0.00091169
     atom    3 type  1   force =    -0.01012530    0.00381821   -0.00146714
     atom    4 type  1   force =     0.01202617   -0.00533796    0.00091254
     atom    5 type  1   force =    -0.00024804    0.01016317   -0.00123298
     atom    6 type  2   force =    -0.00033766    0.00239738    0.00315024
     atom    7 type  2   force =     0.00027209   -0.00339096   -0.00261236
     atom    8 type  3   force =    -0.02995361    0.00013895   -0.00044218
     atom    9 type  3   force =     0.01755213   -0.00945091   -0.00141025
     atom   10 type  3   force =    -0.02301151    0.00925166   -0.01709167
     atom   11 type  3   force =    -0.02486968    0.00913371    0.01776495
     atom   12 type  3   force =    -0.02178292   -0.01060226   -0.01519456
     atom   13 type  3   force =    -0.02204531   -0.00966576    0.01644675
     atom   14 type  3   force =     0.02170145    0.00932060   -0.01792096
     atom   15 type  3   force =     0.02314280    0.00979486    0.01803067
     atom   16 type  3   force =     0.02364566   -0.01051582   -0.01378179
     atom   17 type  3   force =     0.02300749   -0.00935130    0.01509237
     atom   18 type  4   force =     0.00045149   -0.00321453    0.00337969
     atom   19 type  4   force =    -0.00975432    0.00015543   -0.00964475
     atom   20 type  4   force =    -0.00971491    0.00049978    0.00948585
     atom   21 type  4   force =     0.00997782    0.00006536   -0.00904769
     atom   22 type  4   force =     0.00975209    0.00044348    0.00857691
     atom   23 type  5   force =     0.00000000    0.00000000    0.00000000
     The Hubbard contrib.    to forces
     atom    1 type  1   force =     0.00000000    0.00000000    0.00000000
     atom    2 type  1   force =     0.00000000    0.00000000    0.00000000
     atom    3 type  1   force =     0.00000000    0.00000000    0.00000000
     atom    4 type  1   force =     0.00000000    0.00000000    0.00000000
     atom    5 type  1   force =     0.00000000    0.00000000    0.00000000
     atom    6 type  2   force =     0.00000000    0.00000000    0.00000000
     atom    7 type  2   force =     0.00000000    0.00000000    0.00000000
     atom    8 type  3   force =     0.00000000    0.00000000    0.00000000
     atom    9 type  3   force =     0.00000000    0.00000000    0.00000000
     atom   10 type  3   force =     0.00000000    0.00000000    0.00000000
     atom   11 type  3   force =     0.00000000    0.00000000    0.00000000
     atom   12 type  3   force =     0.00000000    0.00000000    0.00000000
     atom   13 type  3   force =     0.00000000    0.00000000    0.00000000
     atom   14 type  3   force =     0.00000000    0.00000000    0.00000000
     atom   15 type  3   force =     0.00000000    0.00000000    0.00000000
     atom   16 type  3   force =     0.00000000    0.00000000    0.00000000
     atom   17 type  3   force =     0.00000000    0.00000000    0.00000000
     atom   18 type  4   force =     0.00000000    0.00000000    0.00000000
     atom   19 type  4   force =     0.00000000    0.00000000    0.00000000
     atom   20 type  4   force =     0.00000000    0.00000000    0.00000000
     atom   21 type  4   force =     0.00000000    0.00000000    0.00000000
     atom   22 type  4   force =     0.00000000    0.00000000    0.00000000
     atom   23 type  5   force =     0.00000000    0.00000000    0.00000000
     The SCF correction term to forces
     atom    1 type  1   force =    -0.00144225    0.00562258   -0.01391053
     atom    2 type  1   force =     0.00416879    0.00500649   -0.01250417
     atom    3 type  1   force =    -0.00201419   -0.00714748   -0.00595989
     atom    4 type  1   force =    -0.00131549    0.00851888   -0.01565025
     atom    5 type  1   force =     0.02701901   -0.01579095   -0.00955090
     atom    6 type  2   force =     0.00284727    0.01651696   -0.01923677
     atom    7 type  2   force =    -0.00058459   -0.00150057   -0.00336138
     atom    8 type  3   force =    -0.00024059    0.00139281   -0.02023764
     atom    9 type  3   force =    -0.00876947   -0.01413761   -0.02396873
     atom   10 type  3   force =     0.00496555    0.02173032    0.00187637
     atom   11 type  3   force =     0.00216620    0.00242500    0.00617071
     atom   12 type  3   force =     0.00835678   -0.01266217    0.00051188
     atom   13 type  3   force =     0.01070908   -0.00823009    0.00436025
     atom   14 type  3   force =     0.00268883    0.01415956    0.00171695
     atom   15 type  3   force =    -0.00197059   -0.00265422    0.00708468
     atom   16 type  3   force =     0.00795996   -0.01607674   -0.00337981
     atom   17 type  3   force =    -0.00204251   -0.01282155    0.00932429
     atom   18 type  4   force =     0.00459457   -0.02095201   -0.01765709
     atom   19 type  4   force =     0.01236364   -0.00541064    0.00165324
     atom   20 type  4   force =     0.00270305    0.00391848    0.00690463
     atom   21 type  4   force =    -0.00476219    0.00188941   -0.00146655
     atom   22 type  4   force =    -0.00055263    0.01033269    0.01168526
     atom   23 type  5   force =     0.00280550    0.00367680   -0.00150556

     Total force =     0.497062     Total SCF correction =     0.083656
     SCF correction compared to forces is large: reduce conv_thr to get better values


     Computing stress (Cartesian axis) and pressure


     negative rho (up, down):  9.089E-01 9.089E-01
          total   stress  (Ry/bohr**3)                   (kbar)     P=       86.52
   0.00066652  -0.00000549  -0.00000181           98.05       -0.81       -0.27
  -0.00000549   0.00070170  -0.00001172           -0.81      103.22       -1.72
  -0.00000181  -0.00001172   0.00039619           -0.27       -1.72       58.28


     Entering Dynamics:    iteration =     2
                           time      =   0.0004 pico-seconds


ATOMIC_POSITIONS (angstrom)
Hf            2.6701251145        2.8273376933        6.6039649234
Hf            1.2531021380        1.2865000063        5.0584658720
Hf            1.2555989274        7.3900236555        5.0880681450
Hf            4.0871499717        1.2865015158        5.0584659582
Hf            4.0846461836        7.3900281054        5.0880688053
Nb            2.6701252034        2.7971447561        3.5155864563
Nb            2.6701224724        5.8765980321        6.6349954141
Ta            1.2094868637        4.3411459853        5.0711253775
Ta            4.1307655741        4.3411485145        5.0711252805
Ta            1.3073757095        1.3143369275        2.0587723638
Ta            1.3029115314        1.3086050190        8.0945854931
Ta            1.3041340736        7.3760479240        2.0462307321
Ta            1.3078348317        7.3653041031        8.0860091701
Ta            4.0328750212        1.3143363131        2.0587716467
Ta            4.0373394570        1.3086043926        8.0945862200
Ta            4.0361176839        7.3760491699        2.0462305880
Ta            4.0324166587        7.3653052370        8.0860092476
Zr            2.6701227984        5.8665075349        3.5273829592
Zr            1.2439321096        4.3222943099        1.9999736632
Zr            1.2404820326        4.3543419703        8.1497818835
Zr            4.0963177934        4.3222937547        1.9999732287
Zr            4.0997684164        4.3543412569        8.1497823309
H             4.9227787705        5.7099028982        5.0721451521


     kinetic energy (Ekin) =           8.10378584 Ry
     temperature           =       38772.32084917 K 
     Ekin + Etot (const)   =       -2934.95593374 Ry
     Ions kinetic stress =          143.12 (kbar)
                                    106.39         185.37           0.02
                                    185.37         322.98           0.03
                                      0.02           0.03           0.00



     Linear momentum :   -0.0000000000    0.0000000000   -0.0000000000

     Writing config-only to output data dir outdir/pwscf.save/
     NEW-OLD atomic charge density approx. for the potential

     Check: negative core charge=   -0.000002

     negative rho (up, down):  9.089E-01 9.089E-01
     Generating pointlists ...
     new r_m :   0.0698 (alat units)  1.2327 (a.u.) for type    3
     new r_m :   0.0698 (alat units)  1.2327 (a.u.) for type    5

     total cpu time spent up to now is      543.6 secs

     Self-consistent Calculation

     iteration #  1     ecut=   120.00 Ry     beta= 0.70
     Davidson diagonalization with overlap
     c_bands:  1 eigenvalues not converged
     c_bands:  1 eigenvalues not converged
     ethr =  1.00E-06,  avg # of iterations = 20.0

     negative rho (up, down):  9.089E-01 9.089E-01

     total cpu time spent up to now is      583.0 secs

     total energy              =   -2943.01271385 Ry
     estimated scf accuracy    <       0.14656361 Ry

     total magnetization       =     0.07 Bohr mag/cell
     absolute magnetization    =     0.08 Bohr mag/cell

     iteration #  2     ecut=   120.00 Ry     beta= 0.70
     Davidson diagonalization with overlap
     ethr =  5.29E-05,  avg # of iterations =  2.0

     negative rho (up, down):  9.090E-01 9.090E-01

     total cpu time spent up to now is      600.6 secs

     total energy              =   -2943.02409202 Ry
     estimated scf accuracy    <       0.06226606 Ry

     total magnetization       =     0.07 Bohr mag/cell
     absolute magnetization    =     0.08 Bohr mag/cell

     iteration #  3     ecut=   120.00 Ry     beta= 0.70
     Davidson diagonalization with overlap
     ethr =  2.25E-05,  avg # of iterations =  1.0

     negative rho (up, down):  9.089E-01 9.089E-01

     total cpu time spent up to now is      616.7 secs

     total energy              =   -2943.02770065 Ry
     estimated scf accuracy    <       0.00396110 Ry

     total magnetization       =     0.07 Bohr mag/cell
     absolute magnetization    =     0.08 Bohr mag/cell

     iteration #  4     ecut=   120.00 Ry     beta= 0.70
     Davidson diagonalization with overlap
     ethr =  1.43E-06,  avg # of iterations = 14.0

     negative rho (up, down):  9.089E-01 9.089E-01

     Magnetic moment per site  (integrated on atomic sphere of radius R)
     atom   1 (R=0.074)  charge=  5.9344  magn=  0.0000
     atom   2 (R=0.074)  charge=  5.8661  magn=  0.0000
     atom   3 (R=0.074)  charge=  5.8651  magn=  0.0001
     atom   4 (R=0.074)  charge=  5.8660  magn=  0.0000
     atom   5 (R=0.074)  charge=  5.8731  magn=  0.0001
     atom   6 (R=0.110)  charge= 10.3485  magn=  0.0000
     atom   7 (R=0.110)  charge= 10.3475  magn=  0.0003
     atom   8 (R=0.070)  charge=  5.8170  magn=  0.0000
     atom   9 (R=0.070)  charge=  5.8361  magn=  0.0001
     atom  10 (R=0.070)  charge=  5.8040  magn=  0.0006
     atom  11 (R=0.070)  charge=  5.8031  magn=  0.0005
     atom  12 (R=0.070)  charge=  5.8006  magn=  0.0008
     atom  13 (R=0.070)  charge=  5.8056  magn=  0.0003
     atom  14 (R=0.070)  charge=  5.8014  magn=  0.0005
     atom  15 (R=0.070)  charge=  5.8000  magn=  0.0003
     atom  16 (R=0.070)  charge=  5.8014  magn=  0.0012
     atom  17 (R=0.070)  charge=  5.8029  magn=  0.0005
     atom  18 (R=0.111)  charge=  9.4550  magn= -0.0001
     atom  19 (R=0.111)  charge=  9.0010  magn=  0.0030
     atom  20 (R=0.111)  charge=  8.9926  magn= -0.0003
     atom  21 (R=0.111)  charge=  9.0084  magn=  0.0034
     atom  22 (R=0.111)  charge=  8.9956  magn= -0.0001
     atom  23 (R=0.070)  charge=  0.9816  magn=  0.0001

     total cpu time spent up to now is      653.3 secs

     End of self-consistent calculation

 ------ SPIN UP ------------


          k = 0.0000 0.0000 0.0000 ( 61588 PWs)   bands (ev):

   -60.7630 -60.7516 -60.7178 -60.7072 -60.6771 -60.6725 -60.6336 -60.6290
   -60.5383 -60.2391 -54.3546 -54.2550 -54.2306 -54.1308 -52.7120 -46.2751
   -46.2400 -41.6464 -41.6208 -41.5461 -41.5375 -39.8193 -27.7636 -27.7577
   -27.6763 -27.6728 -27.5823 -27.5623 -27.4471 -27.4371 -27.3688 -27.3104
   -27.2885 -27.2464 -27.2383 -27.2177 -27.1994 -27.1652 -27.1395 -27.1299
   -27.0979 -26.9959 -26.9455 -26.9311 -26.9292 -26.9169 -26.8912 -26.8865
   -26.8684 -26.8618 -26.8331 -26.8318 -24.1376 -23.9127 -23.6312 -23.5292
   -23.2809 -23.1419 -23.1177 -23.0177 -22.8986 -22.8049 -22.8015 -22.5669
   -22.5076 -22.4441 -22.3826 -22.3347 -22.2567 -22.2054 -21.7581 -21.6945
   -21.6375 -20.2095 -19.9235 -19.8530 -19.8503 -19.6114 -19.5994 -19.5982
   -19.5841 -19.5692 -19.5309 -19.3823 -19.3509 -18.1626 -17.9710 -17.8277
     0.8502   2.0157   2.9429   3.1508   3.3487   3.4692   3.5434   3.6360
     3.6941   3.8906   3.9226   4.1349   4.1878   4.5023   4.5630   4.7096
     4.7692   4.8897   5.0369   5.1162   5.1967   5.2740   5.2936   5.3826
     5.4076   5.5544   5.5868   5.7329   5.7431   5.7569   5.7748   5.8899
     6.0423   6.0798   6.2008   6.2299   6.2660   6.3212   6.3683   6.4001
     6.4621   6.6084   6.6582   6.7297   6.8158   6.9956   7.0141   7.0993
     7.1220   7.1641   7.2402   7.2827   7.3337   7.4504   7.5421   7.5634
     7.6324   7.8138   7.9060   7.9103   8.0792   8.0973   8.1244   8.2166
     8.2515   8.2734   8.3682   8.3893   8.4643   8.5547   8.6681   8.6741
     8.8732   8.9114   9.0184   9.0919   9.1059   9.2318   9.2850

 ------ SPIN DOWN ----------


          k = 0.0000 0.0000 0.0000 ( 61588 PWs)   bands (ev):

   -60.7623 -60.7502 -60.7170 -60.7056 -60.6755 -60.6718 -60.6320 -60.6282
   -60.5383 -60.2389 -54.3545 -54.2550 -54.2305 -54.1308 -52.7120 -46.2748
   -46.2400 -41.6435 -41.6210 -41.5432 -41.5377 -39.8194 -27.7623 -27.7558
   -27.6742 -27.6716 -27.5812 -27.5603 -27.4457 -27.4349 -27.3685 -27.3093
   -27.2874 -27.2454 -27.2366 -27.2169 -27.1981 -27.1646 -27.1377 -27.1291
   -27.0977 -26.9955 -26.9445 -26.9290 -26.9279 -26.9150 -26.8910 -26.8861
   -26.8671 -26.8597 -26.8319 -26.8299 -24.1375 -23.9127 -23.6309 -23.5291
   -23.2807 -23.1417 -23.1175 -23.0176 -22.8985 -22.8048 -22.8015 -22.5668
   -22.5074 -22.4441 -22.3824 -22.3345 -22.2564 -22.2053 -21.7580 -21.6945
   -21.6375 -20.2064 -19.9246 -19.8496 -19.8475 -19.6085 -19.5985 -19.5972
   -19.5834 -19.5690 -19.5308 -19.3783 -19.3514 -18.1626 -17.9709 -17.8273
     0.8507   2.0169   2.9452   3.1515   3.3498   3.4717   3.5442   3.6366
     3.6947   3.8913   3.9252   4.1364   4.1888   4.5030   4.5641   4.7114
     4.7705   4.8909   5.0387   5.1177   5.1981   5.2755   5.2950   5.3850
     5.4094   5.5554   5.5879   5.7336   5.7446   5.7581   5.7761   5.8910
     6.0438   6.0816   6.2020   6.2313   6.2673   6.3225   6.3696   6.4017
     6.4646   6.6095   6.6596   6.7314   6.8174   6.9979   7.0188   7.1060
     7.1264   7.1666   7.2461   7.2869   7.3355   7.4565   7.5469   7.5650
     7.6352   7.8163   7.9077   7.9120   8.0817   8.1011   8.1263   8.2206
     8.2546   8.2751   8.3721   8.3915   8.4662   8.5569   8.6698   8.6761
     8.8748   8.9160   9.0209   9.0933   9.1074   9.2327   9.2870

     the Fermi energy is     7.2496 ev

!    total energy              =   -2943.02738592 Ry
     estimated scf accuracy    <       0.00090963 Ry
     smearing contrib. (-TS)   =      -0.10268646 Ry
     internal energy E=F+TS    =   -2942.92469946 Ry

     total magnetization       =     0.06 Bohr mag/cell
     absolute magnetization    =     0.07 Bohr mag/cell

     convergence has been achieved in   4 iterations

     negative rho (up, down):  9.089E-01 9.089E-01

     Forces acting on atoms (cartesian axes, Ry/au):

     atom    1 type  1   force =    -0.00586876   -0.02659201    0.00634441
     atom    2 type  1   force =    -0.11857924   -0.01534796   -0.00722159
     atom    3 type  1   force =    -0.11505054    0.01277059    0.00177107
     atom    4 type  1   force =     0.13695729   -0.00777635   -0.00941224
     atom    5 type  1   force =     0.09496734    0.00113008    0.00454380
     atom    6 type  2   force =    -0.00364704   -0.01833784    0.01395306
     atom    7 type  2   force =    -0.01515488    0.00925350   -0.00905629
     atom    8 type  3   force =    -0.10849242    0.00498089   -0.00732557
     atom    9 type  3   force =     0.03462459   -0.09484534   -0.00668921
     atom   10 type  3   force =    -0.02423592   -0.02296819   -0.05794922
     atom   11 type  3   force =    -0.02198674   -0.03210912    0.05753092
     atom   12 type  3   force =    -0.01072603    0.03161856   -0.05614244
     atom   13 type  3   force =    -0.01155057    0.02780805    0.06303499
     atom   14 type  3   force =     0.01786587   -0.03149921   -0.06417374
     atom   15 type  3   force =     0.01599750   -0.03912029    0.06407360
     atom   16 type  3   force =     0.01600809    0.04127906   -0.05633740
     atom   17 type  3   force =     0.01396292    0.03641139    0.06459728
     atom   18 type  4   force =    -0.00984487    0.01506447   -0.00733117
     atom   19 type  4   force =    -0.12248561   -0.00685127   -0.11561059
     atom   20 type  4   force =    -0.12793588    0.00498341    0.11960533
     atom   21 type  4   force =     0.11603018   -0.00691340   -0.11779035
     atom   22 type  4   force =     0.12338126    0.00407006    0.12208347
     atom   23 type  5   force =     0.12576345    0.11299092   -0.00249813
     The non-local contrib.  to forces
     atom    1 type  1   force =     0.00202782   -0.00418601    0.01926028
     atom    2 type  1   force =    -0.24742515   -0.15709709    0.01251344
     atom    3 type  1   force =    -0.23417839    0.15111983   -0.02774219
     atom    4 type  1   force =     0.25072747   -0.18731993    0.01293937
     atom    5 type  1   force =     0.17966687    0.17959311   -0.02603678
     atom    6 type  2   force =     0.00670930   -0.04493701   -0.07346424
     atom    7 type  2   force =    -0.00208558    0.06664789    0.06453284
     atom    8 type  3   force =    -0.25098684    0.00537316   -0.00843908
     atom    9 type  3   force =     0.16077797   -0.04361369   -0.01246381
     atom   10 type  3   force =    -0.21481897    0.00826970   -0.20832491
     atom   11 type  3   force =    -0.22216152    0.00662731    0.20200653
     atom   12 type  3   force =    -0.19842015   -0.02600470   -0.17866390
     atom   13 type  3   force =    -0.20515725   -0.00811841    0.20929837
     atom   14 type  3   force =     0.20839426    0.00231532   -0.21550577
     atom   15 type  3   force =     0.21822221    0.00427523    0.20426165
     atom   16 type  3   force =     0.21393943   -0.02601820   -0.17198523
     atom   17 type  3   force =     0.21695283   -0.01028647    0.20378868
     atom   18 type  4   force =    -0.00116053    0.05461479   -0.06925786
     atom   19 type  4   force =     0.06395082    0.00670499    0.07210752
     atom   20 type  4   force =     0.05983811   -0.01503497   -0.06707171
     atom   21 type  4   force =    -0.06339435    0.01419817    0.06340186
     atom   22 type  4   force =    -0.05840169   -0.00948198   -0.05192845
     atom   23 type  5   force =    -0.04997282   -0.03177095   -0.00095238
     The ionic contribution  to forces
     atom    1 type  1   force =    -0.19727591   -4.75647367   14.10847366
     atom    2 type  1   force =   -39.73890197   -6.10549174    0.77967557
     atom    3 type  1   force =   -39.84098068    6.23795325   -0.71281530
     atom    4 type  1   force =    39.56443620   -6.08631524    0.77881338
     atom    5 type  1   force =    38.80108663    7.72275770   -0.69858783
     atom    6 type  2   force =    -0.20852921   -3.72235285  -14.01226499
     atom    7 type  2   force =    -0.70281593    3.60850089   14.39461198
     atom    8 type  3   force =   -52.31941455   -0.06337702   -0.06500475
     atom    9 type  3   force =    50.64125635   -2.37732576   -0.06673585
     atom   10 type  3   force =   -36.09056556   -2.07694596  -23.10526956
     atom   11 type  3   force =   -35.16465604   -0.82978187   22.10948765
     atom   12 type  3   force =   -35.31776196    0.85001316  -22.20976350
     atom   13 type  3   force =   -36.10870282    2.23418409   23.13983185
     atom   14 type  3   force =    35.98641691   -2.07318621  -23.17349903
     atom   15 type  3   force =    35.06122797   -0.82565443   22.17766250
     atom   16 type  3   force =    35.09748479    0.99216314  -22.47051871
     atom   17 type  3   force =    35.88515944    2.37778386   23.40396519
     atom   18 type  4   force =    -0.65725336    4.37751740  -14.28890560
     atom   19 type  4   force =   -35.96422895    0.90222351  -25.60143364
     atom   20 type  4   force =   -35.94752758   -1.00749038   25.57994555
     atom   21 type  4   force =    35.75968805    0.77675316  -25.87826269
     atom   22 type  4   force =    35.74243441   -1.13154654   25.86026776
     atom   23 type  5   force =     5.71942378    0.97609150   -0.04967366
     The local contribution  to forces
     atom    1 type  1   force =     0.19107037    4.73467355  -14.12609097
     atom    2 type  1   force =    39.88549200    6.25022094   -0.81323572
     atom    3 type  1   force =    39.98614327   -6.38052950    0.73720310
     atom    4 type  1   force =   -39.69237780    6.26083406   -0.81943658
     atom    5 type  1   force =   -38.90466794   -7.90047438    0.71786893
     atom    6 type  2   force =     0.20727255    3.76584987   14.07067879
     atom    7 type  2   force =     0.70575254   -3.65376025  -14.47201607
     atom    8 type  3   force =    52.49624919    0.06173242    0.04195086
     atom    9 type  3   force =   -50.76961095    2.36086412    0.04285105
     atom   10 type  3   force =    36.31169217    2.06767551   23.27905863
     atom   11 type  3   force =    35.40035120    0.78671694  -22.27061566
     atom   12 type  3   force =    35.53934846   -0.80422680   22.34996413
     atom   13 type  3   force =    36.34142486   -2.20027396  -23.29953888
     atom   14 type  3   force =   -36.18867499    2.04810345   23.34496177
     atom   15 type  3   force =   -35.28898856    0.76997308  -22.32944728
     atom   16 type  3   force =   -35.30020615   -0.93973470   22.60405923
     atom   17 type  3   force =   -36.11005731   -2.33690934  -23.55401844
     atom   18 type  4   force =     0.67225365   -4.43092783   14.33204067
     atom   19 type  4   force =    35.80587027   -0.92104732   25.41987768
     atom   20 type  4   force =    35.78150657    1.03142318  -25.38936305
     atom   21 type  4   force =   -35.59181460   -0.79190160   25.70342871
     atom   22 type  4   force =   -35.57300581    1.15709724  -25.67864223
     atom   23 type  5   force =    -5.54553961   -0.83466034    0.04522402
     The core correction contribution to forces
     atom    1 type  1   force =     0.00016697    0.00179368   -0.00218207
     atom    2 type  1   force =    -0.01047070   -0.00059136    0.00082547
     atom    3 type  1   force =    -0.01066985    0.00379926   -0.00139500
     atom    4 type  1   force =     0.01282944   -0.00500916    0.00090933
     atom    5 type  1   force =     0.00024834    0.00925769   -0.00126470
     atom    6 type  2   force =    -0.00027464    0.00232465    0.00327487
     atom    7 type  2   force =     0.00017176   -0.00332649   -0.00264763
     atom    8 type  3   force =    -0.02976592    0.00037917   -0.00043099
     atom    9 type  3   force =     0.01436087   -0.01122987   -0.00104083
     atom   10 type  3   force =    -0.02323265    0.00909212   -0.01701959
     atom   11 type  3   force =    -0.02507463    0.00933834    0.01780651
     atom   12 type  3   force =    -0.02198001   -0.01046341   -0.01537698
     atom   13 type  3   force =    -0.02207766   -0.00965747    0.01657583
     atom   14 type  3   force =     0.02188878    0.00916787   -0.01801703
     atom   15 type  3   force =     0.02341632    0.00985660    0.01830627
     atom   16 type  3   force =     0.02318185   -0.01005162   -0.01397438
     atom   17 type  3   force =     0.02274314   -0.00902817    0.01532510
     atom   18 type  4   force =     0.00033977   -0.00316200    0.00341059
     atom   19 type  4   force =    -0.00976107    0.00014518   -0.00956817
     atom   20 type  4   force =    -0.00970502    0.00046260    0.00946324
     atom   21 type  4   force =     0.00990634   -0.00007667   -0.00893013
     atom   22 type  4   force =     0.00971389    0.00024334    0.00844741
     atom   23 type  5   force =     0.00000000    0.00000000    0.00000000
     The Hubbard contrib.    to forces
     atom    1 type  1   force =     0.00000000    0.00000000    0.00000000
     atom    2 type  1   force =     0.00000000    0.00000000    0.00000000
     atom    3 type  1   force =     0.00000000    0.00000000    0.00000000
     atom    4 type  1   force =     0.00000000    0.00000000    0.00000000
     atom    5 type  1   force =     0.00000000    0.00000000    0.00000000
     atom    6 type  2   force =     0.00000000    0.00000000    0.00000000
     atom    7 type  2   force =     0.00000000    0.00000000    0.00000000
     atom    8 type  3   force =     0.00000000    0.00000000    0.00000000
     atom    9 type  3   force =     0.00000000    0.00000000    0.00000000
     atom   10 type  3   force =     0.00000000    0.00000000    0.00000000
     atom   11 type  3   force =     0.00000000    0.00000000    0.00000000
     atom   12 type  3   force =     0.00000000    0.00000000    0.00000000
     atom   13 type  3   force =     0.00000000    0.00000000    0.00000000
     atom   14 type  3   force =     0.00000000    0.00000000    0.00000000
     atom   15 type  3   force =     0.00000000    0.00000000    0.00000000
     atom   16 type  3   force =     0.00000000    0.00000000    0.00000000
     atom   17 type  3   force =     0.00000000    0.00000000    0.00000000
     atom   18 type  4   force =     0.00000000    0.00000000    0.00000000
     atom   19 type  4   force =     0.00000000    0.00000000    0.00000000
     atom   20 type  4   force =     0.00000000    0.00000000    0.00000000
     atom   21 type  4   force =     0.00000000    0.00000000    0.00000000
     atom   22 type  4   force =     0.00000000    0.00000000    0.00000000
     atom   23 type  5   force =     0.00000000    0.00000000    0.00000000
     The SCF correction term to forces
     atom    1 type  1   force =    -0.00091677   -0.00243413    0.00612006
     atom    2 type  1   force =    -0.00633218   -0.00242327    0.01223620
     atom    3 type  1   force =    -0.01442365    0.00039317    0.00575700
     atom    4 type  1   force =     0.00228322    0.00999934    0.01659881
     atom    5 type  1   force =     0.01957468   -0.01003862    0.01180073
     atom    6 type  2   force =    -0.00788380   -0.01925707    0.02496518
     atom    7 type  2   force =    -0.01523644   -0.00884311    0.00569914
     atom    8 type  3   force =    -0.00363306    0.00083858    0.02383494
     atom    9 type  3   force =    -0.01121841   -0.02357472    0.02993678
     atom   10 type  3   force =    -0.00636968   -0.03109413   -0.00715724
     atom   11 type  3   force =    -0.00950450   -0.00504442   -0.00191756
     atom   12 type  3   force =    -0.01097114    0.02226573   -0.00306564
     atom   13 type  3   force =    -0.01609645    0.01163924   -0.00389564
     atom   14 type  3   force =    -0.00921786   -0.01793422   -0.00287713
     atom   15 type  3   force =     0.00306079    0.00239465   -0.00747300
     atom   16 type  3   force =    -0.01745060    0.02488587   -0.00468177
     atom   17 type  3   force =     0.00010606    0.01481694   -0.00522669
     atom   18 type  4   force =    -0.02308316    0.01698754    0.01461757
     atom   19 type  4   force =    -0.01737545    0.00508779    0.00264257
     atom   20 type  4   force =    -0.01110672   -0.00441159   -0.01413216
     atom   21 type  4   force =     0.00258598   -0.00592104    0.00180844
     atom   22 type  4   force =     0.00358169   -0.01227657   -0.01682448
     atom   23 type  5   force =     0.00279335    0.00329613    0.00214043

     Total force =     0.515474     Total SCF correction =     0.105656
     SCF correction compared to forces is large: reduce conv_thr to get better values


     Computing stress (Cartesian axis) and pressure


     negative rho (up, down):  9.089E-01 9.089E-01
[...]
     3.6648   3.9123   3.9171   4.0398   4.1303   4.4921   4.5814   4.6940
     4.7576   4.8413   5.0300   5.1069   5.1850   5.2595   5.2805   5.3671
     5.4189   5.5478   5.5956   5.7220   5.7233   5.7339   5.7616   5.8327
     5.9286   6.0504   6.1446   6.1846   6.2404   6.2856   6.3710   6.4198
     6.5060   6.5843   6.6584   6.7257   6.8166   6.9795   7.0207   7.0593
     7.1037   7.1628   7.2498   7.2722   7.3096   7.4350   7.5523   7.5801
     7.6184   7.7242   7.8963   7.9083   8.0904   8.1017   8.1081   8.1974
     8.2379   8.2492   8.3534   8.3599   8.3852   8.5568   8.6557   8.6919
     8.8577   8.8986   9.0159   9.0832   9.1879   9.2142   9.2722

     the Fermi energy is     7.2376 ev

!    total energy              =   -2943.03923105 Ry
     estimated scf accuracy    <       0.00021326 Ry
     smearing contrib. (-TS)   =      -0.10197556 Ry
     internal energy E=F+TS    =   -2942.93725549 Ry

     total magnetization       =     0.00 Bohr mag/cell
     absolute magnetization    =     0.00 Bohr mag/cell

     convergence has been achieved in   5 iterations

     negative rho (up, down):  9.090E-01 9.090E-01

     Forces acting on atoms (cartesian axes, Ry/au):

     atom    1 type  1   force =    -0.01100326   -0.03085704    0.01465564
     atom    2 type  1   force =    -0.12638502   -0.01386013   -0.00035185
     atom    3 type  1   force =    -0.11936908    0.01228925    0.00576059
     atom    4 type  1   force =     0.11859497   -0.00150530    0.00112336
     atom    5 type  1   force =     0.05223985    0.05235096    0.00971499
     atom    6 type  2   force =    -0.00951657   -0.01759761    0.00578945
     atom    7 type  2   force =    -0.01017106    0.00312030   -0.01036831
     atom    8 type  3   force =    -0.10626377    0.00319045   -0.00510323
     atom    9 type  3   force =     0.15027717    0.05569743   -0.00754406
     atom   10 type  3   force =    -0.02030997   -0.02723072   -0.05982730
     atom   11 type  3   force =    -0.01857607   -0.03351370    0.05399636
     atom   12 type  3   force =    -0.01438492    0.03455551   -0.05455820
     atom   13 type  3   force =    -0.01604784    0.03121804    0.05843790
     atom   14 type  3   force =     0.02061203   -0.03294096   -0.06393269
     atom   15 type  3   force =     0.01997766   -0.03894473    0.05922320
     atom   16 type  3   force =     0.01673910    0.04393233   -0.05757321
     atom   17 type  3   force =     0.01645684    0.03855986    0.05932846
     atom   18 type  4   force =    -0.00951178    0.01125347   -0.00516768
     atom   19 type  4   force =    -0.12333775   -0.00568608   -0.11645057
     atom   20 type  4   force =    -0.12864495    0.00539176    0.11568153
     atom   21 type  4   force =     0.11934419   -0.00838618   -0.11839356
     atom   22 type  4   force =     0.12620961    0.00171194    0.11885473
     atom   23 type  5   force =     0.07307062   -0.08274885   -0.00329556
     The non-local contrib.  to forces
     atom    1 type  1   force =     0.00272867   -0.01073211    0.02126001
     atom    2 type  1   force =    -0.25658267   -0.15452631    0.01805062
     atom    3 type  1   force =    -0.22132892    0.15862553   -0.02585790
     atom    4 type  1   force =     0.24346113   -0.17362979    0.01807915
     atom    5 type  1   force =     0.04005800    0.26642575   -0.02350858
     atom    6 type  2   force =     0.00749852   -0.04884999   -0.06377891
     atom    7 type  2   force =    -0.01342550    0.06889625    0.05861658
     atom    8 type  3   force =    -0.25900218    0.00958460   -0.00620160
     atom    9 type  3   force =     0.26150899    0.01747922   -0.00809046
     atom   10 type  3   force =    -0.20640723    0.00373388   -0.20553289
     atom   11 type  3   force =    -0.21212081    0.00179773    0.19379818
     atom   12 type  3   force =    -0.20506079   -0.02182201   -0.17558949
     atom   13 type  3   force =    -0.21159506   -0.00305230    0.20734382
     atom   14 type  3   force =     0.20637392    0.00345358   -0.21512449
     atom   15 type  3   force =     0.21423326    0.00654355    0.20224301
     atom   16 type  3   force =     0.22244863   -0.02753697   -0.16966216
     atom   17 type  3   force =     0.22610878   -0.01134835    0.20155270
     atom   18 type  4   force =    -0.01300392    0.05967021   -0.06310835
     atom   19 type  4   force =     0.06195490    0.00622171    0.07049985
     atom   20 type  4   force =     0.05759832   -0.01648398   -0.06661285
     atom   21 type  4   force =    -0.06570016    0.00546809    0.06606208
     atom   22 type  4   force =    -0.06027616   -0.01905094   -0.06098900
     atom   23 type  5   force =    -0.05360492    0.02525339    0.00022425
     The ionic contribution  to forces
     atom    1 type  1   force =    -0.33294525   -4.74741779   14.38518093
     atom    2 type  1   force =   -39.75391125   -6.13034901    0.77986571
     atom    3 type  1   force =   -39.69316936    6.12878637   -0.71185428
     atom    4 type  1   force =    39.54286152   -6.19402422    0.77814875
     atom    5 type  1   force =    37.85990741    7.07832591   -0.69201503
     atom    6 type  2   force =    -0.34590569   -3.71312308  -14.30008038
     atom    7 type  2   force =    -0.27323739    3.50115565   14.09090124
     atom    8 type  3   force =   -52.31814536    0.09660693   -0.06551589
     atom    9 type  3   force =    51.40797286   -0.03848530   -0.03158977
     atom   10 type  3   force =   -36.06550280   -2.06002813  -23.09662750
     atom   11 type  3   force =   -35.14091478   -0.81370234   22.10081778
     atom   12 type  3   force =   -35.24456896    0.78743819  -22.16446676
     atom   13 type  3   force =   -36.03085136    2.16990094   23.09184524
     atom   14 type  3   force =    35.95444881   -2.04045419  -23.19726986
     atom   15 type  3   force =    35.03098317   -0.79358901   22.20034493
     atom   16 type  3   force =    35.01513287    0.84020119  -22.41018123
     atom   17 type  3   force =    35.79856897    2.22247349   23.33946310
     atom   18 type  4   force =    -0.25175884    4.27683598  -14.00333883
     atom   19 type  4   force =   -35.87948512    0.93908870  -25.52109820
     atom   20 type  4   force =   -35.86174595   -0.96698692   25.49789091
     atom   21 type  4   force =    35.76397609    0.90618583  -25.65128470
     atom   22 type  4   force =    35.74599336   -1.00131841   25.62734299
     atom   23 type  5   force =     5.07229708   -0.44752076   -0.04647916
     The local contribution  to forces
     atom    1 type  1   force =     0.32063369    4.71954694  -14.38091696
     atom    2 type  1   force =    39.89722470    6.27144953   -0.78871287
     atom    3 type  1   force =    39.80290172   -6.27770260    0.75554565
     atom    4 type  1   force =   -39.67662613    6.36903479   -0.78535900
     atom    5 type  1   force =   -37.84092093   -7.30737380    0.73733204
     atom    6 type  2   force =     0.33060903    3.74246395   14.37643481
     atom    7 type  2   force =     0.27683262   -3.55747492  -14.14604054
     atom    8 type  3   force =    52.50169493   -0.10137378    0.07427706
     atom    9 type  3   force =   -51.54724804    0.07877716    0.04086158
     atom   10 type  3   force =    36.27470588    2.02436695   23.25803248
     atom   11 type  3   force =    35.35848918    0.76290523  -22.25793019
     atom   12 type  3   force =    35.45873624   -0.72445347   22.29982693
     atom   13 type  3   force =    36.24977909   -2.11939390  -23.25763537
     atom   14 type  3   force =   -36.16179826    1.99888641   23.36515938
     atom   15 type  3   force =   -35.24637949    0.73083089  -22.36113628
     atom   16 type  3   force =   -35.24519234   -0.76109011   22.53559861
     atom   17 type  3   force =   -36.02978758   -2.15612677  -23.49689368
     atom   18 type  4   force =     0.25432384   -4.32397122   14.06758092
     atom   19 type  4   force =    35.70638682   -0.95134866   25.34337965
     atom   20 type  4   force =    35.68259830    0.98853764  -25.32407226
     atom   21 type  4   force =   -35.59005797   -0.92114146   25.47557478
     atom   22 type  4   force =   -35.56458490    1.02165454  -25.45533066
     atom   23 type  5   force =    -4.94438473    0.34018911    0.04512945
     The core correction contribution to forces
     atom    1 type  1   force =     0.00007428    0.00190435   -0.00175263
     atom    2 type  1   force =    -0.01222020   -0.00124992    0.00085411
     atom    3 type  1   force =    -0.00895657    0.00205916   -0.00181854
     atom    4 type  1   force =     0.01071709   -0.00263849    0.00082839
     atom    5 type  1   force =    -0.00289017    0.01618354   -0.00128276
     atom    6 type  2   force =    -0.00041414    0.00230875    0.00263742
     atom    7 type  2   force =     0.00051029   -0.00358853   -0.00231548
     atom    8 type  3   force =    -0.03117168   -0.00026808   -0.00039204
     atom    9 type  3   force =     0.02876977   -0.00328597   -0.00152780
     atom   10 type  3   force =    -0.02205171    0.00876525   -0.01734470
     atom   11 type  3   force =    -0.02393102    0.00867903    0.01798711
     atom   12 type  3   force =    -0.02271615   -0.01015228   -0.01487327
     atom   13 type  3   force =    -0.02276258   -0.00924225    0.01647290
     atom   14 type  3   force =     0.02147313    0.00980915   -0.01679779
     atom   15 type  3   force =     0.02282633    0.01037966    0.01724468
     atom   16 type  3   force =     0.02443970   -0.01106949   -0.01368705
     atom   17 type  3   force =     0.02355500   -0.00974447    0.01492285
     atom   18 type  4   force =     0.00068622   -0.00342011    0.00322326
     atom   19 type  4   force =    -0.00975972    0.00018125   -0.00943743
     atom   20 type  4   force =    -0.00968252    0.00052399    0.00934695
     atom   21 type  4   force =     0.01009118    0.00040691   -0.00899087
     atom   22 type  4   force =     0.00993797    0.00076885    0.00887433
     atom   23 type  5   force =     0.00000000    0.00000000    0.00000000
     The Hubbard contrib.    to forces
     atom    1 type  1   force =     0.00000000    0.00000000    0.00000000
     atom    2 type  1   force =     0.00000000    0.00000000    0.00000000
     atom    3 type  1   force =     0.00000000    0.00000000    0.00000000
     atom    4 type  1   force =     0.00000000    0.00000000    0.00000000
     atom    5 type  1   force =     0.00000000    0.00000000    0.00000000
     atom    6 type  2   force =     0.00000000    0.00000000    0.00000000
     atom    7 type  2   force =     0.00000000    0.00000000    0.00000000
     atom    8 type  3   force =     0.00000000    0.00000000    0.00000000
     atom    9 type  3   force =     0.00000000    0.00000000    0.00000000
     atom   10 type  3   force =     0.00000000    0.00000000    0.00000000
     atom   11 type  3   force =     0.00000000    0.00000000    0.00000000
     atom   12 type  3   force =     0.00000000    0.00000000    0.00000000
     atom   13 type  3   force =     0.00000000    0.00000000    0.00000000
     atom   14 type  3   force =     0.00000000    0.00000000    0.00000000
     atom   15 type  3   force =     0.00000000    0.00000000    0.00000000
     atom   16 type  3   force =     0.00000000    0.00000000    0.00000000
     atom   17 type  3   force =     0.00000000    0.00000000    0.00000000
     atom   18 type  4   force =     0.00000000    0.00000000    0.00000000
     atom   19 type  4   force =     0.00000000    0.00000000    0.00000000
     atom   20 type  4   force =     0.00000000    0.00000000    0.00000000
     atom   21 type  4   force =     0.00000000    0.00000000    0.00000000
     atom   22 type  4   force =     0.00000000    0.00000000    0.00000000
     atom   23 type  5   force =     0.00000000    0.00000000    0.00000000
     The SCF correction term to forces
     atom    1 type  1   force =    -0.00130262    0.00577659   -0.00815487
     atom    2 type  1   force =    -0.00070358    0.00075060   -0.00944857
     atom    3 type  1   force =     0.00137609    0.00045581   -0.00929350
     atom    4 type  1   force =    -0.00162660   -0.00031257   -0.00961308
     atom    5 type  1   force =    -0.00372243   -0.00127542   -0.00984983
     atom    6 type  2   force =    -0.00111227   -0.00046223   -0.00846264
     atom    7 type  2   force =    -0.00065906   -0.00593313   -0.01056926
     atom    8 type  3   force =     0.00055255   -0.00142420   -0.00630992
     atom    9 type  3   force =    -0.00053438    0.00114733   -0.00623677
     atom   10 type  3   force =    -0.00086209   -0.00413365    0.00260616
     atom   11 type  3   force =     0.00009338    0.00674167    0.00028433
     atom   12 type  3   force =    -0.00058324    0.00348010    0.00150523
     atom   13 type  3   force =    -0.00042591   -0.00705943    0.00137216
     atom   14 type  3   force =     0.00030645   -0.00470088    0.00106090
     atom   15 type  3   force =    -0.00149358    0.00682520    0.00148769
     atom   16 type  3   force =     0.00010226    0.00336273    0.00131946
     atom   17 type  3   force =    -0.00179629   -0.00675900    0.00124432
     atom   18 type  4   force =     0.00043294    0.00207363   -0.00856384
     atom   19 type  4   force =    -0.00224261    0.00010595    0.00116640
     atom   20 type  4   force =     0.00277892   -0.00026395    0.00008962
     atom   21 type  4   force =     0.00122708    0.00062947    0.00120600
     atom   22 type  4   force =    -0.00466863   -0.00040708   -0.00008207
     atom   23 type  5   force =    -0.00104478   -0.00073556   -0.00120926

     Total force =     0.508729     Total SCF correction =     0.034441


     Computing stress (Cartesian axis) and pressure


     negative rho (up, down):  9.090E-01 9.090E-01
          total   stress  (Ry/bohr**3)                   (kbar)     P=       85.79
   0.00068651  -0.00002845  -0.00000138          100.99       -4.18       -0.20
  -0.00002845   0.00066812  -0.00001223           -4.18       98.28       -1.80
  -0.00000138  -0.00001223   0.00039491           -0.20       -1.80       58.09


     Entering Dynamics:    iteration =    20
                           time      =   0.0041 pico-seconds


ATOMIC_POSITIONS (angstrom)
Hf            2.6712986794        2.8290705699        6.6040587174
Hf            1.2528924385        1.2882855264        5.0584212608
Hf            1.2553938009        7.3921264939        5.0881029701
Hf            4.0898764522        1.2883543707        5.0584019656
Hf            4.0869334256        7.3919480724        5.0881377273
Nb            2.6713430705        2.7987980744        3.5158196924
Nb            2.6711723207        5.8787649839        6.6346645642
Ta            1.2093598777        4.3431806923        5.0710728973
Ta            4.1050370016        4.2975735341        5.0711505742
Ta            1.3082284364        1.3159684449        2.0580845575
Ta            1.3037909478        1.3101652714        8.0952223665
Ta            1.3051158769        7.3784093522        2.0456023417
Ta            1.3087915709        7.3675964387        8.0866962622
Ta            4.0341944150        1.3159396355        2.0580568666
Ta            4.0386529578        1.3101550480        8.0952557402
Ta            4.0374074871        7.3784631924        2.0456190163
Ta            4.0337146813        7.3676534798        8.0866864515
Zr            2.6711655054        5.8688712314        3.5273101652
Zr            1.2422187470        4.3240926975        1.9974030568
Zr            1.2386859700        4.3563928853        8.1523760116
Zr            4.1001438129        4.3240623101        1.9974464500
Zr            4.1037285322        4.3563543921        8.1523285253
H             5.5897882231        6.5644888389        5.0700326587


     kinetic energy (Ekin) =           8.09165836 Ry
     temperature           =       38714.29725571 K 
     Ekin + Etot (const)   =       -2934.94757269 Ry
     Ions kinetic stress =          142.91 (kbar)
                                    133.16         198.11          -0.24
                                    198.11         295.43          -0.35
                                     -0.24          -0.35           0.14



     Linear momentum :    0.0000000000    0.0000000000   -0.0000000000

     The maximum number of steps has been reached.

     End of molecular dynamics calculation

     diffusion coefficients :
     atom     1   D =       0.00000002 cm^2/s
     atom     2   D =       0.00000002 cm^2/s
     atom     3   D =       0.00000002 cm^2/s
     atom     4   D =       0.00000005 cm^2/s
     atom     5   D =       0.00000004 cm^2/s
     atom     6   D =       0.00000002 cm^2/s
     atom     7   D =       0.00000003 cm^2/s
     atom     8   D =       0.00000002 cm^2/s
     atom     9   D =       0.00001039 cm^2/s
     atom    10   D =       0.00000002 cm^2/s
     atom    11   D =       0.00000002 cm^2/s
     atom    12   D =       0.00000003 cm^2/s
     atom    13   D =       0.00000003 cm^2/s
     atom    14   D =       0.00000002 cm^2/s
     atom    15   D =       0.00000002 cm^2/s
     atom    16   D =       0.00000004 cm^2/s
     atom    17   D =       0.00000004 cm^2/s
     atom    18   D =       0.00000003 cm^2/s
     atom    19   D =       0.00000006 cm^2/s
     atom    20   D =       0.00000006 cm^2/s
     atom    21   D =       0.00000011 cm^2/s
     atom    22   D =       0.00000012 cm^2/s
     atom    23   D =       0.00185925 cm^2/s

     < D > =       0.00008132 cm^2/s

     Writing all to output data dir outdir/pwscf.save/

     init_run     :      8.73s CPU     11.76s WALL (       1 calls)
     electrons    :   2317.07s CPU   2956.04s WALL (      20 calls)
     update_pot   :     19.64s CPU     20.50s WALL (      19 calls)
     forces       :    208.11s CPU    264.51s WALL (      20 calls)
     stress       :    386.89s CPU    428.66s WALL (      20 calls)

     Called by init_run:
     wfcinit      :      6.38s CPU      8.80s WALL (       1 calls)
     potinit      :      0.44s CPU      0.49s WALL (       1 calls)
     hinit0       :      0.94s CPU      1.08s WALL (       1 calls)

     Called by electrons:
     c_bands      :   1859.57s CPU   2389.76s WALL (     104 calls)
     sum_band     :    302.16s CPU    376.89s WALL (     104 calls)
     v_of_rho     :     10.76s CPU     12.88s WALL (     124 calls)
     newd         :    174.51s CPU    209.99s WALL (     124 calls)
     mix_rho      :      0.89s CPU      1.30s WALL (     104 calls)

     Called by c_bands:
     init_us_2    :      3.57s CPU      3.74s WALL (     498 calls)
     init_us_2:cp :      3.56s CPU      3.73s WALL (     498 calls)
     regterg      :   1845.20s CPU   2371.79s WALL (     208 calls)

     Called by *egterg:
     rdiaghg      :     66.20s CPU     85.02s WALL (    1590 calls)
     h_psi        :    930.72s CPU   1085.89s WALL (    1630 calls)
     s_psi        :    307.04s CPU    308.10s WALL (    1630 calls)
     g_psi        :      0.66s CPU      0.73s WALL (    1420 calls)

     Called by h_psi:
     h_psi:calbec :    453.71s CPU    566.82s WALL (    1630 calls)
     vloc_psi     :    106.69s CPU    146.95s WALL (    1630 calls)
     add_vuspsi   :    369.09s CPU    370.79s WALL (    1630 calls)

     General routines
     calbec       :    773.44s CPU    987.06s WALL (    2038 calls)
     fft          :     10.02s CPU     30.47s WALL (    2559 calls)
     ffts         :      0.23s CPU      0.31s WALL (     104 calls)
     fftw         :    114.98s CPU    159.95s WALL (  110218 calls)

     Parallel routines

     PWSCF        :  49m31.64s CPU      1h 1m WALL


   This run was terminated on:  15:12:39  13Jun2023            

=------------------------------------------------------------------------------=
   JOB DONE.
=------------------------------------------------------------------------------=
