
     Program PWSCF v.7.2 starts on 16Jun2023 at 17:43: 8 

     This program is part of the open-source Quantum ESPRESSO suite
     for quantum simulation of materials; please cite
         "P. Giannozzi et al., J. Phys.:Condens. Matter 21 395502 (2009);
         "P. Giannozzi et al., J. Phys.:Condens. Matter 29 465901 (2017);
         "P. Giannozzi et al., J. Chem. Phys. 152 154105 (2020);
          URL http://www.quantum-espresso.org", 
     in publications or presentations arising from this work. More details at
     http://www.quantum-espresso.org/quote

     Parallel version (MPI), running on    42 processors

     MPI processes distributed on     1 nodes
     172619 MiB available memory on the printing compute node when the environment starts

     Reading input from md_data/md_Hf5Nb2Ta10Zr5H_20steps_50eV_incident45_polar0.in
Warning: card &CELL ignored
Warning: card / ignored

     Current dimensions of program PWSCF are:
     Max number of different atomic species (ntypx) = 10
     Max number of k-points (npk) =  40000
     Max angular momentum in pseudopotentials (lmaxx) =  4

     File outdir/pwscf.md deleted, as requested

     gamma-point specific algorithms are used

     R & G space division:  proc/nbgrp/npool/nimage =      42
     Subspace diagonalization in iterative solution of the eigenvalue problem:
     one sub-group per band group will be used
     custom distributed-memory algorithm (size of sub-group:  2*  2 procs)


     Parallelization info
     --------------------
     sticks:   dense  smooth     PW     G-vecs:    dense   smooth      PW
     Min         262     262     63                23470    23470    2920
     Max         265     265     66                23484    23484    2942
     Sum       11057   11057   2753               986005   986005  123175

     Using Slab Decomposition



     bravais-lattice index     =            0
     lattice parameter (alat)  =      17.6500  a.u.
     unit-cell volume          =    5552.8853 (a.u.)^3
     number of atoms/cell      =           23
     number of atomic types    =            5
     number of electrons       =       277.00
     number of Kohn-Sham states=          167
     kinetic-energy cutoff     =     120.0000  Ry
     charge density cutoff     =     480.0000  Ry
     scf convergence threshold =      1.0E-03
     mixing beta               =       0.7000
     number of iterations used =            8  TF        mixing
     energy convergence thresh.=      0.0E+00
     force convergence thresh. =      0.0E+00
     Exchange-correlation=  SLA  PW   PBX  PBC
                           (   1   4   3   4   0   0   0)
     nstep                     =           20


     celldm(1)=  17.650041  celldm(2)=   0.000000  celldm(3)=   0.000000
     celldm(4)=   0.000000  celldm(5)=   0.000000  celldm(6)=   0.000000

     crystal axes: (cart. coord. in units of alat)
               a(1) = (   1.000000   0.000000   0.000000 )  
               a(2) = (   0.000000   0.929336   0.000000 )  
               a(3) = (   0.000000   0.000000   1.086698 )  

     reciprocal axes: (cart. coord. in units 2 pi/alat)
               b(1) = (  1.000000  0.000000  0.000000 )  
               b(2) = (  0.000000  1.076037  0.000000 )  
               b(3) = (  0.000000  0.000000  0.920219 )  


     PseudoPot. # 1 for Hf read from file:
     q-e/pseudo/hf_pbe_v1.uspp.F.UPF
     MD5 check sum: 8ee9378dfe14276e333edf04c5e4aa26
     Pseudo is Ultrasoft + core correction, Zval = 12.0
     Generated by new atomic code, or converted to UPF format
     Using radial grid of  921 points,  8 beta functions with: 
                l(1) =   0
                l(2) =   0
                l(3) =   0
                l(4) =   1
                l(5) =   1
                l(6) =   2
                l(7) =   2
                l(8) =   3
     Q(r) pseudized with  6 coefficients,  rinner =    1.200   1.200   1.200
                                                       1.200   1.200   1.200
                                                       1.200

     PseudoPot. # 2 for Nb read from file:
     q-e/pseudo/nb_pbe_v1.uspp.F.UPF
     MD5 check sum: 573aab8a2fa660278ed4a62cd769473f
     Pseudo is Ultrasoft + core correction, Zval = 13.0
     Generated by new atomic code, or converted to UPF format
     Using radial grid of  887 points,  6 beta functions with: 
                l(1) =   0
                l(2) =   0
                l(3) =   1
                l(4) =   1
                l(5) =   2
                l(6) =   2
     Q(r) pseudized with  6 coefficients,  rinner =    1.000   1.000   1.000
                                                       1.000   1.000

     PseudoPot. # 3 for Ta read from file:
     q-e/pseudo/ta_pbe_v1.uspp.F.UPF
     MD5 check sum: f8bbe9446314a3b8ea5d9f3e3836c939
     Pseudo is Ultrasoft + core correction, Zval = 13.0
     Generated by new atomic code, or converted to UPF format
     Using radial grid of  921 points,  7 beta functions with: 
                l(1) =   0
                l(2) =   0
                l(3) =   1
                l(4) =   1
                l(5) =   2
                l(6) =   2
                l(7) =   3
     Q(r) pseudized with  6 coefficients,  rinner =    1.300   1.300   1.300
                                                       1.300   1.300   1.300
                                                       1.300

     PseudoPot. # 4 for Zr read from file:
     q-e/pseudo/zr_pbe_v1.uspp.F.UPF
     MD5 check sum: 5db81b1e868ab7776c4564c113de050b
     Pseudo is Ultrasoft + core correction, Zval = 12.0
     Generated by new atomic code, or converted to UPF format
     Using radial grid of  887 points,  6 beta functions with: 
                l(1) =   0
                l(2) =   0
                l(3) =   1
                l(4) =   1
                l(5) =   2
                l(6) =   2
     Q(r) pseudized with  6 coefficients,  rinner =    1.200   1.200   1.200
                                                       1.200   1.200

     PseudoPot. # 5 for H  read from file:
     q-e/pseudo/h_pbe_v1.4.uspp.F.UPF
     MD5 check sum: 761ae9a214b05c3daf00ab9f6b793d6f
     Pseudo is Ultrasoft, Zval =  1.0
     Generated by new atomic code, or converted to UPF format
     Using radial grid of  615 points,  2 beta functions with: 
                l(1) =   0
                l(2) =   0
     Q(r) pseudized with  8 coefficients,  rinner =    0.700

     atomic species   valence    mass     pseudopotential
        Hf            12.00   178.49000     Hf( 1.00)
        Nb            13.00    92.90637     Nb( 1.00)
        Ta            13.00   180.94788     Ta( 1.00)
        Zr            12.00    91.22400     Zr( 1.00)
        H              1.00     2.01400     H ( 1.00)

     Starting magnetic structure 
     atomic species   magnetization
        Hf           0.000
        Nb           0.000
        Ta           0.000
        Zr           0.000
        H            0.000

     No symmetry found



   Cartesian axes

     site n.     atom                  positions (alat units)
         1           Hf  tau(   1) = (   0.2858672   0.3026898   0.7070626  )
         2           Hf  tau(   2) = (   0.1341532   0.1377178   0.5415917  )
         3           Hf  tau(   3) = (   0.1344204   0.7911996   0.5447610  )
         4           Hf  tau(   4) = (   0.4375813   0.1377178   0.5415917  )
         5           Hf  tau(   5) = (   0.4373140   0.7911996   0.5447610  )
         6           Nb  tau(   6) = (   0.2858672   0.2994572   0.3764008  )
         7           Nb  tau(   7) = (   0.2858672   0.6291626   0.7103852  )
         8           Ta  tau(   8) = (   0.1294832   0.4647675   0.5429471  )
         9           Ta  tau(   9) = (   0.4422513   0.4647675   0.5429471  )
        10           Ta  tau(  10) = (   0.1399628   0.1406984   0.2204260  )
        11           Ta  tau(  11) = (   0.1394848   0.1400847   0.8666573  )
        12           Ta  tau(  12) = (   0.1396156   0.7897030   0.2190832  )
        13           Ta  tau(  13) = (   0.1400119   0.7885528   0.8657390  )
        14           Ta  tau(  14) = (   0.4317717   0.1406984   0.2204260  )
        15           Ta  tau(  15) = (   0.4322496   0.1400847   0.8666573  )
        16           Ta  tau(  16) = (   0.4321189   0.7897030   0.2190832  )
        17           Ta  tau(  17) = (   0.4317226   0.7885528   0.8657390  )
        18           Zr  tau(  18) = (   0.2858672   0.6280820   0.3776642  )
        19           Zr  tau(  19) = (   0.1331729   0.4627493   0.2141328  )
        20           Zr  tau(  20) = (   0.1328036   0.4661802   0.8725649  )
        21           Zr  tau(  21) = (   0.4385616   0.4627493   0.2141328  )
        22           Zr  tau(  22) = (   0.4389309   0.4661802   0.8725649  )
        23           H   tau(  23) = (   0.5936660   0.6160828   0.5430600  )

     number of k points=     1  Gaussian smearing, width (Ry)=  0.0220
                       cart. coord. in units 2pi/alat
        k(    1) = (   0.0000000   0.0000000   0.0000000), wk =   1.0000000

     Dense  grid:   493003 G-vectors     FFT dimensions: ( 125, 120, 135)

     Estimated max dynamical RAM per process >     133.03 MB

     Estimated total dynamical RAM >       5.46 GB

     Check: negative core charge=   -0.000002
     Generating pointlists ...
     new r_m :   0.0968 (alat units)  1.7092 (a.u.) for type    1
     new r_m :   0.1098 (alat units)  1.9374 (a.u.) for type    2
     new r_m :   0.0883 (alat units)  1.5585 (a.u.) for type    3
     new r_m :   0.1112 (alat units)  1.9625 (a.u.) for type    4
     new r_m :   0.0883 (alat units)  1.5585 (a.u.) for type    5

     Initial potential from superposition of free atoms

     starting charge     266.9726, renormalised to     277.0000

     negative rho (up, down):  9.216E-01 9.216E-01
     Starting wfcs are  287 randomized atomic wfcs

     total cpu time spent up to now is       26.0 secs

     Self-consistent Calculation

     iteration #  1     ecut=   120.00 Ry     beta= 0.70
     Davidson diagonalization with overlap
     ethr =  1.00E-02,  avg # of iterations =  2.0

     negative rho (up, down):  9.938E-01 9.935E-01

     total cpu time spent up to now is       68.5 secs

     total energy              =   -2930.56111347 Ry
     estimated scf accuracy    <     277.02592252 Ry

     total magnetization       =    -0.00 Bohr mag/cell
     absolute magnetization    =     0.09 Bohr mag/cell

     iteration #  2     ecut=   120.00 Ry     beta= 0.70
     Davidson diagonalization with overlap
     ethr =  1.00E-02,  avg # of iterations =  5.0

     negative rho (up, down):  9.682E-01 9.687E-01

     total cpu time spent up to now is       96.9 secs

     total energy              =   -2942.33072069 Ry
     estimated scf accuracy    <      29.60319328 Ry

     total magnetization       =    -0.02 Bohr mag/cell
     absolute magnetization    =     0.16 Bohr mag/cell

     iteration #  3     ecut=   120.00 Ry     beta= 0.70
     Davidson diagonalization with overlap
     ethr =  1.00E-02,  avg # of iterations =  2.0

     negative rho (up, down):  1.004E+00 1.007E+00

     total cpu time spent up to now is      116.2 secs

     total energy              =   -2942.67303909 Ry
     estimated scf accuracy    <      13.17507130 Ry

     total magnetization       =    -0.05 Bohr mag/cell
     absolute magnetization    =     0.19 Bohr mag/cell

     iteration #  4     ecut=   120.00 Ry     beta= 0.70
     Davidson diagonalization with overlap
     ethr =  4.76E-03,  avg # of iterations =  3.0

     negative rho (up, down):  1.011E+00 1.014E+00

     total cpu time spent up to now is      134.5 secs

     total energy              =   -2942.93942832 Ry
     estimated scf accuracy    <       3.18723028 Ry

     total magnetization       =    -0.03 Bohr mag/cell
     absolute magnetization    =     0.21 Bohr mag/cell

     iteration #  5     ecut=   120.00 Ry     beta= 0.70
     Davidson diagonalization with overlap
     ethr =  1.15E-03,  avg # of iterations =  7.5

     negative rho (up, down):  9.839E-01 9.861E-01

     total cpu time spent up to now is      158.7 secs

     total energy              =   -2943.08058259 Ry
     estimated scf accuracy    <       1.58875459 Ry

     total magnetization       =     0.03 Bohr mag/cell
     absolute magnetization    =     0.17 Bohr mag/cell

     iteration #  6     ecut=   120.00 Ry     beta= 0.70
     Davidson diagonalization with overlap
     ethr =  5.74E-04,  avg # of iterations =  2.0

     negative rho (up, down):  9.721E-01 9.734E-01

     total cpu time spent up to now is      192.9 secs

     total energy              =   -2943.13543470 Ry
     estimated scf accuracy    <       1.24051617 Ry

     total magnetization       =     0.02 Bohr mag/cell
     absolute magnetization    =     0.12 Bohr mag/cell

     iteration #  7     ecut=   120.00 Ry     beta= 0.70
     Davidson diagonalization with overlap
     ethr =  4.48E-04,  avg # of iterations =  1.0

     negative rho (up, down):  9.483E-01 9.488E-01

     total cpu time spent up to now is      227.4 secs

     total energy              =   -2943.07759140 Ry
     estimated scf accuracy    <       0.47131810 Ry

     total magnetization       =     0.05 Bohr mag/cell
     absolute magnetization    =     0.12 Bohr mag/cell

     iteration #  8     ecut=   120.00 Ry     beta= 0.70
     Davidson diagonalization with overlap
     ethr =  1.70E-04,  avg # of iterations =  4.5

     negative rho (up, down):  9.205E-01 9.205E-01

     total cpu time spent up to now is      252.8 secs

     total energy              =   -2943.08313054 Ry
     estimated scf accuracy    <       0.20969307 Ry

     total magnetization       =     0.06 Bohr mag/cell
     absolute magnetization    =     0.10 Bohr mag/cell

     iteration #  9     ecut=   120.00 Ry     beta= 0.70
     Davidson diagonalization with overlap
     ethr =  7.57E-05,  avg # of iterations = 15.5

     negative rho (up, down):  9.080E-01 9.078E-01

     total cpu time spent up to now is      272.7 secs

     total energy              =   -2943.07832960 Ry
     estimated scf accuracy    <       0.06148577 Ry

     total magnetization       =     0.07 Bohr mag/cell
     absolute magnetization    =     0.09 Bohr mag/cell

     iteration # 10     ecut=   120.00 Ry     beta= 0.70
     Davidson diagonalization with overlap
     ethr =  2.22E-05,  avg # of iterations =  9.5

     negative rho (up, down):  9.083E-01 9.083E-01

     total cpu time spent up to now is      294.1 secs

     total energy              =   -2943.08343884 Ry
     estimated scf accuracy    <       0.03074837 Ry

     total magnetization       =     0.07 Bohr mag/cell
     absolute magnetization    =     0.10 Bohr mag/cell

     iteration # 11     ecut=   120.00 Ry     beta= 0.70
     Davidson diagonalization with overlap
     ethr =  1.11E-05,  avg # of iterations =  3.5

     negative rho (up, down):  9.091E-01 9.091E-01

     total cpu time spent up to now is      312.5 secs

     total energy              =   -2943.08676667 Ry
     estimated scf accuracy    <       0.01022773 Ry

     total magnetization       =     0.08 Bohr mag/cell
     absolute magnetization    =     0.09 Bohr mag/cell

     iteration # 12     ecut=   120.00 Ry     beta= 0.70
     Davidson diagonalization with overlap
     c_bands:  1 eigenvalues not converged
     ethr =  3.69E-06,  avg # of iterations = 15.5

     negative rho (up, down):  9.093E-01 9.093E-01

     total cpu time spent up to now is      346.1 secs

     total energy              =   -2943.08961330 Ry
     estimated scf accuracy    <       0.00159224 Ry

     total magnetization       =     0.07 Bohr mag/cell
     absolute magnetization    =     0.09 Bohr mag/cell

     iteration # 13     ecut=   120.00 Ry     beta= 0.70
     Davidson diagonalization with overlap
     ethr =  5.75E-07,  avg # of iterations =  6.5

     negative rho (up, down):  9.090E-01 9.090E-01

     Magnetic moment per site  (integrated on atomic sphere of radius R)
     atom   1 (R=0.097)  charge=  8.3327   -0.0001
     atom   2 (R=0.097)  charge=  8.1125   -0.0001
     atom   3 (R=0.097)  charge=  8.1123   -0.0001
     atom   4 (R=0.097)  charge=  8.1124   -0.0002
     atom   5 (R=0.097)  charge=  8.1074    0.0001
     atom   6 (R=0.110)  charge= 10.3474   -0.0004
     atom   7 (R=0.110)  charge= 10.3482    0.0002
     atom   8 (R=0.088)  charge=  8.1231    0.0000
     atom   9 (R=0.088)  charge=  8.1179   -0.0002
     atom  10 (R=0.088)  charge=  8.1039    0.0010
     atom  11 (R=0.088)  charge=  8.1000    0.0008
     atom  12 (R=0.088)  charge=  8.1032    0.0028
     atom  13 (R=0.088)  charge=  8.1021    0.0007
     atom  14 (R=0.088)  charge=  8.1029    0.0012
     atom  15 (R=0.088)  charge=  8.0982    0.0010
     atom  16 (R=0.088)  charge=  8.1045    0.0031
     atom  17 (R=0.088)  charge=  8.1049    0.0009
     atom  18 (R=0.111)  charge=  9.4538   -0.0001
     atom  19 (R=0.111)  charge=  9.0030    0.0023
     atom  20 (R=0.111)  charge=  8.9951    0.0010
     atom  21 (R=0.111)  charge=  9.0078    0.0026
     atom  22 (R=0.111)  charge=  8.9962    0.0011
     atom  23 (R=0.088)  charge=  1.0488    0.0002

     total cpu time spent up to now is      389.0 secs

     End of self-consistent calculation

 ------ SPIN UP ------------


          k = 0.0000 0.0000 0.0000 ( 61588 PWs)   bands (ev):

   -60.7887 -60.7833 -60.7437 -60.7368 -60.7122 -60.6991 -60.6685 -60.6553
   -60.5545 -60.4369 -54.3651 -54.2936 -54.2368 -54.1587 -52.7120 -46.2771
   -46.2627 -41.6668 -41.6374 -41.5659 -41.5533 -39.8147 -27.7914 -27.7809
   -27.7075 -27.6921 -27.6057 -27.5983 -27.4764 -27.4682 -27.4076 -27.3396
   -27.3183 -27.2755 -27.2657 -27.2467 -27.2299 -27.1868 -27.1715 -27.1580
   -27.1208 -27.0807 -27.0366 -26.9756 -26.9644 -26.9631 -26.9523 -26.9404
   -26.8956 -26.8907 -26.8662 -26.8577 -24.1518 -23.9275 -23.6468 -23.5338
   -23.3006 -23.1681 -23.1277 -23.0380 -22.9160 -22.8220 -22.7993 -22.5675
   -22.5161 -22.4591 -22.3945 -22.3474 -22.2740 -22.2260 -21.7633 -21.7020
   -21.6406 -20.2257 -19.9441 -19.8780 -19.8626 -19.6314 -19.6144 -19.6107
   -19.5973 -19.5830 -19.5455 -19.4055 -19.3737 -18.1598 -17.9671 -17.8287
     1.3934   2.7079   2.9231   3.1336   3.3243   3.4508   3.5303   3.6602
     3.6892   3.8697   3.9057   4.0652   4.1641   4.4949   4.5744   4.6946
     4.7591   4.8333   5.0222   5.0954   5.1671   5.2558   5.2769   5.3588
     5.4047   5.5463   5.6061   5.7209   5.7259   5.7419   5.7544   5.8314
     5.9551   6.0781   6.1837   6.1972   6.2366   6.2787   6.3563   6.4039
     6.4472   6.5898   6.6479   6.7154   6.8020   6.9688   6.9983   7.0623
     7.0937   7.1514   7.2356   7.2630   7.3145   7.4293   7.5472   7.5551
     7.6102   7.7615   7.8884   7.8954   8.0764   8.0948   8.1047   8.2015
     8.2405   8.2536   8.3473   8.3723   8.4292   8.5488   8.6498   8.6621
     8.8507   8.8923   8.9899   9.0721   9.1332   9.2193   9.2687

 ------ SPIN DOWN ----------


          k = 0.0000 0.0000 0.0000 ( 61588 PWs)   bands (ev):

   -60.7868 -60.7825 -60.7418 -60.7360 -60.7096 -60.6983 -60.6659 -60.6544
   -60.5545 -60.4372 -54.3652 -54.2938 -54.2370 -54.1588 -52.7122 -46.2770
   -46.2636 -41.6645 -41.6365 -41.5636 -41.5523 -39.8150 -27.7884 -27.7795
   -27.7042 -27.6909 -27.6040 -27.5962 -27.4738 -27.4657 -27.4075 -27.3380
   -27.3173 -27.2733 -27.2648 -27.2450 -27.2281 -27.1857 -27.1690 -27.1571
   -27.1206 -27.0807 -27.0367 -26.9750 -26.9621 -26.9618 -26.9502 -26.9385
   -26.8924 -26.8892 -26.8628 -26.8566 -24.1522 -23.9280 -23.6468 -23.5339
   -23.3009 -23.1683 -23.1278 -23.0381 -22.9163 -22.8223 -22.7995 -22.5677
   -22.5164 -22.4597 -22.3945 -22.3475 -22.2743 -22.2264 -21.7633 -21.7021
   -21.6408 -20.2236 -19.9431 -19.8757 -19.8606 -19.6285 -19.6124 -19.6097
   -19.5960 -19.5816 -19.5443 -19.4025 -19.3725 -18.1601 -17.9673 -17.8286
     1.3943   2.7084   2.9258   3.1341   3.3252   3.4535   3.5309   3.6607
     3.6896   3.8702   3.9087   4.0660   4.1656   4.4954   4.5756   4.6967
     4.7604   4.8345   5.0239   5.0972   5.1683   5.2576   5.2783   5.3614
     5.4067   5.5473   5.6069   5.7230   5.7271   5.7425   5.7556   5.8327
     5.9560   6.0806   6.1854   6.1990   6.2380   6.2798   6.3575   6.4060
     6.4493   6.5912   6.6496   6.7173   6.8038   6.9707   7.0031   7.0659
     7.1015   7.1543   7.2439   7.2678   7.3166   7.4356   7.5500   7.5591
     7.6134   7.7647   7.8902   7.8971   8.0803   8.0977   8.1072   8.2065
     8.2435   8.2553   8.3518   8.3747   8.4312   8.5517   8.6516   8.6642
     8.8522   8.8980   8.9927   9.0741   9.1348   9.2198   9.2751

     the Fermi energy is     7.2316 ev

!    total energy              =   -2943.09064948 Ry
     estimated scf accuracy    <       0.00063901 Ry
     smearing contrib. (-TS)   =      -0.10119360 Ry
     internal energy E=F+TS    =   -2942.98945588 Ry

     total magnetization       =     0.07 Bohr mag/cell
     absolute magnetization    =     0.08 Bohr mag/cell

     convergence has been achieved in  13 iterations

     negative rho (up, down):  9.090E-01 9.090E-01

     Forces acting on atoms (cartesian axes, Ry/au):

     atom    1 type  1   force =    -0.00731462   -0.02477862    0.00900753
     atom    2 type  1   force =    -0.11803188   -0.01812975   -0.00536317
     atom    3 type  1   force =    -0.11912702    0.01422626    0.00208946
     atom    4 type  1   force =     0.12029991   -0.00448796   -0.00467567
     atom    5 type  1   force =     0.13805363   -0.02175663    0.00572793
     atom    6 type  2   force =    -0.00573434   -0.01452411    0.01018394
     atom    7 type  2   force =    -0.01234096    0.00930175   -0.01179795
     atom    8 type  3   force =    -0.10931281    0.00412326   -0.00561238
     atom    9 type  3   force =     0.14916861    0.03544203   -0.00523843
     atom   10 type  3   force =    -0.02184395   -0.02812376   -0.05930831
     atom   11 type  3   force =    -0.02040403   -0.03365938    0.05695947
     atom   12 type  3   force =    -0.01464599    0.03577817   -0.05606974
     atom   13 type  3   force =    -0.01647771    0.02977014    0.06311910
     atom   14 type  3   force =     0.01977063   -0.03174454   -0.06312082
     atom   15 type  3   force =     0.01950037   -0.03830779    0.06128637
     atom   16 type  3   force =     0.01605754    0.04334854   -0.05698493
     atom   17 type  3   force =     0.01630825    0.03681722    0.06287150
     atom   18 type  4   force =    -0.01134130    0.01596516   -0.00787136
     atom   19 type  4   force =    -0.12641465   -0.00635478   -0.11666879
     atom   20 type  4   force =    -0.13254107    0.00496709    0.11945619
     atom   21 type  4   force =     0.12126333   -0.01065546   -0.11853206
     atom   22 type  4   force =     0.12938819    0.00201570    0.12060463
     atom   23 type  5   force =    -0.01428012    0.00076744   -0.00006251
     The non-local contrib.  to forces
     atom    1 type  1   force =    -0.00114573   -0.00811112    0.02566232
     atom    2 type  1   force =    -0.25127762   -0.15876262    0.01503258
     atom    3 type  1   force =    -0.23842726    0.15354502   -0.02735539
     atom    4 type  1   force =     0.24686616   -0.16825675    0.01597053
     atom    5 type  1   force =     0.19141266    0.17984867   -0.02584052
     atom    6 type  2   force =     0.00686395   -0.05024765   -0.07213927
     atom    7 type  2   force =    -0.01533901    0.06709007    0.06134825
     atom    8 type  3   force =    -0.25609260    0.00496418   -0.00582148
     atom    9 type  3   force =     0.16215169   -0.05666268   -0.01320527
     atom   10 type  3   force =    -0.21165891    0.00485041   -0.20896585
     atom   11 type  3   force =    -0.21748568    0.00443274    0.19956156
     atom   12 type  3   force =    -0.20604877   -0.02119171   -0.17743585
     atom   13 type  3   force =    -0.21407962   -0.00496321    0.20856127
     atom   14 type  3   force =     0.20552418    0.00157132   -0.21754545
     atom   15 type  3   force =     0.21525059    0.00439802    0.20434096
     atom   16 type  3   force =     0.22182834   -0.02753908   -0.17223976
     atom   17 type  3   force =     0.22668406   -0.01265826    0.20214847
     atom   18 type  4   force =    -0.01605804    0.05708611   -0.06550133
     atom   19 type  4   force =     0.06359413    0.00633701    0.07019193
     atom   20 type  4   force =     0.05810257   -0.01617458   -0.06650593
     atom   21 type  4   force =    -0.06379999    0.00732659    0.06761037
     atom   22 type  4   force =    -0.05780245   -0.01506421   -0.05893985
     atom   23 type  5   force =    -0.04014066   -0.00961666   -0.00014720
     The ionic contribution  to forces
     atom    1 type  1   force =    -0.16178871   -4.69643324   14.07011968
     atom    2 type  1   force =   -39.68882424   -6.10399168    0.77974368
     atom    3 type  1   force =   -39.70779304    6.20258383   -0.71315904
     atom    4 type  1   force =    39.51983818   -6.07984449    0.77898964
     atom    5 type  1   force =    38.74239248    7.06798957   -0.70461503
     atom    6 type  2   force =    -0.17160145   -3.65949816  -13.97156808
     atom    7 type  2   force =    -0.47198994    3.57823273   14.17875905
     atom    8 type  3   force =   -52.15499667   -0.03156359   -0.06497207
     atom    9 type  3   force =    50.83449909   -1.14717852   -0.06581307
     atom   10 type  3   force =   -36.06105034   -2.07573419  -23.09842174
     atom   11 type  3   force =   -35.13516352   -0.82859220   22.10269885
     atom   12 type  3   force =   -35.26300098    0.83881144  -22.19111917
     atom   13 type  3   force =   -36.05352563    2.22284118   23.12090745
     atom   14 type  3   force =    35.96225716   -2.06989794  -23.15965208
     atom   15 type  3   force =    35.03701111   -0.82244395   22.16390756
     atom   16 type  3   force =    35.04710887    0.95408897  -22.40816719
     atom   17 type  3   force =    35.83458498    2.33905973   23.34036686
     atom   18 type  4   force =    -0.43990509    4.35047234  -14.08846989
     atom   19 type  4   force =   -35.91045495    0.90966618  -25.58339251
     atom   20 type  4   force =   -35.89348593   -1.00030003   25.56187226
     atom   21 type  4   force =    35.71263543    0.80662709  -25.80391037
     atom   22 type  4   force =    35.69485177   -1.10228505   25.78518089
     atom   23 type  5   force =     4.72840141    0.34738998   -0.02928570
     The local contribution  to forces
     atom    1 type  1   force =     0.15668159    4.67888436  -14.08916958
     atom    2 type  1   force =    39.83948452    6.24210507   -0.80915319
     atom    3 type  1   force =    39.84501479   -6.33948361    0.73910899
     atom    4 type  1   force =   -39.66302453    6.24442479   -0.80891410
     atom    5 type  1   force =   -38.80236819   -7.27892713    0.73578702
     atom    6 type  2   force =     0.16299499    3.70265796   14.02546874
     atom    7 type  2   force =     0.47981147   -3.63196420  -14.25091127
     atom    8 type  3   force =    52.32964719    0.02878481    0.05220858
     atom    9 type  3   force =   -50.85919106    1.24829625    0.05940402
     atom   10 type  3   force =    36.27345249    2.04285416   23.26076275
     atom   11 type  3   force =    35.35797588    0.78275393  -22.25837901
     atom   12 type  3   force =    35.47543422   -0.77325676   22.32088834
     atom   13 type  3   force =    36.27782223   -2.18069903  -23.27737735
     atom   14 type  3   force =   -36.16947753    2.03838519   23.32696793
     atom   15 type  3   force =   -35.25729334    0.76582944  -22.31915878
     atom   16 type  3   force =   -35.27508625   -0.87555825   22.53028015
     atom   17 type  3   force =   -36.06704162   -2.28385658  -23.49042768
     atom   18 type  4   force =     0.44708285   -4.40259405   14.12506331
     atom   19 type  4   force =    35.73633054   -0.92766508   25.40185520
     atom   20 type  4   force =    35.70840026    1.02123175  -25.37911020
     atom   21 type  4   force =   -35.54093076   -0.83033666   25.62550422
     atom   22 type  4   force =   -35.51127824    1.12331709  -25.60927618
     atom   23 type  5   force =    -4.70272617   -0.33807073    0.02795273
     The core correction contribution to forces
     atom    1 type  1   force =    -0.00024597    0.00210814   -0.00190525
     atom    2 type  1   force =    -0.01134461   -0.00102408    0.00083384
     atom    3 type  1   force =    -0.01144342    0.00268175   -0.00143162
     atom    4 type  1   force =     0.01144490   -0.00265180    0.00084479
     atom    5 type  1   force =     0.00154693    0.01154769   -0.00157313
     atom    6 type  2   force =    -0.00034708    0.00247204    0.00300716
     atom    7 type  2   force =     0.00058010   -0.00335956   -0.00241166
     atom    8 type  3   force =    -0.03071749    0.00052914   -0.00059758
     atom    9 type  3   force =     0.01705216   -0.01059790   -0.00142107
     atom   10 type  3   force =    -0.02241249    0.00896867   -0.01727995
     atom   11 type  3   force =    -0.02445345    0.00897273    0.01794513
     atom   12 type  3   force =    -0.02255702   -0.01023168   -0.01515287
     atom   13 type  3   force =    -0.02290454   -0.00936114    0.01653129
     atom   14 type  3   force =     0.02174145    0.00952517   -0.01674968
     atom   15 type  3   force =     0.02314783    0.01019732    0.01715599
     atom   16 type  3   force =     0.02426383   -0.01122849   -0.01373075
     atom   17 type  3   force =     0.02359267   -0.00995578    0.01514270
     atom   18 type  4   force =     0.00084981   -0.00327440    0.00308155
     atom   19 type  4   force =    -0.00988907    0.00015584   -0.00946178
     atom   20 type  4   force =    -0.00977363    0.00050439    0.00938167
     atom   21 type  4   force =     0.01006388    0.00028355   -0.00912385
     atom   22 type  4   force =     0.00986534    0.00057032    0.00876038
     atom   23 type  5   force =     0.00000000    0.00000000    0.00000000
     The Hubbard contrib.    to forces
     atom    1 type  1   force =     0.00000000    0.00000000    0.00000000
     atom    2 type  1   force =     0.00000000    0.00000000    0.00000000
     atom    3 type  1   force =     0.00000000    0.00000000    0.00000000
     atom    4 type  1   force =     0.00000000    0.00000000    0.00000000
     atom    5 type  1   force =     0.00000000    0.00000000    0.00000000
     atom    6 type  2   force =     0.00000000    0.00000000    0.00000000
     atom    7 type  2   force =     0.00000000    0.00000000    0.00000000
     atom    8 type  3   force =     0.00000000    0.00000000    0.00000000
     atom    9 type  3   force =     0.00000000    0.00000000    0.00000000
     atom   10 type  3   force =     0.00000000    0.00000000    0.00000000
     atom   11 type  3   force =     0.00000000    0.00000000    0.00000000
     atom   12 type  3   force =     0.00000000    0.00000000    0.00000000
     atom   13 type  3   force =     0.00000000    0.00000000    0.00000000
     atom   14 type  3   force =     0.00000000    0.00000000    0.00000000
     atom   15 type  3   force =     0.00000000    0.00000000    0.00000000
     atom   16 type  3   force =     0.00000000    0.00000000    0.00000000
     atom   17 type  3   force =     0.00000000    0.00000000    0.00000000
     atom   18 type  4   force =     0.00000000    0.00000000    0.00000000
     atom   19 type  4   force =     0.00000000    0.00000000    0.00000000
     atom   20 type  4   force =     0.00000000    0.00000000    0.00000000
     atom   21 type  4   force =     0.00000000    0.00000000    0.00000000
     atom   22 type  4   force =     0.00000000    0.00000000    0.00000000
     atom   23 type  5   force =     0.00000000    0.00000000    0.00000000
     The SCF correction term to forces
     atom    1 type  1   force =    -0.00061799   -0.00128293    0.00357459
     atom    2 type  1   force =    -0.00587212    0.00348740    0.00745416
     atom    3 type  1   force =    -0.00628028   -0.00515689    0.00420075
     atom    4 type  1   force =     0.00537300    0.00178412    0.00770769
     atom    5 type  1   force =     0.00526756   -0.00227160    0.00124383
     atom    6 type  2   force =    -0.00344694   -0.00996447    0.02468961
     atom    7 type  2   force =    -0.00520577   -0.00075345    0.00069192
     atom    8 type  3   force =     0.00304457    0.00135254    0.01284442
     atom    9 type  3   force =    -0.00514547    0.00152872    0.01507121
     atom   10 type  3   force =     0.00002310   -0.00911897    0.00387071
     atom   11 type  3   force =    -0.00107944   -0.00128275   -0.00559283
     atom   12 type  3   force =     0.00172436    0.00159071    0.00602405
     atom   13 type  3   force =    -0.00359234    0.00189616   -0.00622933
     atom   14 type  3   force =    -0.00007682   -0.01138445    0.00313269
     atom   15 type  3   force =     0.00158200    0.00365522   -0.00568512
     atom   16 type  3   force =    -0.00185945    0.00352921    0.00614685
     atom   17 type  3   force =    -0.00131404    0.00417194   -0.00508462
     atom   18 type  4   force =    -0.00311303    0.01421899    0.01722924
     atom   19 type  4   force =    -0.00579749    0.00509511    0.00341261
     atom   20 type  4   force =     0.00441346   -0.00035062   -0.00690739
     atom   21 type  4   force =     0.00349258    0.00538780    0.00066180
     atom   22 type  4   force =    -0.00605043   -0.00457863   -0.00584638
     atom   23 type  5   force =     0.00038310    0.00100868    0.00069189

     Total force =     0.513206     Total SCF correction =     0.052967
     SCF correction compared to forces is large: reduce conv_thr to get better values


     Computing stress (Cartesian axis) and pressure


     negative rho (up, down):  9.090E-01 9.090E-01
          total   stress  (Ry/bohr**3)                   (kbar)     P=       84.17
   0.00066478   0.00000473   0.00000048           97.79        0.70        0.07
   0.00000473   0.00064669  -0.00001312            0.70       95.13       -1.93
   0.00000048  -0.00001312   0.00040512            0.07       -1.93       59.60


     Molecular Dynamics Calculation

     Starting temperature  =   300.00 K

     temperature is set once at start

     mass Hf               =   178.49
     mass Nb               =    92.91
     mass Ta               =   180.95
     mass Zr               =    91.22
     mass H                =     2.01
     Time step             =     4.20 a.u.,  0.2032 femto-seconds

     Entering Dynamics:    iteration =     1
                           time      =   0.0002 pico-seconds


ATOMIC_POSITIONS (angstrom)
Hf            2.6700625983        2.8271851694        6.6039644770
Hf            1.2530501450        1.2863465124        5.0584660722
Hf            1.2555463320        7.3898675541        5.0880678273
Hf            4.0870755363        1.2863469038        5.0584660920
Hf            4.0845798272        7.3898665217        5.0880679317
Nb            2.6700624921        2.7969926561        3.5155837780
Nb            2.6700621279        5.8764420401        6.6349972929
Ta            1.2094328136        4.3409908194        5.0711256735
Ta            4.1306939306        4.3409917057        5.0711256841
Ta            1.3073149171        1.3141846446        2.0587774317
Ta            1.3028505879        1.3084530346        8.0945808144
Ta            1.3040720588        7.3758899878        2.0462355930
Ta            1.3077731832        7.3651466420        8.0860040071
Ta            4.0328106405        1.3141845422        2.0587773238
Ta            4.0372750028        1.3084529030        8.0945809368
Ta            4.0360535975        7.3758902020        2.0462355671
Ta            4.0323524283        7.3651468415        8.0860040001
Zr            2.6700621715        5.8663495907        3.5273834885
Zr            1.2438903739        4.3221404589        1.9999934508
Zr            1.2404408237        4.3541864145        8.1497622549
Zr            4.0962349532        4.3221402175        1.9999933463
Zr            4.0996846156        4.3541862488        8.1497623194
H             5.4404518322        5.6498631844        5.0721796359


     kinetic energy (Ekin) =           4.04905897 Ry
     temperature           =       19372.60144887 K 
     Ekin + Etot (const)   =       -2939.04159051 Ry
     Ions kinetic stress =           71.51 (kbar)
                                    107.27         107.27           0.00
                                    107.27         107.27           0.00
                                      0.00           0.00           0.00



     Linear momentum :   -0.0000000000   -0.0000000000    0.0000000000

     File outdir/pwscf.msd.dat deleted, as requested

     Writing config-only to output data dir outdir/pwscf.save/
     NEW-OLD atomic charge density approx. for the potential

     Check: negative core charge=   -0.000002

     negative rho (up, down):  9.089E-01 9.089E-01
     Generating pointlists ...
     new r_m :   0.0818 (alat units)  1.4434 (a.u.) for type    3
     new r_m :   0.0818 (alat units)  1.4434 (a.u.) for type    5

     total cpu time spent up to now is      425.5 secs

     Self-consistent Calculation

     iteration #  1     ecut=   120.00 Ry     beta= 0.70
     Davidson diagonalization with overlap
     ethr =  1.00E-06,  avg # of iterations =  9.5

     negative rho (up, down):  9.090E-01 9.090E-01

     total cpu time spent up to now is      460.6 secs

     total energy              =   -2943.08227421 Ry
     estimated scf accuracy    <       0.06940450 Ry

     total magnetization       =     0.07 Bohr mag/cell
     absolute magnetization    =     0.08 Bohr mag/cell

     iteration #  2     ecut=   120.00 Ry     beta= 0.70
     Davidson diagonalization with overlap
     ethr =  2.51E-05,  avg # of iterations =  2.0

     negative rho (up, down):  9.090E-01 9.090E-01

     total cpu time spent up to now is      478.8 secs

     total energy              =   -2943.08724384 Ry
     estimated scf accuracy    <       0.03331814 Ry

     total magnetization       =     0.07 Bohr mag/cell
     absolute magnetization    =     0.07 Bohr mag/cell

     iteration #  3     ecut=   120.00 Ry     beta= 0.70
     Davidson diagonalization with overlap
     ethr =  1.20E-05,  avg # of iterations =  1.5

     negative rho (up, down):  9.090E-01 9.090E-01

     total cpu time spent up to now is      508.9 secs

     total energy              =   -2943.08909621 Ry
     estimated scf accuracy    <       0.00171066 Ry

     total magnetization       =     0.07 Bohr mag/cell
     absolute magnetization    =     0.07 Bohr mag/cell

     iteration #  4     ecut=   120.00 Ry     beta= 0.70
     Davidson diagonalization with overlap
     ethr =  6.18E-07,  avg # of iterations =  2.0

     negative rho (up, down):  9.090E-01 9.090E-01

     Magnetic moment per site  (integrated on atomic sphere of radius R)
     atom   1 (R=0.097)  charge=  8.3337   -0.0000
     atom   2 (R=0.097)  charge=  8.1118   -0.0000
     atom   3 (R=0.097)  charge=  8.1122    0.0001
     atom   4 (R=0.097)  charge=  8.1127   -0.0000
     atom   5 (R=0.097)  charge=  8.1071    0.0002
     atom   6 (R=0.110)  charge= 10.3507    0.0000
     atom   7 (R=0.110)  charge= 10.3485    0.0002
     atom   8 (R=0.082)  charge=  7.4347   -0.0000
     atom   9 (R=0.082)  charge=  7.4351    0.0001
     atom  10 (R=0.082)  charge=  7.4157    0.0006
     atom  11 (R=0.082)  charge=  7.4156    0.0007
     atom  12 (R=0.082)  charge=  7.4173    0.0017
     atom  13 (R=0.082)  charge=  7.4171    0.0006
     atom  14 (R=0.082)  charge=  7.4162    0.0007
     atom  15 (R=0.082)  charge=  7.4164    0.0007
     atom  16 (R=0.082)  charge=  7.4196    0.0020
     atom  17 (R=0.082)  charge=  7.4170    0.0009
     atom  18 (R=0.111)  charge=  9.4559   -0.0001
     atom  19 (R=0.111)  charge=  8.9917    0.0020
     atom  20 (R=0.111)  charge=  8.9966    0.0008
     atom  21 (R=0.111)  charge=  8.9946    0.0023
     atom  22 (R=0.111)  charge=  8.9986    0.0012
     atom  23 (R=0.082)  charge=  0.9987    0.0001

     total cpu time spent up to now is      547.7 secs

     End of self-consistent calculation

 ------ SPIN UP ------------


          k = 0.0000 0.0000 0.0000 ( 61588 PWs)   bands (ev):

   -60.7690 -60.7640 -60.7241 -60.7192 -60.6941 -60.6857 -60.6503 -60.6417
   -60.5393 -60.3369 -54.3461 -54.2786 -54.2214 -54.1546 -52.6986 -46.2624
   -46.2594 -41.6308 -41.6274 -41.5432 -41.5301 -39.8174 -27.7737 -27.7654
   -27.6896 -27.6771 -27.5858 -27.5780 -27.4612 -27.4523 -27.3783 -27.3211
   -27.2977 -27.2564 -27.2486 -27.2300 -27.2150 -27.1713 -27.1550 -27.1422
   -27.1043 -27.0095 -26.9678 -26.9483 -26.9427 -26.9368 -26.9319 -26.8959
   -26.8772 -26.8736 -26.8481 -26.8434 -24.1372 -23.9133 -23.6351 -23.5233
   -23.2844 -23.1510 -23.1193 -23.0254 -22.9015 -22.8095 -22.7935 -22.5619
   -22.5056 -22.4514 -22.3822 -22.3369 -22.2620 -22.2144 -21.7500 -21.6870
   -21.6288 -20.1943 -19.9345 -19.8404 -19.8328 -19.6029 -19.5958 -19.5938
   -19.5789 -19.5690 -19.5338 -19.3677 -19.3634 -18.1612 -17.9645 -17.8251
     1.3596   2.5707   2.9380   3.1485   3.3329   3.4675   3.5433   3.6742
     3.7073   3.8779   3.9209   4.0804   4.1821   4.5118   4.5765   4.7073
     4.7753   4.8404   5.0353   5.1077   5.1772   5.2699   5.2916   5.3686
     5.4111   5.5590   5.6258   5.7372   5.7440   5.7588   5.7690   5.8495
     5.9748   6.0937   6.1984   6.2199   6.2530   6.2967   6.3704   6.4181
     6.4485   6.6042   6.6601   6.7297   6.8158   6.9853   7.0117   7.0777
     7.1021   7.1652   7.2412   7.2760   7.3275   7.4439   7.5610   7.5658
     7.6269   7.7814   7.9035   7.9086   8.0940   8.0948   8.1198   8.2165
     8.2559   8.2696   8.3619   8.3894   8.4566   8.5634   8.6648   8.6712
     8.8646   8.9017   9.0063   9.0836   9.1449   9.2385   9.2859

 ------ SPIN DOWN ----------


          k = 0.0000 0.0000 0.0000 ( 61588 PWs)   bands (ev):

   -60.7676 -60.7632 -60.7227 -60.7184 -60.6923 -60.6849 -60.6485 -60.6409
   -60.5393 -60.3369 -54.3461 -54.2786 -54.2214 -54.1545 -52.6986 -46.2624
   -46.2592 -41.6289 -41.6264 -41.5423 -41.5282 -39.8174 -27.7716 -27.7640
   -27.6873 -27.6759 -27.5844 -27.5763 -27.4596 -27.4500 -27.3780 -27.3198
   -27.2969 -27.2549 -27.2476 -27.2288 -27.2135 -27.1706 -27.1532 -27.1413
   -27.1041 -27.0093 -26.9674 -26.9465 -26.9414 -26.9353 -26.9302 -26.8953
   -26.8754 -26.8718 -26.8459 -26.8422 -24.1372 -23.9133 -23.6349 -23.5232
   -23.2844 -23.1509 -23.1191 -23.0253 -22.9015 -22.8094 -22.7935 -22.5619
   -22.5056 -22.4513 -22.3820 -22.3368 -22.2618 -22.2143 -21.7499 -21.6870
   -21.6288 -20.1925 -19.9335 -19.8385 -19.8311 -19.6017 -19.5938 -19.5927
   -19.5775 -19.5672 -19.5327 -19.3652 -19.3621 -18.1612 -17.9644 -17.8249
     1.3606   2.5715   2.9404   3.1492   3.3338   3.4701   3.5440   3.6748
     3.7078   3.8786   3.9235   4.0814   4.1837   4.5126   4.5776   4.7093
     4.7766   4.8416   5.0370   5.1092   5.1784   5.2714   5.2931   5.3709
     5.4131   5.5600   5.6267   5.7389   5.7452   5.7597   5.7701   5.8506
     5.9758   6.0958   6.1996   6.2215   6.2545   6.2979   6.3716   6.4199
     6.4506   6.6053   6.6616   6.7313   6.8174   6.9873   7.0161   7.0812
     7.1092   7.1679   7.2486   7.2804   7.3293   7.4496   7.5636   7.5695
     7.6298   7.7841   7.9053   7.9102   8.0967   8.0982   8.1219   8.2210
     8.2587   8.2712   8.3659   8.3917   8.4584   8.5659   8.6665   8.6734
     8.8660   8.9064   9.0091   9.0852   9.1463   9.2393   9.2908

     the Fermi energy is     7.2438 ev

!    total energy              =   -2943.08892538 Ry
     estimated scf accuracy    <       0.00043263 Ry
     smearing contrib. (-TS)   =      -0.10119787 Ry
     internal energy E=F+TS    =   -2942.98772751 Ry

     total magnetization       =     0.06 Bohr mag/cell
     absolute magnetization    =     0.07 Bohr mag/cell

     convergence has been achieved in   4 iterations

     negative rho (up, down):  9.090E-01 9.090E-01

     Forces acting on atoms (cartesian axes, Ry/au):

     atom    1 type  1   force =    -0.00859227   -0.02763532    0.01349016
     atom    2 type  1   force =    -0.12084341   -0.01828713    0.00118346
     atom    3 type  1   force =    -0.12185257    0.01362004    0.00623839
     atom    4 type  1   force =     0.12563568   -0.00689694    0.00163438
     atom    5 type  1   force =     0.13462393   -0.02204605    0.00784415
     atom    6 type  2   force =    -0.00613071   -0.01695845    0.00861477
     atom    7 type  2   force =    -0.01228159    0.00930495   -0.01338557
     atom    8 type  3   force =    -0.10962461    0.00456656   -0.00223640
     atom    9 type  3   force =     0.12858030    0.01641245   -0.00026569
     atom   10 type  3   force =    -0.02194157   -0.03069277   -0.06044955
     atom   11 type  3   force =    -0.02048670   -0.03410292    0.05303350
     atom   12 type  3   force =    -0.01350637    0.03648815   -0.05725441
     atom   13 type  3   force =    -0.01776409    0.03028356    0.05941639
     atom   14 type  3   force =     0.01996987   -0.03558580   -0.06489396
     atom   15 type  3   force =     0.01962739   -0.03730137    0.05741481
     atom   16 type  3   force =     0.01559273    0.04442261   -0.05765637
     atom   17 type  3   force =     0.01710649    0.03834084    0.06016613
     atom   18 type  4   force =    -0.01163744    0.02199455   -0.00560515
     atom   19 type  4   force =    -0.12888217   -0.00486382   -0.11639682
     atom   20 type  4   force =    -0.13140263    0.00442702    0.11445674
     atom   21 type  4   force =     0.12340409   -0.00920026   -0.11926279
     atom   22 type  4   force =     0.12764164    0.00019279    0.11593590
     atom   23 type  5   force =     0.01276402    0.02351728   -0.00202209
     The non-local contrib.  to forces
     atom    1 type  1   force =    -0.00098715   -0.00825327    0.02619413
     atom    2 type  1   force =    -0.25157415   -0.15836339    0.01910392
     atom    3 type  1   force =    -0.24060314    0.15228741   -0.02443668
     atom    4 type  1   force =     0.24853239   -0.16985849    0.01978558
     atom    5 type  1   force =     0.20291552    0.17033892   -0.02418418
     atom    6 type  2   force =     0.00704338   -0.05070375   -0.07202473
     atom    7 type  2   force =    -0.01391477    0.06747863    0.06239212
     atom    8 type  3   force =    -0.25413237    0.00416640   -0.00143053
     atom    9 type  3   force =     0.13509646   -0.07573230   -0.00738612
     atom   10 type  3   force =    -0.21101029    0.00277617   -0.20897519
     atom   11 type  3   force =    -0.21643072    0.00354309    0.19768938
     atom   12 type  3   force =    -0.20270580   -0.02119360   -0.17682991
     atom   13 type  3   force =    -0.21151464   -0.00435707    0.20603914
     atom   14 type  3   force =     0.20321206   -0.00104390   -0.21773956
     atom   15 type  3   force =     0.21246752    0.00432798    0.20201414
     atom   16 type  3   force =     0.21746320   -0.02637794   -0.17196848
     atom   17 type  3   force =     0.22267060   -0.01046853    0.20095953
     atom   18 type  4   force =    -0.01539450    0.06087241   -0.06135472
     atom   19 type  4   force =     0.06264023    0.00779873    0.07235688
     atom   20 type  4   force =     0.05894740   -0.01622246   -0.06946722
     atom   21 type  4   force =    -0.06322992    0.00965771    0.06859731
     atom   22 type  4   force =    -0.05828078   -0.01548629   -0.06033180
     atom   23 type  5   force =    -0.04597633   -0.01850886   -0.00030862
     The ionic contribution  to forces
     atom    1 type  1   force =    -0.17712081   -4.71274869   14.08041827
     atom    2 type  1   force =   -39.69748856   -6.11115365    0.77974075
     atom    3 type  1   force =   -39.72600386    6.20798926   -0.71315387
     atom    4 type  1   force =    39.52606044   -6.10652079    0.77896455
     atom    5 type  1   force =    38.81955948    7.10789758   -0.70478793
     atom    6 type  2   force =    -0.18765895   -3.67692282  -13.98252063
     atom    7 type  2   force =    -0.50456604    3.60039450   14.20384444
     atom    8 type  3   force =   -52.18429078   -0.03030926   -0.06497444
     atom    9 type  3   force =    50.61739569   -1.36543392   -0.06606009
     atom   10 type  3   force =   -36.06629594   -2.07999175  -23.09906132
     atom   11 type  3   force =   -35.14039911   -0.83282954   22.10331882
     atom   12 type  3   force =   -35.27137653    0.84133444  -22.19095459
     atom   13 type  3   force =   -36.06195047    2.22541902   23.12076523
     atom   14 type  3   force =    35.96546086   -2.08024708  -23.16202068
     atom   15 type  3   force =    35.04024316   -0.83273918   22.16623057
     atom   16 type  3   force =    35.05892647    0.96260520  -22.40661706
     atom   17 type  3   force =    35.84647626    2.34778434   23.33890024
     atom   18 type  4   force =    -0.47061533    4.37099755  -14.11178861
     atom   19 type  4   force =   -35.92049283    0.91094118  -25.58683526
     atom   20 type  4   force =   -35.90354258   -0.99891142   25.56527692
     atom   21 type  4   force =    35.71222896    0.80568608  -25.82900376
     atom   22 type  4   force =    35.69457071   -1.10279592   25.81031282
     atom   23 type  5   force =     5.03087977    0.54955487   -0.02999438
     The local contribution  to forces
     atom    1 type  1   force =     0.16721140    4.68690052  -14.07652965
     atom    2 type  1   force =    39.83215124    6.25086052   -0.78315000
     atom    3 type  1   force =    39.85071581   -6.34693515    0.75781341
     atom    4 type  1   force =   -39.65622414    6.26815711   -0.78271094
     atom    5 type  1   force =   -38.89903259   -7.30306496    0.74698454
     atom    6 type  2   force =     0.17027513    3.69564223   14.07839038
     atom    7 type  2   force =     0.49953835   -3.65444187  -14.26624749
     atom    8 type  3   force =    52.35425586    0.03001638    0.08709487
     atom    9 type  3   force =   -50.62731843    1.48095279    0.09753611
     atom   10 type  3   force =    36.27321601    2.02439020   23.26569451
     atom   11 type  3   force =    35.35561133    0.78221295  -22.27295272
     atom   12 type  3   force =    35.47982955   -0.76588397   22.32520678
     atom   13 type  3   force =    36.26800903   -2.17598117  -23.28925407
     atom   14 type  3   force =   -36.16659611    2.01990533   23.33115166
     atom   15 type  3   force =   -35.25224199    0.78191494  -22.33403362
     atom   16 type  3   force =   -35.28318906   -0.87005912   22.53529915
     atom   17 type  3   force =   -36.07362480   -2.28037505  -23.49843866
     atom   18 type  4   force =     0.47098376   -4.39123165   14.17745211
     atom   19 type  4   force =    35.72945562   -0.91983332   25.40960631
     atom   20 type  4   force =    35.71936936    1.01843945  -25.40009305
     atom   21 type  4   force =   -35.52989254   -0.82103577   25.65016066
     atom   22 type  4   force =   -35.51858327    1.11210937  -25.65059269
     atom   23 type  5   force =    -4.97387651   -0.50946996    0.03055884
     The core correction contribution to forces
     atom    1 type  1   force =    -0.00018768    0.00208393   -0.00234115
     atom    2 type  1   force =    -0.01117500   -0.00102466    0.00085173
     atom    3 type  1   force =    -0.01161577    0.00289299   -0.00142090
     atom    4 type  1   force =     0.01156988   -0.00291671    0.00087794
     atom    5 type  1   force =     0.00249886    0.01052578   -0.00162828
     atom    6 type  2   force =    -0.00033816    0.00248094    0.00306723
     atom    7 type  2   force =     0.00053743   -0.00334598   -0.00247060
     atom    8 type  3   force =    -0.03041175    0.00055603   -0.00059220
     atom    9 type  3   force =     0.01419682   -0.01232726   -0.00123626
     atom   10 type  3   force =    -0.02241397    0.00907622   -0.01729435
     atom   11 type  3   force =    -0.02434009    0.00903072    0.01779174
     atom   12 type  3   force =    -0.02236182   -0.01026350   -0.01515616
     atom   13 type  3   force =    -0.02264091   -0.00939515    0.01645762
     atom   14 type  3   force =     0.02167862    0.00957102   -0.01698969
     atom   15 type  3   force =     0.02295330    0.01004134    0.01717444
     atom   16 type  3   force =     0.02387314   -0.01117951   -0.01381231
     atom   17 type  3   force =     0.02333672   -0.00987898    0.01518004
     atom   18 type  4   force =     0.00078672   -0.00323819    0.00305670
     atom   19 type  4   force =    -0.00987881    0.00015091   -0.00951834
     atom   20 type  4   force =    -0.00979886    0.00050678    0.00943590
     atom   21 type  4   force =     0.01003040    0.00020679   -0.00914598
     atom   22 type  4   force =     0.00982802    0.00053089    0.00873873
     atom   23 type  5   force =     0.00000000    0.00000000    0.00000000
     The Hubbard contrib.    to forces
     atom    1 type  1   force =     0.00000000    0.00000000    0.00000000
     atom    2 type  1   force =     0.00000000    0.00000000    0.00000000
     atom    3 type  1   force =     0.00000000    0.00000000    0.00000000
     atom    4 type  1   force =     0.00000000    0.00000000    0.00000000
     atom    5 type  1   force =     0.00000000    0.00000000    0.00000000
     atom    6 type  2   force =     0.00000000    0.00000000    0.00000000
     atom    7 type  2   force =     0.00000000    0.00000000    0.00000000
     atom    8 type  3   force =     0.00000000    0.00000000    0.00000000
     atom    9 type  3   force =     0.00000000    0.00000000    0.00000000
     atom   10 type  3   force =     0.00000000    0.00000000    0.00000000
     atom   11 type  3   force =     0.00000000    0.00000000    0.00000000
     atom   12 type  3   force =     0.00000000    0.00000000    0.00000000
     atom   13 type  3   force =     0.00000000    0.00000000    0.00000000
     atom   14 type  3   force =     0.00000000    0.00000000    0.00000000
     atom   15 type  3   force =     0.00000000    0.00000000    0.00000000
     atom   16 type  3   force =     0.00000000    0.00000000    0.00000000
     atom   17 type  3   force =     0.00000000    0.00000000    0.00000000
     atom   18 type  4   force =     0.00000000    0.00000000    0.00000000
     atom   19 type  4   force =     0.00000000    0.00000000    0.00000000
     atom   20 type  4   force =     0.00000000    0.00000000    0.00000000
     atom   21 type  4   force =     0.00000000    0.00000000    0.00000000
     atom   22 type  4   force =     0.00000000    0.00000000    0.00000000
     atom   23 type  5   force =     0.00000000    0.00000000    0.00000000
     The SCF correction term to forces
     atom    1 type  1   force =     0.00225923    0.00450627   -0.01331618
     atom    2 type  1   force =     0.00701032    0.00151814   -0.01442768
     atom    3 type  1   force =     0.00542163   -0.00249038   -0.01162831
     atom    4 type  1   force =    -0.00453563    0.00436602   -0.01434749
     atom    5 type  1   force =     0.00844992   -0.00761930   -0.00760474
     atom    6 type  2   force =     0.00431514    0.01266904   -0.01736222
     atom    7 type  2   force =     0.00589069   -0.00065625   -0.00996877
     atom    8 type  3   force =     0.00472167    0.00026108   -0.02139884
     atom    9 type  3   force =    -0.01102299   -0.01092278   -0.02218407
     atom   10 type  3   force =     0.00432986    0.01318047    0.00012206
     atom   11 type  3   force =     0.00483913    0.00406394    0.00812155
     atom   12 type  3   force =     0.00287549   -0.00738115    0.00141473
     atom   13 type  3   force =     0.01010016   -0.00527798    0.00634374
     atom   14 type  3   force =    -0.00401831    0.01635292    0.00163957
     atom   15 type  3   force =    -0.00402733   -0.00072237    0.00696454
     atom   16 type  3   force =    -0.00171377   -0.01044193    0.00037760
     atom   17 type  3   force =    -0.00198504   -0.00859685    0.00450024
     atom   18 type  4   force =     0.00236916   -0.01528148   -0.01203536
     atom   19 type  4   force =     0.00916088   -0.00379724   -0.00107115
     atom   20 type  4   force =     0.00338930    0.00073875    0.01023946
     atom   21 type  4   force =    -0.00596557   -0.00359099    0.00106425
     atom   22 type  4   force =    -0.00012579    0.00595884    0.00874411
     atom   23 type  5   force =     0.00150435    0.00206531   -0.00134266

     Total force =     0.507256     Total SCF correction =     0.068989
     SCF correction compared to forces is large: reduce conv_thr to get better values


     Computing stress (Cartesian axis) and pressure


     negative rho (up, down):  9.090E-01 9.090E-01
          total   stress  (Ry/bohr**3)                   (kbar)     P=       83.41
   0.00065842   0.00001388   0.00000072           96.86        2.04        0.11
   0.00001388   0.00064856  -0.00001169            2.04       95.41       -1.72
   0.00000072  -0.00001169   0.00039399            0.11       -1.72       57.96


     Entering Dynamics:    iteration =     2
                           time      =   0.0004 pico-seconds


ATOMIC_POSITIONS (angstrom)
Hf            2.6701247465        2.8272457240        6.6039655095
Hf            1.2531026760        1.2864077941        5.0584659863
Hf            1.2555987736        7.3899315949        5.0880682452
Hf            4.0871490477        1.2864092304        5.0584660516
Hf            4.0846543637        7.3899274837        5.0880685462
Nb            2.6701243513        2.7970528373        3.5155852890
Nb            2.6701229450        5.8765064297        6.6349951671
Ta            1.2094863664        4.3410540457        5.0711253881
Ta            4.1307682808        4.3410564888        5.0711255208
Ta            1.3073759081        1.3142449627        2.0587723318
Ta            1.3029117021        1.3085130029        8.0945854280
Ta            1.3041337309        7.3759559166        2.0462307657
Ta            1.3078345626        7.3652120497        8.0860091563
Ta            4.0328751815        1.3142444808        2.0587718645
Ta            4.0373395167        1.3085125588        8.0945859209
Ta            4.0361177856        7.3759567942        2.0462306911
Ta            4.0324167091        7.3652129046        8.0860091847
Zr            2.6701230795        5.8664158074        3.5273824174
Zr            1.2439316593        4.3222024073        1.9999738339
Zr            1.2404814822        4.3542500414        8.1497818105
Zr            4.0963184659        4.3222014376        1.9999733030
Zr            4.0997690601        4.3542492347        8.1497821055
H             5.3361281519        5.5456324469        5.0721691942


     kinetic energy (Ekin) =           4.04683372 Ry
     temperature           =       19361.95483751 K 
     Ekin + Etot (const)   =       -2939.04209166 Ry
     Ions kinetic stress =           71.47 (kbar)
                                    107.27         107.21           0.01
                                    107.21         107.14           0.01
                                      0.01           0.01           0.00



     Linear momentum :   -0.0000000000   -0.0000000000    0.0000000000

     Writing config-only to output data dir outdir/pwscf.save/
     NEW-OLD atomic charge density approx. for the potential

     Check: negative core charge=   -0.000002

     negative rho (up, down):  9.089E-01 9.089E-01
     Generating pointlists ...
     new r_m :   0.0753 (alat units)  1.3284 (a.u.) for type    3
     new r_m :   0.0753 (alat units)  1.3284 (a.u.) for type    5

     total cpu time spent up to now is      585.0 secs

     Self-consistent Calculation

     iteration #  1     ecut=   120.00 Ry     beta= 0.70
     Davidson diagonalization with overlap
     c_bands:  1 eigenvalues not converged
     c_bands:  1 eigenvalues not converged
     ethr =  1.00E-06,  avg # of iterations = 20.0

     negative rho (up, down):  9.089E-01 9.089E-01

     total cpu time spent up to now is      621.0 secs

     total energy              =   -2943.06308574 Ry
     estimated scf accuracy    <       0.10860269 Ry

     total magnetization       =     0.06 Bohr mag/cell
     absolute magnetization    =     0.07 Bohr mag/cell

     iteration #  2     ecut=   120.00 Ry     beta= 0.70
     Davidson diagonalization with overlap
     ethr =  3.92E-05,  avg # of iterations =  2.0

     negative rho (up, down):  9.090E-01 9.090E-01

     total cpu time spent up to now is      639.4 secs

     total energy              =   -2943.07049045 Ry
     estimated scf accuracy    <       0.05176962 Ry

     total magnetization       =     0.06 Bohr mag/cell
     absolute magnetization    =     0.07 Bohr mag/cell

     iteration #  3     ecut=   120.00 Ry     beta= 0.70
     Davidson diagonalization with overlap
     ethr =  1.87E-05,  avg # of iterations =  1.0

     negative rho (up, down):  9.090E-01 9.090E-01

     total cpu time spent up to now is      666.9 secs

     total energy              =   -2943.07351208 Ry
     estimated scf accuracy    <       0.00256397 Ry

     total magnetization       =     0.06 Bohr mag/cell
     absolute magnetization    =     0.06 Bohr mag/cell

     iteration #  4     ecut=   120.00 Ry     beta= 0.70
     Davidson diagonalization with overlap
     ethr =  9.26E-07,  avg # of iterations = 12.0

     negative rho (up, down):  9.089E-01 9.089E-01

     Magnetic moment per site  (integrated on atomic sphere of radius R)
     atom   1 (R=0.097)  charge=  8.3333   -0.0000
     atom   2 (R=0.097)  charge=  8.1129    0.0000
     atom   3 (R=0.097)  charge=  8.1131    0.0001
     atom   4 (R=0.097)  charge=  8.1143   -0.0000
     atom   5 (R=0.097)  charge=  8.1078    0.0002
     atom   6 (R=0.110)  charge= 10.3500    0.0001
     atom   7 (R=0.110)  charge= 10.3479    0.0001
     atom   8 (R=0.075)  charge=  6.6127   -0.0000
     atom   9 (R=0.075)  charge=  6.6236    0.0000
     atom  10 (R=0.075)  charge=  6.5982    0.0004
     atom  11 (R=0.075)  charge=  6.5957    0.0005
     atom  12 (R=0.075)  charge=  6.5972    0.0010
     atom  13 (R=0.075)  charge=  6.5975    0.0004
     atom  14 (R=0.075)  charge=  6.5967    0.0005
     atom  15 (R=0.075)  charge=  6.5945    0.0005
     atom  16 (R=0.075)  charge=  6.5979    0.0014
     atom  17 (R=0.075)  charge=  6.5975    0.0007
     atom  18 (R=0.111)  charge=  9.4561   -0.0000
     atom  19 (R=0.111)  charge=  9.0021    0.0018
     atom  20 (R=0.111)  charge=  8.9937    0.0007
     atom  21 (R=0.111)  charge=  9.0080    0.0023
     atom  22 (R=0.111)  charge=  8.9960    0.0010
     atom  23 (R=0.075)  charge=  0.9530    0.0001

     total cpu time spent up to now is      707.0 secs

     End of self-consistent calculation

 ------ SPIN UP ------------


          k = 0.0000 0.0000 0.0000 ( 61588 PWs)   bands (ev):

   -60.7675 -60.7641 -60.7223 -60.7190 -60.6906 -60.6830 -60.6462 -60.6390
   -60.5332 -60.2488 -54.3628 -54.3005 -54.2377 -54.1727 -52.7168 -46.2692
   -46.2468 -41.6506 -41.6236 -41.5501 -41.5400 -39.8119 -27.7731 -27.7652
   -27.6890 -27.6769 -27.5850 -27.5773 -27.4575 -27.4482 -27.3648 -27.3197
   -27.2927 -27.2554 -27.2470 -27.2248 -27.2110 -27.1678 -27.1505 -27.1366
   -27.0986 -26.9621 -26.9478 -26.9460 -26.9361 -26.9193 -26.8995 -26.8772
   -26.8753 -26.8558 -26.8447 -26.8369 -24.1490 -23.9272 -23.6449 -23.5420
   -23.2949 -23.1599 -23.1372 -23.0367 -22.9120 -22.8290 -22.8109 -22.5836
   -22.5065 -22.4486 -22.3904 -22.3430 -22.2647 -22.2168 -21.7641 -21.6997
   -21.6441 -20.2131 -19.9310 -19.8594 -19.8500 -19.6157 -19.6015 -19.5966
   -19.5843 -19.5708 -19.5341 -19.3893 -19.3595 -18.1559 -17.9620 -17.8261
     1.2945   2.4235   2.9350   3.1462   3.3271   3.4690   3.5397   3.6749
     3.7110   3.8719   3.9186   4.0806   4.1802   4.5112   4.5620   4.7059
     4.7718   4.8299   5.0323   5.1005   5.1699   5.2677   5.2879   5.3622
     5.4028   5.5555   5.6312   5.7341   5.7455   5.7574   5.7670   5.8499
     5.9781   6.0961   6.1993   6.2231   6.2559   6.3023   6.3661   6.4105
     6.4369   6.6037   6.6600   6.7295   6.8156   6.9801   7.0037   7.0777
     7.1004   7.1608   7.2267   7.2750   7.3284   7.4398   7.5526   7.5581
     7.6260   7.7850   7.9041   7.9058   8.0895   8.0900   8.1171   8.2126
     8.2531   8.2712   8.3607   8.3851   8.4673   8.5578   8.6607   8.6642
     8.8616   8.9026   9.0045   9.0821   9.1367   9.2421   9.2785

 ------ SPIN DOWN ----------


          k = 0.0000 0.0000 0.0000 ( 61588 PWs)   bands (ev):

   -60.7664 -60.7633 -60.7212 -60.7182 -60.6890 -60.6822 -60.6447 -60.6383
   -60.5333 -60.2487 -54.3628 -54.3004 -54.2377 -54.1726 -52.7168 -46.2691
   -46.2468 -41.6488 -41.6228 -41.5483 -41.5392 -39.8119 -27.7713 -27.7639
   -27.6871 -27.6757 -27.5837 -27.5759 -27.4562 -27.4461 -27.3646 -27.3187
   -27.2920 -27.2542 -27.2460 -27.2237 -27.2097 -27.1671 -27.1490 -27.1358
   -27.0986 -26.9614 -26.9467 -26.9443 -26.9345 -26.9184 -26.8992 -26.8755
   -26.8740 -26.8550 -26.8431 -26.8360 -24.1489 -23.9272 -23.6447 -23.5419
   -23.2948 -23.1598 -23.1370 -23.0366 -22.9120 -22.8289 -22.8109 -22.5835
   -22.5064 -22.4486 -22.3902 -22.3429 -22.2644 -22.2167 -21.7640 -21.6997
   -21.6441 -20.2113 -19.9301 -19.8575 -19.8485 -19.6134 -19.5999 -19.5959
   -19.5833 -19.5696 -19.5331 -19.3869 -19.3584 -18.1559 -17.9619 -17.8259
     1.2953   2.4243   2.9371   3.1468   3.3280   3.4713   3.5403   3.6755
     3.7115   3.8725   3.9209   4.0815   4.1816   4.5119   4.5630   4.7077
     4.7729   4.8310   5.0340   5.1019   5.1711   5.2690   5.2892   5.3642
     5.4047   5.5565   5.6321   5.7357   5.7466   5.7582   5.7679   5.8508
     5.9790   6.0980   6.2004   6.2244   6.2572   6.3034   6.3672   6.4119
     6.4391   6.6047   6.6613   6.7309   6.8170   6.9819   7.0075   7.0811
     7.1068   7.1631   7.2331   7.2789   7.3301   7.4450   7.5561   7.5604
     7.6286   7.7873   7.9057   7.9073   8.0919   8.0933   8.1189   8.2165
     8.2557   8.2727   8.3642   8.3872   8.4689   8.5600   8.6623   8.6660
     8.8630   8.9066   9.0070   9.0835   9.1379   9.2434   9.2807

     the Fermi energy is     7.2393 ev

!    total energy              =   -2943.07311846 Ry
     estimated scf accuracy    <       0.00073781 Ry
     smearing contrib. (-TS)   =      -0.10129984 Ry
     internal energy E=F+TS    =   -2942.97181862 Ry

     total magnetization       =     0.06 Bohr mag/cell
     absolute magnetization    =     0.06 Bohr mag/cell

     convergence has been achieved in   4 iterations

     negative rho (up, down):  9.089E-01 9.089E-01

     Forces acting on atoms (cartesian axes, Ry/au):

     atom    1 type  1   force =    -0.00785551   -0.02579217    0.00850654
     atom    2 type  1   force =    -0.11590997   -0.01679531   -0.01007084
     atom    3 type  1   force =    -0.11654397    0.01254942   -0.00274828
     atom    4 type  1   force =     0.12345863   -0.00670455   -0.00951046
     atom    5 type  1   force =     0.12799901   -0.02496770    0.00085054
     atom    6 type  2   force =    -0.00677423   -0.01721999    0.01002467
     atom    7 type  2   force =    -0.01184694    0.01037735   -0.01097994
     atom    8 type  3   force =    -0.11142965    0.00539654   -0.00789290
     atom    9 type  3   force =     0.08447022   -0.02646704   -0.00530487
     atom   10 type  3   force =    -0.02138427   -0.02576931   -0.05728920
     atom   11 type  3   force =    -0.01927130   -0.03180532    0.05856596
     atom   12 type  3   force =    -0.01352307    0.03373111   -0.05418933
     atom   13 type  3   force =    -0.01502566    0.02753574    0.06478631
     atom   14 type  3   force =     0.01787056   -0.02993237   -0.06149386
     atom   15 type  3   force =     0.01745389   -0.03645139    0.06275847
     atom   16 type  3   force =     0.01469168    0.04006595   -0.05468525
     atom   17 type  3   force =     0.01518759    0.03435440    0.06469090
     atom   18 type  4   force =    -0.01024917    0.01762818   -0.00807669
     atom   19 type  4   force =    -0.12518132   -0.00604284   -0.11457635
     atom   20 type  4   force =    -0.13010897    0.00460715    0.12082896
     atom   21 type  4   force =     0.11847847   -0.00951542   -0.11639063
     atom   22 type  4   force =     0.12608379    0.00292929    0.12200967
     atom   23 type  5   force =     0.05941018    0.06828827    0.00018659
     The non-local contrib.  to forces
     atom    1 type  1   force =     0.00154552   -0.00484941    0.01972433
     atom    2 type  1   force =    -0.24699752   -0.15902065    0.01168028
     atom    3 type  1   force =    -0.23739308    0.15222569   -0.03060752
     atom    4 type  1   force =     0.24698031   -0.17055625    0.01272188
     atom    5 type  1   force =     0.21477594    0.15779165   -0.02934428
     atom    6 type  2   force =     0.00770182   -0.04818568   -0.07368649
     atom    7 type  2   force =    -0.01177713    0.06682618    0.06176063
     atom    8 type  3   force =    -0.25221814    0.00305816   -0.00858231
     atom    9 type  3   force =     0.10919210   -0.09698955   -0.01329245
     atom   10 type  3   force =    -0.21091699    0.00534728   -0.20929289
     atom   11 type  3   force =    -0.21786350    0.00527558    0.20223923
     atom   12 type  3   force =    -0.20160804   -0.02296721   -0.17620161
     atom   13 type  3   force =    -0.21001493   -0.00648695    0.20985478
     atom   14 type  3   force =     0.20168249    0.00216970   -0.21717348
     atom   15 type  3   force =     0.21333480    0.00494512    0.20554582
     atom   16 type  3   force =     0.21493939   -0.02756515   -0.17273071
     atom   17 type  3   force =     0.22126275   -0.01228318    0.20471924
     atom   18 type  4   force =    -0.01311773    0.05607466   -0.06533703
     atom   19 type  4   force =     0.06556302    0.00753529    0.07102284
     atom   20 type  4   force =     0.06085551   -0.01588142   -0.06599957
     atom   21 type  4   force =    -0.06365939    0.00993771    0.06670300
     atom   22 type  4   force =    -0.05837890   -0.01253719   -0.05562206
     atom   23 type  5   force =    -0.05375337   -0.03024584   -0.00031395
     The ionic contribution  to forces
     atom    1 type  1   force =    -0.19369155   -4.73018480   14.09231822
     atom    2 type  1   force =   -39.70603344   -6.11855172    0.77973139
     atom    3 type  1   force =   -39.74251291    6.21347857   -0.71314236
     atom    4 type  1   force =    39.53186027   -6.13518302    0.77892517
     atom    5 type  1   force =    38.90400180    7.13083797   -0.70507384
     atom    6 type  2   force =    -0.20499396   -3.69553488  -13.99517190
     atom    7 type  2   force =    -0.53570271    3.62584505   14.23037445
     atom    8 type  3   force =   -52.21535928   -0.02906151   -0.06498786
     atom    9 type  3   force =    50.34224419   -1.64149226   -0.06640057
     atom   10 type  3   force =   -36.07135179   -2.08427750  -23.09981685
     atom   11 type  3   force =   -35.14545544   -0.83710268   22.10406165
     atom   12 type  3   force =   -35.27897169    0.84367336  -22.19083547
     atom   13 type  3   force =   -36.06956604    2.22780718   23.12066067
     atom   14 type  3   force =    35.96861343   -2.09102695  -23.16466579
     atom   15 type  3   force =    35.04343809   -0.84347638   22.16883702
     atom   16 type  3   force =    35.07141512    0.96954566  -22.40323913
     atom   17 type  3   force =    35.85903859    2.35491325   23.33556486
     atom   18 type  4   force =    -0.50005013    4.39458955  -14.13647296
     atom   19 type  4   force =   -35.93050151    0.91235527  -25.59032814
     atom   20 type  4   force =   -35.91356788   -0.99735497   25.56873378
     atom   21 type  4   force =    35.71303450    0.80626930  -25.85453281
     atom   22 type  4   force =    35.69553745   -1.10172053   25.83582782
     atom   23 type  5   force =     5.37857488    0.82565204   -0.03036734
     The local contribution  to forces
     atom    1 type  1   force =     0.18516493    4.70876509  -14.11358771
     atom    2 type  1   force =    39.85645356    6.26337977   -0.82705933
     atom    3 type  1   force =    39.88607844   -6.35638657    0.72031139
     atom    4 type  1   force =   -39.67295982    6.30067535   -0.82617213
     atom    5 type  1   force =   -39.00906867   -7.32021271    0.71854957
     atom    6 type  2   force =     0.19366802    3.73523033   14.04471407
     atom    7 type  2   force =     0.54260401   -3.67770574  -14.31346616
     atom    8 type  3   force =    52.39114449    0.03024371    0.03235167
     atom    9 type  3   force =   -50.37033555    1.73832121    0.03982035
     atom   10 type  3   force =    36.28956509    2.06168356   23.27484833
     atom   11 type  3   force =    35.37748869    0.80010720  -22.25887357
     atom   12 type  3   force =    35.49431260   -0.78977386   22.33282929
     atom   13 type  3   force =    36.29980322   -2.19587190  -23.27482869
     atom   14 type  3   force =   -36.17715155    2.06930834   23.34210967
     atom   15 type  3   force =   -35.26659167    0.79649465  -22.32176006
     atom   16 type  3   force =   -35.29658554   -0.90751600   22.53925617
     atom   17 type  3   force =   -36.09102491   -2.31167682  -23.48554193
     atom   18 type  4   force =     0.50727159   -4.44279072   14.16714889
     atom   19 type  4   force =    35.76447936   -0.92880485   25.41207966
     atom   20 type  4   force =    35.74268686    1.01869935  -25.37600753
     atom   21 type  4   force =   -35.55031295   -0.82735122   25.67957645
     atom   22 type  4   force =   -35.52622996    1.12280953  -25.65130296
     atom   23 type  5   force =    -5.26749218   -0.72949365    0.02709562
     The core correction contribution to forces
     atom    1 type  1   force =     0.00001206    0.00219537   -0.00251313
     atom    2 type  1   force =    -0.01090775   -0.00106846    0.00077783
     atom    3 type  1   force =    -0.01160362    0.00307672   -0.00140296
     atom    4 type  1   force =     0.01161949   -0.00302949    0.00083192
     atom    5 type  1   force =     0.00362072    0.00932161   -0.00174000
     atom    6 type  2   force =    -0.00033956    0.00243448    0.00319854
     atom    7 type  2   force =     0.00046087   -0.00328785   -0.00246985
     atom    8 type  3   force =    -0.03024554    0.00060161   -0.00064369
     atom    9 type  3   force =     0.01155938   -0.01408942   -0.00095603
     atom   10 type  3   force =    -0.02247438    0.00903098   -0.01729492
     atom   11 type  3   force =    -0.02449577    0.00912227    0.01794186
     atom   12 type  3   force =    -0.02238941   -0.01028006   -0.01515173
     atom   13 type  3   force =    -0.02277391   -0.00944094    0.01658732
     atom   14 type  3   force =     0.02167977    0.00940283   -0.01709252
     atom   15 type  3   force =     0.02319191    0.01006193    0.01748486
     atom   16 type  3   force =     0.02359301   -0.01088316   -0.01397491
     atom   17 type  3   force =     0.02318555   -0.00963573    0.01546300
     atom   18 type  4   force =     0.00073466   -0.00316141    0.00306909
     atom   19 type  4   force =    -0.00990576    0.00012565   -0.00947853
     atom   20 type  4   force =    -0.00980854    0.00049227    0.00941972
     atom   21 type  4   force =     0.00995580    0.00014799   -0.00906670
     atom   22 type  4   force =     0.00977090    0.00041304    0.00864959
     atom   23 type  5   force =     0.00000000    0.00000000    0.00000000
     The Hubbard contrib.    to forces
     atom    1 type  1   force =     0.00000000    0.00000000    0.00000000
     atom    2 type  1   force =     0.00000000    0.00000000    0.00000000
     atom    3 type  1   force =     0.00000000    0.00000000    0.00000000
     atom    4 type  1   force =     0.00000000    0.00000000    0.00000000
     atom    5 type  1   force =     0.00000000    0.00000000    0.00000000
     atom    6 type  2   force =     0.00000000    0.00000000    0.00000000
     atom    7 type  2   force =     0.00000000    0.00000000    0.00000000
     atom    8 type  3   force =     0.00000000    0.00000000    0.00000000
     atom    9 type  3   force =     0.00000000    0.00000000    0.00000000
     atom   10 type  3   force =     0.00000000    0.00000000    0.00000000
     atom   11 type  3   force =     0.00000000    0.00000000    0.00000000
     atom   12 type  3   force =     0.00000000    0.00000000    0.00000000
     atom   13 type  3   force =     0.00000000    0.00000000    0.00000000
     atom   14 type  3   force =     0.00000000    0.00000000    0.00000000
     atom   15 type  3   force =     0.00000000    0.00000000    0.00000000
     atom   16 type  3   force =     0.00000000    0.00000000    0.00000000
     atom   17 type  3   force =     0.00000000    0.00000000    0.00000000
     atom   18 type  4   force =     0.00000000    0.00000000    0.00000000
     atom   19 type  4   force =     0.00000000    0.00000000    0.00000000
     atom   20 type  4   force =     0.00000000    0.00000000    0.00000000
     atom   21 type  4   force =     0.00000000    0.00000000    0.00000000
     atom   22 type  4   force =     0.00000000    0.00000000    0.00000000
     atom   23 type  5   force =     0.00000000    0.00000000    0.00000000
     The SCF correction term to forces
     atom    1 type  1   force =    -0.00052133   -0.00170135    0.01117202
     atom    2 type  1   force =    -0.00805968   -0.00151717    0.02340618
     atom    3 type  1   force =    -0.01074767    0.00017209    0.02070035
     atom    4 type  1   force =     0.00632351    0.00140593    0.02278989
     atom    5 type  1   force =     0.01503436   -0.00268915    0.01706629
     atom    6 type  2   force =    -0.00244542   -0.01114717    0.02957764
     atom    7 type  2   force =    -0.00706684   -0.00128321    0.01142818
     atom    8 type  3   force =    -0.00438605    0.00057163    0.03257648
     atom    9 type  3   force =    -0.00782475   -0.01219994    0.03413103
     atom   10 type  3   force =    -0.00584107   -0.01753657   -0.00712567
     atom   11 type  3   force =    -0.00858014   -0.00919063   -0.00819602
     atom   12 type  3   force =    -0.00450140    0.01309595   -0.00622261
     atom   13 type  3   force =    -0.01210886    0.01154541   -0.00888060
     atom   14 type  3   force =     0.00341156   -0.01976922   -0.00606455
     atom   15 type  3   force =     0.00444589   -0.00445964   -0.00874198
     atom   16 type  3   force =     0.00169483    0.01650166   -0.00538948
     atom   17 type  3   force =     0.00309075    0.01305394   -0.00690708
     atom   18 type  4   force =    -0.00472242    0.01293317    0.02212252
     atom   19 type  4   force =    -0.01445129    0.00276287    0.00073501
     atom   20 type  4   force =    -0.00990977   -0.00133101   -0.01671025
     atom   21 type  4   force =     0.00982566    0.00149787   -0.00046339
     atom   22 type  4   force =     0.00574944   -0.00601848   -0.01693553
     atom   23 type  5   force =     0.00244599    0.00239278    0.00237945

     Total force =     0.499088     Total SCF correction =     0.100289
     SCF correction compared to forces is large: reduce conv_thr to get better values


     Computing stress (Cartesian axis) and pressure


     negative rho (up, down):  9.089E-01 9.089E-01
          total   stress  (Ry/bohr**3)                   (kbar)     P=       87.22
   0.00069980   0.00003012   0.00000117          102.94        4.43        0.17
   0.00003012   0.00067994  -0.00001298            4.43      100.02       -1.91
   0.00000117  -0.00001298   0.00039898            0.17       -1.91       58.69


     Entering Dynamics:    iteration =     3
                           time      =   0.0006 pico-seconds


[...]
     3.7219   3.8836   3.9315   4.0935   4.1818   4.5238   4.5654   4.7134
     4.7834   4.8345   5.0445   5.1134   5.1841   5.2794   5.2985   5.3723
     5.4086   5.5624   5.6488   5.7456   5.7549   5.7667   5.7783   5.8657
     5.9929   6.1048   6.2019   6.2392   6.2699   6.3243   6.3787   6.4152
     6.4421   6.6106   6.6684   6.7412   6.8256   6.9899   7.0125   7.0896
     7.1101   7.1707   7.2346   7.2805   7.3336   7.4515   7.5526   7.5671
     7.6403   7.7991   7.9140   7.9242   8.0906   8.1063   8.1274   8.2179
     8.2589   8.2847   8.3727   8.3966   8.4828   8.5689   8.6661   8.6724
     8.8676   8.9113   9.0186   9.0911   9.1494   9.2548   9.2883

     the Fermi energy is     7.2458 ev

!    total energy              =   -2943.05045495 Ry
     estimated scf accuracy    <       0.00017427 Ry
     smearing contrib. (-TS)   =      -0.10165047 Ry
     internal energy E=F+TS    =   -2942.94880448 Ry

     total magnetization       =     0.00 Bohr mag/cell
     absolute magnetization    =     0.00 Bohr mag/cell

     convergence has been achieved in   5 iterations

     negative rho (up, down):  9.091E-01 9.091E-01

     Forces acting on atoms (cartesian axes, Ry/au):

     atom    1 type  1   force =    -0.01180069   -0.03018212    0.01587993
     atom    2 type  1   force =    -0.11834400   -0.01689546   -0.00057145
     atom    3 type  1   force =    -0.11941719    0.01200134    0.00603304
     atom    4 type  1   force =     0.12832559   -0.00832262   -0.00040422
     atom    5 type  1   force =     0.13020684   -0.02766786    0.00878201
     atom    6 type  2   force =    -0.01040622   -0.02061431    0.00429740
     atom    7 type  2   force =    -0.01167599    0.00938847   -0.01140468
     atom    8 type  3   force =    -0.11488514    0.00631270   -0.00433581
     atom    9 type  3   force =     0.04402522   -0.06817071   -0.00057103
     atom   10 type  3   force =    -0.02222108   -0.02616978   -0.05979979
     atom   11 type  3   force =    -0.02097155   -0.03261076    0.05348952
     atom   12 type  3   force =    -0.01423776    0.03485979   -0.05638333
     atom   13 type  3   force =    -0.01689656    0.02958668    0.05919863
     atom   14 type  3   force =     0.01837781   -0.03172971   -0.06401848
     atom   15 type  3   force =     0.01840751   -0.03743130    0.05768438
     atom   16 type  3   force =     0.01524930    0.04154723   -0.05722851
     atom   17 type  3   force =     0.01652603    0.03643341    0.06003249
     atom   18 type  4   force =    -0.00993034    0.01783735   -0.00666796
     atom   19 type  4   force =    -0.12589908   -0.00526229   -0.11401866
     atom   20 type  4   force =    -0.13087147    0.00463560    0.11381636
     atom   21 type  4   force =     0.11895055   -0.00902824   -0.11577003
     atom   22 type  4   force =     0.12657903    0.00269718    0.11461412
     atom   23 type  5   force =     0.11090920    0.11878544   -0.00265392
     The non-local contrib.  to forces
     atom    1 type  1   force =     0.00553172   -0.00144523    0.01530039
     atom    2 type  1   force =    -0.24737862   -0.15967658    0.01747567
     atom    3 type  1   force =    -0.23885881    0.15177134   -0.02502979
     atom    4 type  1   force =     0.24947319   -0.17280064    0.01814283
     atom    5 type  1   force =     0.22861278    0.14340668   -0.02512473
     atom    6 type  2   force =     0.00903278   -0.04776560   -0.07052253
     atom    7 type  2   force =    -0.00935921    0.06874933    0.06257126
     atom    8 type  3   force =    -0.25231842    0.00322544   -0.00363446
     atom    9 type  3   force =     0.09535024   -0.10414104   -0.00464331
     atom   10 type  3   force =    -0.21421906    0.00460650   -0.21067065
     atom   11 type  3   force =    -0.21935266    0.00301636    0.20057699
     atom   12 type  3   force =    -0.20210875   -0.02265872   -0.17661552
     atom   13 type  3   force =    -0.20926619   -0.00421891    0.20698420
     atom   14 type  3   force =     0.20318861    0.00086926   -0.21764066
     atom   15 type  3   force =     0.21226357    0.00351331    0.20316690
     atom   16 type  3   force =     0.21390611   -0.02532176   -0.17445844
     atom   17 type  3   force =     0.21815256   -0.00857985    0.20411033
     atom   18 type  4   force =    -0.01179891    0.05915233   -0.06114106
     atom   19 type  4   force =     0.06344123    0.00845249    0.07213608
     atom   20 type  4   force =     0.05840076   -0.01594900   -0.06908666
     atom   21 type  4   force =    -0.06287339    0.01097387    0.06751217
     atom   22 type  4   force =    -0.05661408   -0.01226186   -0.05838570
     atom   23 type  5   force =    -0.05942359   -0.03996741   -0.00028033
     The ionic contribution  to forces
     atom    1 type  1   force =    -0.30054047   -4.80154218   14.28234808
     atom    2 type  1   force =   -39.73029338   -6.15151129    0.78030755
     atom    3 type  1   force =   -39.72855074    6.19521351   -0.71182235
     atom    4 type  1   force =    39.56540759   -6.27717752    0.77916011
     atom    5 type  1   force =    39.00467154    7.00339321   -0.70301122
     atom    6 type  2   force =    -0.31339087   -3.77009781  -14.19183781
     atom    7 type  2   force =    -0.47511973    3.67536244   14.25074294
     atom    8 type  3   force =   -52.35259668    0.03183465   -0.06547866
     atom    9 type  3   force =    50.06351896   -1.55717153   -0.04685405
     atom   10 type  3   force =   -36.06328463   -2.08260427  -23.08144272
     atom   11 type  3   force =   -35.13849029   -0.83594795   22.08536841
     atom   12 type  3   force =   -35.26070628    0.82067223  -22.15817506
     atom   13 type  3   force =   -36.04688616    2.20329080   23.08559149
     atom   14 type  3   force =    35.96289746   -2.10300156  -23.15694520
     atom   15 type  3   force =    35.03937846   -0.85594793   22.16033058
     atom   16 type  3   force =    35.07825012    0.92776020  -22.34385085
     atom   17 type  3   force =    35.86226325    2.31103917   23.27255191
     atom   18 type  4   force =    -0.44437527    4.43765167  -14.15264944
     atom   19 type  4   force =   -35.90199078    0.92858861  -25.53322660
     atom   20 type  4   force =   -35.88428792   -0.97646050   25.51005011
     atom   21 type  4   force =    35.70947475    0.85523577  -25.79412599
     atom   22 type  4   force =    35.69292390   -1.04784251   25.77144864
     atom   23 type  5   force =     5.66172717    1.06926280   -0.03847986
     The local contribution  to forces
     atom    1 type  1   force =     0.28351552    4.76792880  -14.27530084
     atom    2 type  1   force =    39.86794781    6.29540282   -0.79001861
     atom    3 type  1   force =    39.85748716   -6.33941723    0.75419796
     atom    4 type  1   force =   -39.69366688    6.44450174   -0.78953718
     atom    5 type  1   force =   -39.10010857   -7.18726783    0.74886774
     atom    6 type  2   force =     0.29517242    3.79641976   14.27315773
     atom    7 type  2   force =     0.47469659   -3.72698348  -14.31831567
     atom    8 type  3   force =    52.51476464   -0.02802337    0.07372972
     atom    9 type  3   force =   -50.11130831    1.61314919    0.05983865
     atom   10 type  3   force =    36.27595696    2.04738591   23.25354656
     atom   11 type  3   force =    35.35663270    0.78841981  -22.25737734
     atom   12 type  3   force =    35.46839032   -0.75735582   22.29771753
     atom   13 type  3   force =    36.25886503   -2.15921476  -23.25803659
     atom   14 type  3   force =   -36.16625521    2.06675923   23.33278722
     atom   15 type  3   force =   -35.25025690    0.80230767  -22.33096790
     atom   16 type  3   force =   -35.29689484   -0.85511344   22.48038590
     atom   17 type  3   force =   -36.08154329   -2.25653324  -23.44126167
     atom   18 type  4   force =     0.44685818   -4.47775812   14.21508356
     atom   19 type  4   force =    35.72236187   -0.94251226   25.36012353
     atom   20 type  4   force =    35.69943665    0.99779795  -25.34232089
     atom   21 type  4   force =   -35.53576342   -0.87568846   25.62385712
     atom   22 type  4   force =   -35.51221800    1.06433408  -25.61314696
     atom   23 type  5   force =    -5.49001821   -0.91023082    0.03778670
     The core correction contribution to forces
     atom    1 type  1   force =     0.00044597    0.00253505   -0.00316817
     atom    2 type  1   force =    -0.01081145   -0.00112109    0.00079733
     atom    3 type  1   force =    -0.01160982    0.00318020   -0.00139145
     atom    4 type  1   force =     0.01184349   -0.00310111    0.00084691
     atom    5 type  1   force =     0.00464039    0.00837749   -0.00177850
     atom    6 type  2   force =    -0.00040915    0.00240949    0.00310413
     atom    7 type  2   force =     0.00039310   -0.00339621   -0.00254945
     atom    8 type  3   force =    -0.03004871    0.00061259   -0.00067000
     atom    9 type  3   force =     0.00978409   -0.01480606   -0.00068386
     atom   10 type  3   force =    -0.02270772    0.00912315   -0.01738373
     atom   11 type  3   force =    -0.02444891    0.00914955    0.01788694
     atom   12 type  3   force =    -0.02241167   -0.01024386   -0.01512857
     atom   13 type  3   force =    -0.02261518   -0.00936220    0.01656439
     atom   14 type  3   force =     0.02175135    0.00942484   -0.01729212
     atom   15 type  3   force =     0.02300523    0.00998173    0.01752026
     atom   16 type  3   force =     0.02341089   -0.01076820   -0.01419662
     atom   17 type  3   force =     0.02283015   -0.00951061    0.01563283
     atom   18 type  4   force =     0.00068232   -0.00326859    0.00309772
     atom   19 type  4   force =    -0.00986132    0.00008906   -0.00947816
     atom   20 type  4   force =    -0.00976182    0.00049844    0.00943781
     atom   21 type  4   force =     0.00997880    0.00010510   -0.00904313
     atom   22 type  4   force =     0.00976711    0.00037881    0.00863260
     atom   23 type  5   force =     0.00000000    0.00000000    0.00000000
     The Hubbard contrib.    to forces
     atom    1 type  1   force =     0.00000000    0.00000000    0.00000000
     atom    2 type  1   force =     0.00000000    0.00000000    0.00000000
     atom    3 type  1   force =     0.00000000    0.00000000    0.00000000
     atom    4 type  1   force =     0.00000000    0.00000000    0.00000000
     atom    5 type  1   force =     0.00000000    0.00000000    0.00000000
     atom    6 type  2   force =     0.00000000    0.00000000    0.00000000
     atom    7 type  2   force =     0.00000000    0.00000000    0.00000000
     atom    8 type  3   force =     0.00000000    0.00000000    0.00000000
     atom    9 type  3   force =     0.00000000    0.00000000    0.00000000
     atom   10 type  3   force =     0.00000000    0.00000000    0.00000000
     atom   11 type  3   force =     0.00000000    0.00000000    0.00000000
     atom   12 type  3   force =     0.00000000    0.00000000    0.00000000
     atom   13 type  3   force =     0.00000000    0.00000000    0.00000000
     atom   14 type  3   force =     0.00000000    0.00000000    0.00000000
     atom   15 type  3   force =     0.00000000    0.00000000    0.00000000
     atom   16 type  3   force =     0.00000000    0.00000000    0.00000000
     atom   17 type  3   force =     0.00000000    0.00000000    0.00000000
     atom   18 type  4   force =     0.00000000    0.00000000    0.00000000
     atom   19 type  4   force =     0.00000000    0.00000000    0.00000000
     atom   20 type  4   force =     0.00000000    0.00000000    0.00000000
     atom   21 type  4   force =     0.00000000    0.00000000    0.00000000
     atom   22 type  4   force =     0.00000000    0.00000000    0.00000000
     atom   23 type  5   force =     0.00000000    0.00000000    0.00000000
     The SCF correction term to forces
     atom    1 type  1   force =    -0.00046751    0.00228822   -0.00262718
     atom    2 type  1   force =     0.00247756   -0.00004255   -0.00846104
     atom    3 type  1   force =     0.00240093    0.00120029   -0.00924899
     atom    4 type  1   force =    -0.00444588    0.00020169   -0.00834454
     atom    5 type  1   force =    -0.00732338    0.00436936   -0.00949894
     atom    6 type  2   force =    -0.00052548   -0.00163337   -0.00893177
     atom    7 type  2   force =    -0.00200083   -0.00439683   -0.00318142
     atom    8 type  3   force =     0.00559994   -0.00138984   -0.00761008
     atom    9 type  3   force =    -0.01303385   -0.00525450   -0.00755611
     atom   10 type  3   force =     0.00231929   -0.00473430   -0.00317690
     atom   11 type  3   force =     0.00497354    0.00269824    0.00770687
     atom   12 type  3   force =     0.00288454    0.00439273   -0.00350936
     atom   13 type  3   force =     0.00329185   -0.00096148    0.00876748
     atom   14 type  3   force =    -0.00291849   -0.00583471   -0.00425537
     atom   15 type  3   force =    -0.00569693    0.00266069    0.00830689
     atom   16 type  3   force =    -0.00313706    0.00493720   -0.00443615
     atom   17 type  3   force =    -0.00489072   -0.00003529    0.00967143
     atom   18 type  4   force =    -0.00101075    0.00200684   -0.01038641
     atom   19 type  4   force =     0.00043585    0.00006658   -0.00290116
     atom   20 type  4   force =     0.00562677   -0.00130451    0.00640833
     atom   21 type  4   force =    -0.00158026    0.00029225   -0.00329785
     atom   22 type  4   force =    -0.00699399   -0.00196457    0.00673789
     atom   23 type  5   force =    -0.00109026   -0.00033236   -0.00100809

     Total force =     0.516824     Total SCF correction =     0.042492


     Computing stress (Cartesian axis) and pressure


     negative rho (up, down):  9.091E-01 9.091E-01
          total   stress  (Ry/bohr**3)                   (kbar)     P=       87.86
   0.00069493   0.00005024   0.00000064          102.23        7.39        0.09
   0.00005024   0.00069714  -0.00001282            7.39      102.55       -1.89
   0.00000064  -0.00001282   0.00039974            0.09       -1.89       58.80


     Entering Dynamics:    iteration =    20
                           time      =   0.0041 pico-seconds


ATOMIC_POSITIONS (angstrom)
Hf            2.6712898014        2.8281476933        6.6040652295
Hf            1.2529027806        1.2873558605        5.0584259033
Hf            1.2553816039        7.3911999127        5.0881060905
Hf            4.0897829678        1.2874018719        5.0584196898
Hf            4.0871782134        7.3908852336        5.0881221031
Nb            2.6713043283        2.7978449372        3.5157895613
Nb            2.6712060522        5.8778842346        6.6346419320
Ta            1.2092976423        4.3422872805        5.0710684870
Ta            4.1123861930        4.3212981530        5.0712191668
Ta            1.3082410354        1.3150607754        2.0580786064
Ta            1.3038037578        1.3092526747        8.0952208746
Ta            1.3050898552        7.3774872592        2.0455960572
Ta            1.3087626987        7.3666660356        8.0867022155
Ta            4.0341954125        1.3150279320        2.0580644651
Ta            4.0386534400        1.3092510351        8.0952371042
Ta            4.0374150362        7.3775289049        2.0456204756
Ta            4.0337256670        7.3667183466        8.0866885765
Zr            2.6712094726        5.8679925830        3.5272975185
Zr            1.2421665897        4.3231879803        1.9974122027
Zr            1.2386336621        4.3554724477        8.1523744481
Zr            4.1001685401        4.3231225578        1.9974426245
Zr            4.1037566256        4.3554422985        8.1523211448
H             5.3382768095        5.5723047419        5.0673540073


     kinetic energy (Ekin) =           4.00917058 Ry
     temperature           =       19181.75664934 K 
     Ekin + Etot (const)   =       -2939.04128438 Ry
     Ions kinetic stress =           70.81 (kbar)
                                    103.23         105.98          -0.57
                                    105.98         109.05          -0.58
                                     -0.57          -0.58           0.14



     Linear momentum :   -0.0000000000   -0.0000000000    0.0000000000

     The maximum number of steps has been reached.

     End of molecular dynamics calculation

     diffusion coefficients :
     atom     1   D =       0.00000001 cm^2/s
     atom     2   D =       0.00000000 cm^2/s
     atom     3   D =       0.00000001 cm^2/s
     atom     4   D =       0.00000004 cm^2/s
     atom     5   D =       0.00000003 cm^2/s
     atom     6   D =       0.00000001 cm^2/s
     atom     7   D =       0.00000002 cm^2/s
     atom     8   D =       0.00000001 cm^2/s
     atom     9   D =       0.00000294 cm^2/s
     atom    10   D =       0.00000001 cm^2/s
     atom    11   D =       0.00000001 cm^2/s
     atom    12   D =       0.00000002 cm^2/s
     atom    13   D =       0.00000002 cm^2/s
     atom    14   D =       0.00000001 cm^2/s
     atom    15   D =       0.00000001 cm^2/s
     atom    16   D =       0.00000002 cm^2/s
     atom    17   D =       0.00000002 cm^2/s
     atom    18   D =       0.00000002 cm^2/s
     atom    19   D =       0.00000004 cm^2/s
     atom    20   D =       0.00000005 cm^2/s
     atom    21   D =       0.00000010 cm^2/s
     atom    22   D =       0.00000010 cm^2/s
     atom    23   D =       0.00031081 cm^2/s

     < D > =       0.00001367 cm^2/s

     Writing all to output data dir outdir/pwscf.save/

     init_run     :     13.33s CPU     25.43s WALL (       1 calls)
     electrons    :   2598.11s CPU   3074.00s WALL (      20 calls)
     update_pot   :     19.92s CPU     21.05s WALL (      19 calls)
     forces       :    238.82s CPU    280.65s WALL (      20 calls)
     stress       :    317.26s CPU    354.59s WALL (      20 calls)

     Called by init_run:
     wfcinit      :      9.72s CPU     20.60s WALL (       1 calls)
     potinit      :      0.32s CPU      0.57s WALL (       1 calls)
     hinit0       :      0.79s CPU      1.09s WALL (       1 calls)

     Called by electrons:
     c_bands      :   2052.66s CPU   2439.08s WALL (     102 calls)
     sum_band     :    361.65s CPU    420.91s WALL (     102 calls)
     v_of_rho     :     11.09s CPU     13.22s WALL (     122 calls)
     newd         :    200.09s CPU    231.60s WALL (     122 calls)
     mix_rho      :      1.11s CPU      1.39s WALL (     102 calls)

     Called by c_bands:
     init_us_2    :      4.11s CPU      4.21s WALL (     490 calls)
     init_us_2:cp :      4.10s CPU      4.21s WALL (     490 calls)
     regterg      :   2037.93s CPU   2420.80s WALL (     204 calls)

     Called by *egterg:
     rdiaghg      :     68.56s CPU     85.26s WALL (    1644 calls)
     h_psi        :   1061.71s CPU   1184.43s WALL (    1684 calls)
     s_psi        :    357.19s CPU    357.97s WALL (    1684 calls)
     g_psi        :      0.74s CPU      0.80s WALL (    1478 calls)

     Called by h_psi:
     h_psi:calbec :    516.59s CPU    600.48s WALL (    1684 calls)
     vloc_psi     :    102.39s CPU    139.74s WALL (    1684 calls)
     add_vuspsi   :    441.28s CPU    442.70s WALL (    1684 calls)

     General routines
     calbec       :    905.07s CPU   1062.71s WALL (    2088 calls)
     fft          :     10.52s CPU     29.33s WALL (    2529 calls)
     ffts         :      0.23s CPU      0.31s WALL (     102 calls)
     fftw         :    110.59s CPU    151.98s WALL (  106726 calls)

     Parallel routines

     PWSCF        :  53m34.63s CPU      1h 3m WALL


   This run was terminated on:  18:46:15  16Jun2023            

=------------------------------------------------------------------------------=
   JOB DONE.
=------------------------------------------------------------------------------=
