
     Program PWSCF v.7.2 starts on 11Jun2023 at 19: 7:54 

     This program is part of the open-source Quantum ESPRESSO suite
     for quantum simulation of materials; please cite
         "P. Giannozzi et al., J. Phys.:Condens. Matter 21 395502 (2009);
         "P. Giannozzi et al., J. Phys.:Condens. Matter 29 465901 (2017);
         "P. Giannozzi et al., J. Chem. Phys. 152 154105 (2020);
          URL http://www.quantum-espresso.org", 
     in publications or presentations arising from this work. More details at
     http://www.quantum-espresso.org/quote

     Parallel version (MPI), running on    42 processors

     MPI processes distributed on     1 nodes
     185703 MiB available memory on the printing compute node when the environment starts

     Reading input from md_data/md_Hf5Nb2Ta10Zr5H_20steps_100eV_incident45_polar0.in
Warning: card &CELL ignored
Warning: card / ignored

     Current dimensions of program PWSCF are:
     Max number of different atomic species (ntypx) = 10
     Max number of k-points (npk) =  40000
     Max angular momentum in pseudopotentials (lmaxx) =  4

     gamma-point specific algorithms are used

     R & G space division:  proc/nbgrp/npool/nimage =      42
     Subspace diagonalization in iterative solution of the eigenvalue problem:
     one sub-group per band group will be used
     custom distributed-memory algorithm (size of sub-group:  2*  2 procs)


     Parallelization info
     --------------------
     sticks:   dense  smooth     PW     G-vecs:    dense   smooth      PW
     Min         239     239     59                21459    21459    2676
     Max         242     242     62                21470    21470    2688
     Sum       10131   10131   2529               901547   901547  112647

     Using Slab Decomposition



     bravais-lattice index     =            0
     lattice parameter (alat)  =      16.1383  a.u.
     unit-cell volume          =    5077.2634 (a.u.)^3
     number of atoms/cell      =           23
     number of atomic types    =            5
     number of electrons       =       277.00
     number of Kohn-Sham states=          167
     kinetic-energy cutoff     =     120.0000  Ry
     charge density cutoff     =     480.0000  Ry
     scf convergence threshold =      1.0E-03
     mixing beta               =       0.7000
     number of iterations used =            8  TF        mixing
     energy convergence thresh.=      0.0E+00
     force convergence thresh. =      0.0E+00
     Exchange-correlation=  SLA  PW   PBX  PBC
                           (   1   4   3   4   0   0   0)
     nstep                     =           20


     celldm(1)=  16.138261  celldm(2)=   0.000000  celldm(3)=   0.000000
     celldm(4)=   0.000000  celldm(5)=   0.000000  celldm(6)=   0.000000

     crystal axes: (cart. coord. in units of alat)
               a(1) = (   1.000000   0.000000   0.000000 )  
               a(2) = (   0.000000   1.016393   0.000000 )  
               a(3) = (   0.000000   0.000000   1.188496 )  

     reciprocal axes: (cart. coord. in units 2 pi/alat)
               b(1) = (  1.000000  0.000000  0.000000 )  
               b(2) = (  0.000000  0.983871  0.000000 )  
               b(3) = (  0.000000  0.000000  0.841400 )  


     PseudoPot. # 1 for Hf read from file:
     q-e/pseudo/hf_pbe_v1.uspp.F.UPF
     MD5 check sum: 8ee9378dfe14276e333edf04c5e4aa26
     Pseudo is Ultrasoft + core correction, Zval = 12.0
     Generated by new atomic code, or converted to UPF format
     Using radial grid of  921 points,  8 beta functions with: 
                l(1) =   0
                l(2) =   0
                l(3) =   0
                l(4) =   1
                l(5) =   1
                l(6) =   2
                l(7) =   2
                l(8) =   3
     Q(r) pseudized with  6 coefficients,  rinner =    1.200   1.200   1.200
                                                       1.200   1.200   1.200
                                                       1.200

     PseudoPot. # 2 for Nb read from file:
     q-e/pseudo/nb_pbe_v1.uspp.F.UPF
     MD5 check sum: 573aab8a2fa660278ed4a62cd769473f
     Pseudo is Ultrasoft + core correction, Zval = 13.0
     Generated by new atomic code, or converted to UPF format
     Using radial grid of  887 points,  6 beta functions with: 
                l(1) =   0
                l(2) =   0
                l(3) =   1
                l(4) =   1
                l(5) =   2
                l(6) =   2
     Q(r) pseudized with  6 coefficients,  rinner =    1.000   1.000   1.000
                                                       1.000   1.000

     PseudoPot. # 3 for Ta read from file:
     q-e/pseudo/ta_pbe_v1.uspp.F.UPF
     MD5 check sum: f8bbe9446314a3b8ea5d9f3e3836c939
     Pseudo is Ultrasoft + core correction, Zval = 13.0
     Generated by new atomic code, or converted to UPF format
     Using radial grid of  921 points,  7 beta functions with: 
                l(1) =   0
                l(2) =   0
                l(3) =   1
                l(4) =   1
                l(5) =   2
                l(6) =   2
                l(7) =   3
     Q(r) pseudized with  6 coefficients,  rinner =    1.300   1.300   1.300
                                                       1.300   1.300   1.300
                                                       1.300

     PseudoPot. # 4 for Zr read from file:
     q-e/pseudo/zr_pbe_v1.uspp.F.UPF
     MD5 check sum: 5db81b1e868ab7776c4564c113de050b
     Pseudo is Ultrasoft + core correction, Zval = 12.0
     Generated by new atomic code, or converted to UPF format
     Using radial grid of  887 points,  6 beta functions with: 
                l(1) =   0
                l(2) =   0
                l(3) =   1
                l(4) =   1
                l(5) =   2
                l(6) =   2
     Q(r) pseudized with  6 coefficients,  rinner =    1.200   1.200   1.200
                                                       1.200   1.200

     PseudoPot. # 5 for H  read from file:
     q-e/pseudo/h_pbe_v1.4.uspp.F.UPF
     MD5 check sum: 761ae9a214b05c3daf00ab9f6b793d6f
     Pseudo is Ultrasoft, Zval =  1.0
     Generated by new atomic code, or converted to UPF format
     Using radial grid of  615 points,  2 beta functions with: 
                l(1) =   0
                l(2) =   0
     Q(r) pseudized with  8 coefficients,  rinner =    0.700

     atomic species   valence    mass     pseudopotential
        Hf            12.00   178.49000     Hf( 1.00)
        Nb            13.00    92.90637     Nb( 1.00)
        Ta            13.00   180.94788     Ta( 1.00)
        Zr            12.00    91.22400     Zr( 1.00)
        H              1.00     2.01400     H ( 1.00)

     Starting magnetic structure 
     atomic species   magnetization
        Hf           0.000
        Nb           0.000
        Ta           0.000
        Zr           0.000
        H            0.000

     No symmetry found



   Cartesian axes

     site n.     atom                  positions (alat units)
         1           Hf  tau(   1) = (   0.3126464   0.3310449   0.7732979  )
         2           Hf  tau(   2) = (   0.1467202   0.1506188   0.5923263  )
         3           Hf  tau(   3) = (   0.1470125   0.8653167   0.5957925  )
         4           Hf  tau(   4) = (   0.4785725   0.1506188   0.5923263  )
         5           Hf  tau(   5) = (   0.4782802   0.8653167   0.5957925  )
         6           Nb  tau(   6) = (   0.3126464   0.3275094   0.4116608  )
         7           Nb  tau(   7) = (   0.3126464   0.6881006   0.7769319  )
         8           Ta  tau(   8) = (   0.1416128   0.5083054   0.5938087  )
         9           Ta  tau(   9) = (   0.4836800   0.5083054   0.5938087  )
        10           Ta  tau(  10) = (   0.1530741   0.1538785   0.2410748  )
        11           Ta  tau(  11) = (   0.1525513   0.1532074   0.9478430  )
        12           Ta  tau(  12) = (   0.1526943   0.8636799   0.2396062  )
        13           Ta  tau(  13) = (   0.1531277   0.8624219   0.9468387  )
        14           Ta  tau(  14) = (   0.4722187   0.1538785   0.2410748  )
        15           Ta  tau(  15) = (   0.4727414   0.1532074   0.9478430  )
        16           Ta  tau(  16) = (   0.4725984   0.8636799   0.2396062  )
        17           Ta  tau(  17) = (   0.4721650   0.8624219   0.9468387  )
        18           Zr  tau(  18) = (   0.3126464   0.6869187   0.4130426  )
        19           Zr  tau(  19) = (   0.1456481   0.5060981   0.2341920  )
        20           Zr  tau(  20) = (   0.1452442   0.5098505   0.9543040  )
        21           Zr  tau(  21) = (   0.4796447   0.5060981   0.2341920  )
        22           Zr  tau(  22) = (   0.4800486   0.5098505   0.9543040  )
        23           H   tau(  23) = (   0.6161590   0.6406758   0.5939321  )

     number of k points=     1  Gaussian smearing, width (Ry)=  0.0220
                       cart. coord. in units 2pi/alat
        k(    1) = (   0.0000000   0.0000000   0.0000000), wk =   1.0000000

     Dense  grid:   450774 G-vectors     FFT dimensions: ( 120, 120, 135)

     Estimated max dynamical RAM per process >     123.77 MB

     Estimated total dynamical RAM >       5.08 GB

     Check: negative core charge=   -0.000002
     Generating pointlists ...
     new r_m :   0.1087 (alat units)  1.7547 (a.u.) for type    1
     new r_m :   0.1201 (alat units)  1.9374 (a.u.) for type    2
     new r_m :   0.0773 (alat units)  1.2467 (a.u.) for type    3
     new r_m :   0.1216 (alat units)  1.9625 (a.u.) for type    4
     new r_m :   0.0773 (alat units)  1.2467 (a.u.) for type    5

     Initial potential from superposition of free atoms

     starting charge     266.9726, renormalised to     277.0000

     negative rho (up, down):  9.226E-01 9.226E-01
     Starting wfcs are  287 randomized atomic wfcs

     total cpu time spent up to now is       11.1 secs

     Self-consistent Calculation

     iteration #  1     ecut=   120.00 Ry     beta= 0.70
     Davidson diagonalization with overlap
     ethr =  1.00E-02,  avg # of iterations =  3.0

     negative rho (up, down):  9.850E-01 9.850E-01

     total cpu time spent up to now is       27.6 secs

     total energy              =   -2931.82519652 Ry
     estimated scf accuracy    <     287.50916450 Ry

     total magnetization       =    -0.00 Bohr mag/cell
     absolute magnetization    =     0.10 Bohr mag/cell

     iteration #  2     ecut=   120.00 Ry     beta= 0.70
     Davidson diagonalization with overlap
     ethr =  1.00E-02,  avg # of iterations =  4.0

     negative rho (up, down):  9.440E-01 9.459E-01

     total cpu time spent up to now is       44.7 secs

     total energy              =   -2942.12025428 Ry
     estimated scf accuracy    <      35.30838738 Ry

     total magnetization       =    -0.04 Bohr mag/cell
     absolute magnetization    =     0.32 Bohr mag/cell

     iteration #  3     ecut=   120.00 Ry     beta= 0.70
     Davidson diagonalization with overlap
     ethr =  1.00E-02,  avg # of iterations =  2.0

     negative rho (up, down):  9.725E-01 9.761E-01

     total cpu time spent up to now is       59.7 secs

     total energy              =   -2942.66495937 Ry
     estimated scf accuracy    <      14.91483383 Ry

     total magnetization       =    -0.05 Bohr mag/cell
     absolute magnetization    =     0.45 Bohr mag/cell

     iteration #  4     ecut=   120.00 Ry     beta= 0.70
     Davidson diagonalization with overlap
     ethr =  5.38E-03,  avg # of iterations =  3.5

     negative rho (up, down):  9.672E-01 9.702E-01

     total cpu time spent up to now is       73.9 secs

     total energy              =   -2942.96059951 Ry
     estimated scf accuracy    <       3.16912843 Ry

     total magnetization       =     0.01 Bohr mag/cell
     absolute magnetization    =     0.45 Bohr mag/cell

     iteration #  5     ecut=   120.00 Ry     beta= 0.70
     Davidson diagonalization with overlap
     ethr =  1.14E-03,  avg # of iterations =  8.0

     negative rho (up, down):  9.414E-01 9.432E-01

     total cpu time spent up to now is       92.4 secs

     total energy              =   -2943.07569298 Ry
     estimated scf accuracy    <       1.44733988 Ry

     total magnetization       =     0.06 Bohr mag/cell
     absolute magnetization    =     0.26 Bohr mag/cell

     iteration #  6     ecut=   120.00 Ry     beta= 0.70
     Davidson diagonalization with overlap
     ethr =  5.23E-04,  avg # of iterations =  3.0

     negative rho (up, down):  9.310E-01 9.321E-01

     total cpu time spent up to now is      107.3 secs

     total energy              =   -2943.08046750 Ry
     estimated scf accuracy    <       1.14771695 Ry

     total magnetization       =     0.03 Bohr mag/cell
     absolute magnetization    =     0.19 Bohr mag/cell

     iteration #  7     ecut=   120.00 Ry     beta= 0.70
     Davidson diagonalization with overlap
     ethr =  4.14E-04,  avg # of iterations =  2.0

     negative rho (up, down):  9.127E-01 9.128E-01

     total cpu time spent up to now is      121.4 secs

     total energy              =   -2943.05835872 Ry
     estimated scf accuracy    <       0.28659879 Ry

     total magnetization       =     0.04 Bohr mag/cell
     absolute magnetization    =     0.18 Bohr mag/cell

     iteration #  8     ecut=   120.00 Ry     beta= 0.70
     Davidson diagonalization with overlap
     ethr =  1.03E-04,  avg # of iterations = 11.0

     negative rho (up, down):  9.069E-01 9.069E-01

     total cpu time spent up to now is      138.1 secs

     total energy              =   -2943.05855044 Ry
     estimated scf accuracy    <       0.24284431 Ry

     total magnetization       =     0.05 Bohr mag/cell
     absolute magnetization    =     0.16 Bohr mag/cell

     iteration #  9     ecut=   120.00 Ry     beta= 0.70
     Davidson diagonalization with overlap
     ethr =  8.77E-05,  avg # of iterations =  2.0

     negative rho (up, down):  9.080E-01 9.080E-01

     total cpu time spent up to now is      151.6 secs

     total energy              =   -2943.06549961 Ry
     estimated scf accuracy    <       0.05507909 Ry

     total magnetization       =     0.04 Bohr mag/cell
     absolute magnetization    =     0.12 Bohr mag/cell

     iteration # 10     ecut=   120.00 Ry     beta= 0.70
     Davidson diagonalization with overlap
     ethr =  1.99E-05,  avg # of iterations = 10.5

     negative rho (up, down):  9.089E-01 9.090E-01

     total cpu time spent up to now is      169.1 secs

     total energy              =   -2943.06917677 Ry
     estimated scf accuracy    <       0.04596866 Ry

     total magnetization       =     0.04 Bohr mag/cell
     absolute magnetization    =     0.11 Bohr mag/cell

     iteration # 11     ecut=   120.00 Ry     beta= 0.70
     Davidson diagonalization with overlap
     ethr =  1.66E-05,  avg # of iterations =  2.0

     negative rho (up, down):  9.098E-01 9.099E-01

     total cpu time spent up to now is      182.5 secs

     total energy              =   -2943.07262448 Ry
     estimated scf accuracy    <       0.00669658 Ry

     total magnetization       =     0.04 Bohr mag/cell
     absolute magnetization    =     0.10 Bohr mag/cell

     iteration # 12     ecut=   120.00 Ry     beta= 0.70
     Davidson diagonalization with overlap
     ethr =  2.42E-06,  avg # of iterations = 11.5

     negative rho (up, down):  9.098E-01 9.099E-01

     Magnetic moment per site  (integrated on atomic sphere of radius R)
     atom   1 (R=0.109)  charge=  8.5389  magn= -0.0002
     atom   2 (R=0.109)  charge=  8.2942  magn=  0.0001
     atom   3 (R=0.109)  charge=  8.2937  magn=  0.0001
     atom   4 (R=0.109)  charge=  8.2961  magn= -0.0003
     atom   5 (R=0.109)  charge=  8.2880  magn= -0.0001
     atom   6 (R=0.120)  charge= 10.3460  magn= -0.0007
     atom   7 (R=0.120)  charge= 10.3444  magn=  0.0001
     atom   8 (R=0.077)  charge=  5.9435  magn= -0.0003
     atom   9 (R=0.077)  charge=  5.9583  magn= -0.0005
     atom  10 (R=0.077)  charge=  5.9251  magn=  0.0004
     atom  11 (R=0.077)  charge=  5.9259  magn=  0.0001
     atom  12 (R=0.077)  charge=  5.9259  magn=  0.0003
     atom  13 (R=0.077)  charge=  5.9250  magn= -0.0003
     atom  14 (R=0.077)  charge=  5.9255  magn=  0.0005
     atom  15 (R=0.077)  charge=  5.9255  magn=  0.0000
     atom  16 (R=0.077)  charge=  5.9272  magn=  0.0018
     atom  17 (R=0.077)  charge=  5.9254  magn= -0.0002
     atom  18 (R=0.122)  charge=  9.4542  magn= -0.0011
     atom  19 (R=0.122)  charge=  8.9951  magn=  0.0062
     atom  20 (R=0.122)  charge=  8.9948  magn= -0.0001
     atom  21 (R=0.122)  charge=  8.9990  magn=  0.0077
     atom  22 (R=0.122)  charge=  8.9996  magn=  0.0005
     atom  23 (R=0.077)  charge=  0.9228  magn=  0.0000

     total cpu time spent up to now is      201.4 secs

     End of self-consistent calculation

 ------ SPIN UP ------------


          k = 0.0000 0.0000 0.0000 ( 56324 PWs)   bands (ev):

   -59.7653 -59.7583 -59.7204 -59.7135 -59.6907 -59.6831 -59.6468 -59.6396
   -59.5276 -59.1590 -53.3469 -53.2860 -53.2209 -53.1553 -51.6719 -45.2284
   -45.1953 -40.6211 -40.6151 -40.5311 -40.5207 -38.7814 -26.7697 -26.7605
   -26.6864 -26.6726 -26.5812 -26.5754 -26.4606 -26.4519 -26.3493 -26.3064
   -26.2795 -26.2448 -26.2352 -26.2147 -26.2008 -26.1623 -26.1428 -26.1294
   -26.0835 -25.9459 -25.9435 -25.9406 -25.9336 -25.8813 -25.8742 -25.8628
   -25.8480 -25.8405 -25.8357 -25.8046 -23.1282 -22.9089 -22.6184 -22.5232
   -22.2689 -22.1333 -22.1157 -22.0095 -21.8885 -21.8123 -21.7906 -21.5668
   -21.4650 -21.4062 -21.3575 -21.3074 -21.2303 -21.1805 -20.7307 -20.6597
   -20.6047 -19.1839 -18.9127 -18.8286 -18.8245 -18.5929 -18.5850 -18.5815
   -18.5702 -18.5565 -18.5216 -18.3539 -18.3440 -17.1258 -16.9308 -16.7968
     2.2555   3.3675   3.9448   4.1744   4.3448   4.5121   4.5650   4.6967
     4.7342   4.8919   4.9490   5.1090   5.2129   5.5357   5.5757   5.7190
     5.7948   5.8488   6.0583   6.1139   6.1893   6.2860   6.3050   6.3738
     6.4141   6.5737   6.6587   6.7324   6.7588   6.7765   6.7931   6.8742
     6.9921   7.1061   7.1935   7.2548   7.2857   7.3217   7.3855   7.3962
     7.4183   7.6162   7.7165   7.7486   7.8974   7.9652   7.9998   8.1190
     8.1462   8.2125   8.2895   8.3167   8.3299   8.4567   8.5427   8.5633
     8.6308   8.8218   8.8950   8.9622   9.0925   9.0943   9.2774   9.3097
     9.3239   9.3637   9.3829   9.4188   9.4657   9.6345   9.6955   9.7125
     9.9281   9.9857  10.0870  10.1281  10.1624  10.2583  10.2980

 ------ SPIN DOWN ----------


          k = 0.0000 0.0000 0.0000 ( 56324 PWs)   bands (ev):

   -59.7641 -59.7587 -59.7192 -59.7139 -59.6892 -59.6833 -59.6452 -59.6398
   -59.5285 -59.1601 -53.3470 -53.2864 -53.2210 -53.1558 -51.6720 -45.2282
   -45.1958 -40.6151 -40.6140 -40.5309 -40.5139 -38.7825 -26.7684 -26.7609
   -26.6849 -26.6730 -26.5808 -26.5750 -26.4605 -26.4502 -26.3496 -26.3056
   -26.2795 -26.2431 -26.2356 -26.2143 -26.1997 -26.1628 -26.1411 -26.1294
   -26.0849 -25.9443 -25.9439 -25.9408 -25.9327 -25.8813 -25.8732 -25.8633
   -25.8463 -25.8412 -25.8367 -25.8065 -23.1286 -22.9095 -22.6185 -22.5232
   -22.2693 -22.1336 -22.1160 -22.0098 -21.8889 -21.8126 -21.7908 -21.5670
   -21.4649 -21.4064 -21.3574 -21.3075 -21.2304 -21.1808 -20.7307 -20.6598
   -20.6049 -19.1767 -18.9131 -18.8213 -18.8165 -18.5915 -18.5804 -18.5787
   -18.5675 -18.5529 -18.5211 -18.3451 -18.3435 -17.1271 -16.9314 -16.7970
     2.2552   3.3671   3.9458   4.1743   4.3443   4.5129   4.5655   4.6966
     4.7340   4.8924   4.9502   5.1090   5.2137   5.5357   5.5762   5.7199
     5.7954   5.8499   6.0596   6.1152   6.1899   6.2876   6.3060   6.3748
     6.4144   6.5746   6.6596   6.7334   6.7607   6.7775   6.7926   6.8746
     6.9925   7.1072   7.1941   7.2556   7.2865   7.3221   7.3875   7.3974
     7.4193   7.6168   7.7174   7.7495   7.8986   7.9675   8.0025   8.1217
     8.1489   8.2158   8.2945   8.3183   8.3306   8.4605   8.5470   8.5662
     8.6324   8.8230   8.8963   8.9623   9.0939   9.0968   9.2782   9.3108
     9.3259   9.3650   9.3852   9.4192   9.4672   9.6377   9.6970   9.7145
     9.9299   9.9889  10.0885  10.1294  10.1638  10.2581  10.3004

     the Fermi energy is     8.2683 ev

!    total energy              =   -2943.07443471 Ry
     estimated scf accuracy    <       0.00090220 Ry
     smearing contrib. (-TS)   =      -0.10420010 Ry
     internal energy E=F+TS    =   -2942.97023461 Ry

     total magnetization       =     0.04 Bohr mag/cell
     absolute magnetization    =     0.08 Bohr mag/cell

     convergence has been achieved in  12 iterations

     negative rho (up, down):  9.098E-01 9.099E-01

     Forces acting on atoms (cartesian axes, Ry/au):

     atom    1 type  1   force =    -0.00718204   -0.02773760    0.01456456
     atom    2 type  1   force =    -0.12239619   -0.02117120   -0.00236859
     atom    3 type  1   force =    -0.12281808    0.01595835    0.00188190
     atom    4 type  1   force =     0.13197187   -0.01198523   -0.00308339
     atom    5 type  1   force =     0.13378140   -0.02098692    0.00414791
     atom    6 type  2   force =    -0.00576057   -0.01907800    0.00741309
     atom    7 type  2   force =    -0.01157807    0.01118934   -0.00924261
     atom    8 type  3   force =    -0.11941231    0.00713078   -0.00562018
     atom    9 type  3   force =     0.03972818   -0.08070152   -0.00084698
     atom   10 type  3   force =    -0.02489974   -0.02789160   -0.06012824
     atom   11 type  3   force =    -0.02330335   -0.03274881    0.05590258
     atom   12 type  3   force =    -0.01360339    0.03346725   -0.05686646
     atom   13 type  3   force =    -0.01795690    0.02887248    0.06113116
     atom   14 type  3   force =     0.02082773   -0.03308205   -0.06263665
     atom   15 type  3   force =     0.02001147   -0.03579027    0.05902796
     atom   16 type  3   force =     0.01615307    0.04067257   -0.05659858
     atom   17 type  3   force =     0.01821042    0.03544197    0.06133397
     atom   18 type  4   force =    -0.01089215    0.02127453   -0.00870384
     atom   19 type  4   force =    -0.13541728   -0.00462435   -0.11791969
     atom   20 type  4   force =    -0.13802094    0.00404595    0.12012144
     atom   21 type  4   force =     0.12854165   -0.00753262   -0.12044404
     atom   22 type  4   force =     0.13368309    0.00204143    0.12077459
     atom   23 type  5   force =     0.11033216    0.12323552   -0.00183992
     The non-local contrib.  to forces
     atom    1 type  1   force =     0.00487817   -0.00418526    0.02288371
     atom    2 type  1   force =    -0.24804232   -0.16411714    0.01699810
     atom    3 type  1   force =    -0.23843350    0.15531419   -0.02725251
     atom    4 type  1   force =     0.24689146   -0.17594813    0.01699972
     atom    5 type  1   force =     0.22552286    0.15449541   -0.02709034
     atom    6 type  2   force =     0.00912815   -0.05749863   -0.07650400
     atom    7 type  2   force =    -0.01201147    0.07566053    0.06229199
     atom    8 type  3   force =    -0.25355522    0.00362935   -0.00463599
     atom    9 type  3   force =     0.09899257   -0.11107416   -0.00748237
     atom   10 type  3   force =    -0.22450841    0.00440521   -0.21498235
     atom   11 type  3   force =    -0.22877480    0.00486969    0.20571343
     atom   12 type  3   force =    -0.21012176   -0.02414350   -0.18104385
     atom   13 type  3   force =    -0.22074664   -0.00515141    0.21093078
     atom   14 type  3   force =     0.21420117    0.00040425   -0.22004039
     atom   15 type  3   force =     0.22209713    0.00579769    0.20752785
     atom   16 type  3   force =     0.22210255   -0.02618399   -0.17803651
     atom   17 type  3   force =     0.22918347   -0.00887902    0.20767241
     atom   18 type  4   force =    -0.01530779    0.06805538   -0.06318206
     atom   19 type  4   force =     0.06644593    0.00835555    0.06845993
     atom   20 type  4   force =     0.06247291   -0.01309911   -0.06477260
     atom   21 type  4   force =    -0.06415095    0.00970310    0.06162301
     atom   22 type  4   force =    -0.05986324   -0.01054722   -0.05146140
     atom   23 type  5   force =    -0.06184907   -0.04069573   -0.00052777
     The ionic contribution  to forces
     atom    1 type  1   force =    -0.17887244   -4.75911986   14.32335605
     atom    2 type  1   force =   -35.67734899   -6.14046328    0.77916199
     atom    3 type  1   force =   -35.69331104    6.25830099   -0.71215957
     atom    4 type  1   force =    35.54717431   -6.17092966    0.77843621
     atom    5 type  1   force =    34.98835334    7.15297764   -0.70461567
     atom    6 type  2   force =    -0.18872322   -3.72498197  -14.24642029
     atom    7 type  2   force =    -0.51609277    3.65689612   14.49436733
     atom    8 type  3   force =   -47.63708770   -0.05268861   -0.06562108
     atom    9 type  3   force =    45.60881853   -1.88651659   -0.06733727
     atom   10 type  3   force =   -32.20032111   -2.09266891  -23.49635824
     atom   11 type  3   force =   -31.26948817   -0.84160791   22.49907042
     atom   12 type  3   force =   -31.39672403    0.85695507  -22.59301435
     atom   13 type  3   force =   -32.18955490    2.24579174   23.52493848
     atom   14 type  3   force =    32.12860362   -2.10304615  -23.55277428
     atom   15 type  3   force =    31.19840120   -0.85161689   22.55537541
     atom   16 type  3   force =    31.23949828    0.97499871  -22.78442372
     atom   17 type  3   force =    32.02972115    2.36514600   23.71878489
     atom   18 type  4   force =    -0.48232364    4.42456954  -14.38033037
     atom   19 type  4   force =   -32.19006925    0.90789534  -25.99114311
     atom   20 type  4   force =   -32.16415165   -1.00832362   25.97005601
     atom   21 type  4   force =    32.01440921    0.80981094  -26.25073434
     atom   22 type  4   force =    31.98814447   -1.10459047   26.23237449
     atom   23 type  5   force =     5.04094479    1.08321184   -0.03098897
     The local contribution  to forces
     atom    1 type  1   force =     0.16539110    4.72649152  -14.32159278
     atom    2 type  1   force =    35.80731091    6.27351522   -0.79532265
     atom    3 type  1   force =    35.81814645   -6.39174446    0.74022518
     atom    4 type  1   force =   -35.66721997    6.32331662   -0.79786900
     atom    5 type  1   force =   -35.08122305   -7.32466120    0.73381616
     atom    6 type  2   force =     0.17279230    3.76151698   14.32574796
     atom    7 type  2   force =     0.51428402   -3.71921901  -14.56329825
     atom    8 type  3   force =    47.77613548    0.05814142    0.06298364
     atom    9 type  3   force =   -45.65768360    1.93395832    0.07265232
     atom   10 type  3   force =    32.41334084    2.04409962   23.66234230
     atom   11 type  3   force =    31.49673338    0.79343015  -22.66544475
     atom   12 type  3   force =    31.61367591   -0.79016050   22.72508489
     atom   13 type  3   force =    32.40916675   -2.19806828  -23.68323671
     atom   14 type  3   force =   -32.33118269    2.05037637   23.72253001
     atom   15 type  3   force =   -31.42130215    0.80184647  -22.71936830
     atom   16 type  3   force =   -31.46449939   -0.89553044   22.91400456
     atom   17 type  3   force =   -32.25803776   -2.31021916  -23.87297122
     atom   18 type  4   force =     0.48439240   -4.46060904   14.42632418
     atom   19 type  4   force =    31.98890400   -0.91499492   25.80277455
     atom   20 type  4   force =    31.96823482    1.02379235  -25.77996244
     atom   21 type  4   force =   -31.82170376   -0.82241050   26.06350211
     atom   22 type  4   force =   -31.79688060    1.11498784  -26.05199248
     atom   23 type  5   force =    -4.86650046   -0.91922205    0.02956924
     The core correction contribution to forces
     atom    1 type  1   force =    -0.00003768    0.00349224   -0.00302858
     atom    2 type  1   force =    -0.01022742   -0.00098012    0.00097048
     atom    3 type  1   force =    -0.01114891    0.00296966   -0.00152069
     atom    4 type  1   force =     0.01090296   -0.00295381    0.00095409
     atom    5 type  1   force =     0.00338762    0.00826228   -0.00185188
     atom    6 type  2   force =    -0.00034402    0.00287298    0.00332422
     atom    7 type  2   force =     0.00047479   -0.00370059   -0.00245146
     atom    8 type  3   force =    -0.02906411    0.00107026   -0.00074880
     atom    9 type  3   force =     0.00940568   -0.01475125   -0.00076012
     atom   10 type  3   force =    -0.02329671    0.00855978   -0.01721323
     atom   11 type  3   force =    -0.02537043    0.00872423    0.01782955
     atom   12 type  3   force =    -0.02251189   -0.00994200   -0.01488448
     atom   13 type  3   force =    -0.02309327   -0.00877472    0.01616452
     atom   14 type  3   force =     0.02231662    0.00881067   -0.01702417
     atom   15 type  3   force =     0.02381159    0.00957342    0.01757560
     atom   16 type  3   force =     0.02387264   -0.01042072   -0.01367701
     atom   17 type  3   force =     0.02357516   -0.00881268    0.01504493
     atom   18 type  4   force =     0.00080723   -0.00368400    0.00308729
     atom   19 type  4   force =    -0.01013997    0.00013424   -0.00940845
     atom   20 type  4   force =    -0.00999677    0.00031285    0.00941328
     atom   21 type  4   force =     0.01012848    0.00018064   -0.00889621
     atom   22 type  4   force =     0.00992987    0.00021498    0.00848116
     atom   23 type  5   force =     0.00000000    0.00000000    0.00000000
     The Hubbard contrib.    to forces
     atom    1 type  1   force =     0.00000000    0.00000000    0.00000000
     atom    2 type  1   force =     0.00000000    0.00000000    0.00000000
     atom    3 type  1   force =     0.00000000    0.00000000    0.00000000
     atom    4 type  1   force =     0.00000000    0.00000000    0.00000000
     atom    5 type  1   force =     0.00000000    0.00000000    0.00000000
     atom    6 type  2   force =     0.00000000    0.00000000    0.00000000
     atom    7 type  2   force =     0.00000000    0.00000000    0.00000000
     atom    8 type  3   force =     0.00000000    0.00000000    0.00000000
     atom    9 type  3   force =     0.00000000    0.00000000    0.00000000
     atom   10 type  3   force =     0.00000000    0.00000000    0.00000000
     atom   11 type  3   force =     0.00000000    0.00000000    0.00000000
     atom   12 type  3   force =     0.00000000    0.00000000    0.00000000
     atom   13 type  3   force =     0.00000000    0.00000000    0.00000000
     atom   14 type  3   force =     0.00000000    0.00000000    0.00000000
     atom   15 type  3   force =     0.00000000    0.00000000    0.00000000
     atom   16 type  3   force =     0.00000000    0.00000000    0.00000000
     atom   17 type  3   force =     0.00000000    0.00000000    0.00000000
     atom   18 type  4   force =     0.00000000    0.00000000    0.00000000
     atom   19 type  4   force =     0.00000000    0.00000000    0.00000000
     atom   20 type  4   force =     0.00000000    0.00000000    0.00000000
     atom   21 type  4   force =     0.00000000    0.00000000    0.00000000
     atom   22 type  4   force =     0.00000000    0.00000000    0.00000000
     atom   23 type  5   force =     0.00000000    0.00000000    0.00000000
     The SCF correction term to forces
     atom    1 type  1   force =     0.00000000    0.00000000   -0.00000000
     atom    2 type  1   force =     0.00000000    0.00000000   -0.00000000
     atom    3 type  1   force =     0.00000000   -0.00000000    0.00000000
     atom    4 type  1   force =    -0.00000000    0.00000000   -0.00000000
     atom    5 type  1   force =    -0.00000000   -0.00000000    0.00000000
     atom    6 type  2   force =     0.00000000   -0.00000000    0.00000000
     atom    7 type  2   force =     0.00000000    0.00000000   -0.00000000
     atom    8 type  3   force =     0.00000000   -0.00000000    0.00000000
     atom    9 type  3   force =    -0.00000000   -0.00000000    0.00000000
     atom   10 type  3   force =     0.00995020    0.00765700    0.00621135
     atom   11 type  3   force =     0.00366122    0.00177931   -0.00113800
     atom   12 type  3   force =     0.00214294    0.00070247    0.00711939
     atom   13 type  3   force =     0.00633571   -0.00498056   -0.00753784
     atom   14 type  3   force =    -0.01304643    0.01031710    0.00480026
     atom   15 type  3   force =    -0.00293175   -0.00144667   -0.00195453
     atom   16 type  3   force =    -0.00475646   -0.00224670    0.00566216
     atom   17 type  3   force =    -0.00616705   -0.00184888   -0.00706896
     atom   18 type  4   force =     0.00160420   -0.00711305    0.00552519
     atom   19 type  4   force =     0.00950656   -0.00607028    0.01152546
     atom   20 type  4   force =     0.00548430    0.00130777   -0.01448475
     atom   21 type  4   force =    -0.01007677   -0.00487250    0.01418945
     atom   22 type  4   force =    -0.00758286    0.00192059   -0.01649910
     atom   23 type  5   force =    -0.00219856   -0.00011425    0.00023566

     Total force =     0.444511     Total SCF correction =     0.045905
     SCF correction compared to forces is large: reduce conv_thr to get better values


     Computing stress (Cartesian axis) and pressure


     negative rho (up, down):  9.098E-01 9.099E-01
          total   stress  (Ry/bohr**3)                   (kbar)     P=       92.47
   0.00069452   0.00005564   0.00000124          102.17        8.18        0.18
   0.00005564   0.00076452  -0.00001276            8.18      112.46       -1.88
   0.00000124  -0.00001276   0.00042668            0.18       -1.88       62.77


     Molecular Dynamics Calculation

     Starting temperature  =   300.00 K

     temperature is set once at start

     mass Hf               =   178.49
     mass Nb               =    92.91
     mass Ta               =   180.95
     mass Zr               =    91.22
     mass H                =     2.01
     Time step             =     4.20 a.u.,  0.2032 femto-seconds

     Entering Dynamics:    iteration =     1
                           time      =   0.0002 pico-seconds


ATOMIC_POSITIONS (angstrom)
Hf            2.6699999570        2.8271230292        6.6039642186    0   0   0
Hf            1.2529906802        1.2862841814        5.0584662261    0   0   0
Hf            1.2554868986        7.3898042948        5.0880677674    0   0   0
Hf            4.0870092338        1.2862841814        5.0584662261    0   0   0
Hf            4.0845130154        7.3898042948        5.0880677674    0   0   0
Nb            2.6699999570        2.7969306055        3.5155832167    0   0   0
Nb            2.6699999570        5.8763786763        6.6349979432    0   0   0
Ta            1.2093730560        4.3409278516        5.0711258323    0   0   0
Ta            4.1306268580        4.3409278516        5.0711258323    0   0   0
Ta            1.3072519794        1.3141218001        2.0587774085
Ta            1.3027876547        1.3083902092        8.0945807844
Ta            1.3040092371        7.3758270712        2.0462355705
Ta            1.3077102902        7.3650837655        8.0860039508
Ta            4.0327478193        1.3141216532        2.0587773375
Ta            4.0372121661        1.3083901231        8.0945808729
Ta            4.0359907490        7.3758272751        2.0462355781
Ta            4.0322896310        7.3650839514        8.0860039566
Zr            2.6699993456        5.8662870376        3.5273834418
Zr            1.2438270174        4.3220777049        1.9999933806
Zr            1.2403776650        4.3541235116        8.1497622923
Zr            4.0961725106        4.3220775417        1.9999932389
Zr            4.0996220055        4.3541233991        8.1497623289
H             5.1919569386        5.4013628391        5.0721751166


     kinetic energy (Ekin) =           1.83764883 Ry
     temperature           =       13816.27629488 K 
     Ekin + Etot (const)   =       -2941.23678588 Ry
     Ions kinetic stress =           35.50 (kbar)
                                     53.24          53.24           0.00
                                     53.24          53.24           0.00
                                      0.00           0.00           0.00



     File outdir/pwscf.msd.dat deleted, as requested

     Writing config-only to output data dir outdir/pwscf.save/
     NEW-OLD atomic charge density approx. for the potential

     Check: negative core charge=   -0.000002

     negative rho (up, down):  9.098E-01 9.098E-01
     Generating pointlists ...
     new r_m :   0.0725 (alat units)  1.1695 (a.u.) for type    3
     new r_m :   0.0725 (alat units)  1.1695 (a.u.) for type    5

     total cpu time spent up to now is      226.1 secs

     Self-consistent Calculation

     iteration #  1     ecut=   120.00 Ry     beta= 0.70
     Davidson diagonalization with overlap
     ethr =  1.00E-06,  avg # of iterations =  8.0

     negative rho (up, down):  9.100E-01 9.100E-01

     total cpu time spent up to now is      251.4 secs

     total energy              =   -2943.03201463 Ry
     estimated scf accuracy    <       0.02564663 Ry

     total magnetization       =     0.04 Bohr mag/cell
     absolute magnetization    =     0.07 Bohr mag/cell

     iteration #  2     ecut=   120.00 Ry     beta= 0.70
     Davidson diagonalization with overlap
     ethr =  9.26E-06,  avg # of iterations =  2.0

     negative rho (up, down):  9.099E-01 9.099E-01

     total cpu time spent up to now is      266.2 secs

     total energy              =   -2943.03477892 Ry
     estimated scf accuracy    <       0.00367742 Ry

     total magnetization       =     0.04 Bohr mag/cell
     absolute magnetization    =     0.06 Bohr mag/cell

     iteration #  3     ecut=   120.00 Ry     beta= 0.70
     Davidson diagonalization with overlap
     ethr =  1.33E-06,  avg # of iterations =  2.0

     negative rho (up, down):  9.097E-01 9.097E-01

     Magnetic moment per site  (integrated on atomic sphere of radius R)
     atom   1 (R=0.109)  charge=  8.5416  magn=  0.0000
     atom   2 (R=0.109)  charge=  8.2938  magn=  0.0001
     atom   3 (R=0.109)  charge=  8.2943  magn=  0.0000
     atom   4 (R=0.109)  charge=  8.2971  magn= -0.0000
     atom   5 (R=0.109)  charge=  8.2875  magn=  0.0001
     atom   6 (R=0.120)  charge= 10.3467  magn= -0.0001
     atom   7 (R=0.120)  charge= 10.3462  magn=  0.0003
     atom   8 (R=0.072)  charge=  5.2342  magn= -0.0001
     atom   9 (R=0.072)  charge=  5.2515  magn= -0.0000
     atom  10 (R=0.072)  charge=  5.2190  magn=  0.0003
     atom  11 (R=0.072)  charge=  5.2199  magn=  0.0001
     atom  12 (R=0.072)  charge=  5.2183  magn=  0.0001
     atom  13 (R=0.072)  charge=  5.2210  magn= -0.0001
     atom  14 (R=0.072)  charge=  5.2185  magn=  0.0003
     atom  15 (R=0.072)  charge=  5.2198  magn=  0.0001
     atom  16 (R=0.072)  charge=  5.2175  magn=  0.0010
     atom  17 (R=0.072)  charge=  5.2215  magn= -0.0000
     atom  18 (R=0.122)  charge=  9.4548  magn= -0.0003
     atom  19 (R=0.122)  charge=  8.9971  magn=  0.0040
     atom  20 (R=0.122)  charge=  8.9962  magn= -0.0005
     atom  21 (R=0.122)  charge=  9.0013  magn=  0.0051
     atom  22 (R=0.122)  charge=  9.0005  magn=  0.0001
     atom  23 (R=0.072)  charge=  0.8967  magn=  0.0000

     total cpu time spent up to now is      279.5 secs

     End of self-consistent calculation

 ------ SPIN UP ------------


          k = 0.0000 0.0000 0.0000 ( 56324 PWs)   bands (ev):

   -59.7749 -59.7635 -59.7302 -59.7184 -59.6980 -59.6826 -59.6542 -59.6374
   -59.5285 -59.0798 -53.3623 -53.3108 -53.2338 -53.1697 -51.6892 -45.2325
   -45.2046 -40.6372 -40.6240 -40.5401 -40.5367 -38.7951 -26.7794 -26.7667
   -26.6903 -26.6838 -26.5950 -26.5773 -26.4740 -26.4431 -26.3539 -26.3153
   -26.2866 -26.2533 -26.2453 -26.2240 -26.2018 -26.1671 -26.1465 -26.1325
   -26.0859 -25.9592 -25.9552 -25.9431 -25.9328 -25.8928 -25.8748 -25.8663
   -25.8527 -25.8392 -25.7857 -25.7506 -23.1428 -22.9251 -22.6329 -22.5406
   -22.2828 -22.1492 -22.1322 -22.0232 -21.9024 -21.8326 -21.8055 -21.5852
   -21.4737 -21.4168 -21.3693 -21.3180 -21.2417 -21.1909 -20.7470 -20.6748
   -20.6223 -19.1981 -18.9230 -18.8412 -18.8383 -18.6033 -18.5987 -18.5922
   -18.5824 -18.5664 -18.5297 -18.3676 -18.3535 -17.1400 -16.9437 -16.8116
     2.1964   3.2827   3.9351   4.1636   4.3318   4.5046   4.5543   4.6877
     4.7285   4.8842   4.9382   5.1020   5.2062   5.5277   5.5552   5.7080
     5.7878   5.8344   6.0483   6.1024   6.1739   6.2796   6.2940   6.3655
     6.3987   6.5635   6.6584   6.7225   6.7523   6.7667   6.7871   6.8690
     6.9861   7.1047   7.1864   7.2493   7.2760   7.3235   7.3782   7.3840
     7.4048   7.6089   7.7084   7.7458   7.8945   7.9608   7.9923   8.1137
     8.1351   8.2058   8.2735   8.3084   8.3216   8.4527   8.5357   8.5529
     8.6248   8.8169   8.8847   8.9543   9.0853   9.0914   9.2691   9.3037
     9.3186   9.3545   9.3771   9.4190   9.4612   9.6265   9.6874   9.7066
     9.9239   9.9888  10.0762  10.1215  10.1552  10.2534  10.2870

 ------ SPIN DOWN ----------


          k = 0.0000 0.0000 0.0000 ( 56324 PWs)   bands (ev):

   -59.7751 -59.7626 -59.7304 -59.7175 -59.6980 -59.6814 -59.6542 -59.6359
   -59.5287 -59.0800 -53.3623 -53.3107 -53.2338 -53.1698 -51.6891 -45.2323
   -45.2047 -40.6328 -40.6240 -40.5402 -40.5323 -38.7955 -26.7796 -26.7655
   -26.6904 -26.6824 -26.5952 -26.5759 -26.4740 -26.4412 -26.3540 -26.3148
   -26.2864 -26.2534 -26.2441 -26.2239 -26.2004 -26.1671 -26.1461 -26.1310
   -26.0862 -25.9594 -25.9552 -25.9416 -25.9317 -25.8927 -25.8739 -25.8658
   -25.8526 -25.8375 -25.7860 -25.7510 -23.1428 -22.9251 -22.6328 -22.5405
   -22.2828 -22.1492 -22.1322 -22.0232 -21.9024 -21.8325 -21.8055 -21.5852
   -21.4736 -21.4168 -21.3691 -21.3179 -21.2415 -21.1909 -20.7470 -20.6748
   -20.6222 -19.1934 -18.9236 -18.8369 -18.8326 -18.6019 -18.5961 -18.5904
   -18.5805 -18.5651 -18.5296 -18.3613 -18.3537 -17.1403 -16.9437 -16.8114
     2.1967   3.2831   3.9362   4.1640   4.3320   4.5056   4.5549   4.6880
     4.7289   4.8847   4.9394   5.1024   5.2072   5.5282   5.5558   5.7090
     5.7885   5.8354   6.0496   6.1037   6.1745   6.2809   6.2949   6.3666
     6.3994   6.5643   6.6595   6.7233   6.7541   6.7679   6.7874   6.8696
     6.9867   7.1060   7.1871   7.2501   7.2768   7.3241   7.3799   7.3850
     7.4063   7.6096   7.7092   7.7467   7.8957   7.9626   7.9946   8.1163
     8.1377   8.2090   8.2782   8.3102   8.3224   8.4563   8.5393   8.5558
     8.6262   8.8183   8.8860   8.9550   9.0868   9.0937   9.2701   9.3047
     9.3207   9.3559   9.3791   9.4197   9.4625   9.6291   9.6887   9.7081
     9.9252   9.9912  10.0778  10.1226  10.1563  10.2537  10.2902

     the Fermi energy is     8.2600 ev

!    total energy              =   -2943.03455560 Ry
     estimated scf accuracy    <       0.00079544 Ry
     smearing contrib. (-TS)   =      -0.10439418 Ry
     internal energy E=F+TS    =   -2942.93016142 Ry

     total magnetization       =     0.04 Bohr mag/cell
     absolute magnetization    =     0.06 Bohr mag/cell

     convergence has been achieved in   3 iterations

     negative rho (up, down):  9.097E-01 9.097E-01

     Forces acting on atoms (cartesian axes, Ry/au):

     atom    1 type  1   force =    -0.00737181   -0.03066346    0.01894831
     atom    2 type  1   force =    -0.11806710   -0.02023355    0.00168131
     atom    3 type  1   force =    -0.11877176    0.01582294    0.00936710
     atom    4 type  1   force =     0.12984949   -0.01357290    0.00303908
     atom    5 type  1   force =     0.12629446   -0.01989345    0.01387173
     atom    6 type  2   force =    -0.00565139   -0.01985678    0.00401207
     atom    7 type  2   force =    -0.01070520    0.01243601   -0.00978892
     atom    8 type  3   force =    -0.11755595    0.00762438   -0.00395587
     atom    9 type  3   force =    -0.03218824   -0.14955418    0.00245566
     atom   10 type  3   force =    -0.02388922   -0.02573457   -0.06233509
     atom   11 type  3   force =    -0.02063392   -0.03380290    0.05364110
     atom   12 type  3   force =    -0.01493033    0.03399125   -0.05798878
     atom   13 type  3   force =    -0.01463854    0.02964887    0.05755440
     atom   14 type  3   force =     0.01879273   -0.02968193   -0.06518264
     atom   15 type  3   force =     0.01785417   -0.03839967    0.05639807
     atom   16 type  3   force =     0.01702220    0.04054238   -0.05837265
     atom   17 type  3   force =     0.01576315    0.03652415    0.05738313
     atom   18 type  4   force =    -0.01091530    0.02065868   -0.00955161
     atom   19 type  4   force =    -0.13216766   -0.00657300   -0.11581520
     atom   20 type  4   force =    -0.13633184    0.00341663    0.11293420
     atom   21 type  4   force =     0.12451874   -0.00948151   -0.11850429
     atom   22 type  4   force =     0.13145838    0.00258866    0.11405757
     atom   23 type  5   force =     0.18226494    0.19419395   -0.00384870
     The non-local contrib.  to forces
     atom    1 type  1   force =     0.00584320   -0.00348456    0.02346078
     atom    2 type  1   force =    -0.24773181   -0.16247751    0.01887751
     atom    3 type  1   force =    -0.23964889    0.15410572   -0.02329715
     atom    4 type  1   force =     0.24805345   -0.17444786    0.02046389
     atom    5 type  1   force =     0.22865465    0.14840282   -0.02222213
     atom    6 type  2   force =     0.00936786   -0.05546444   -0.07470866
     atom    7 type  2   force =    -0.01009437    0.07512741    0.06138617
     atom    8 type  3   force =    -0.25143104    0.00259165   -0.00176899
     atom    9 type  3   force =     0.10988951   -0.09804750   -0.00212847
     atom   10 type  3   force =    -0.22362756    0.00600646   -0.21754050
     atom   11 type  3   force =    -0.22648766    0.00493659    0.20664403
     atom   12 type  3   force =    -0.20965999   -0.02525806   -0.18192705
     atom   13 type  3   force =    -0.21596341   -0.00562475    0.21016404
     atom   14 type  3   force =     0.21095079    0.00352342   -0.22309564
     atom   15 type  3   force =     0.21864277    0.00505991    0.20816722
     atom   16 type  3   force =     0.22034872   -0.02704624   -0.18024340
     atom   17 type  3   force =     0.22351847   -0.00877987    0.20737121
     atom   18 type  4   force =    -0.01482125    0.06626023   -0.05803496
     atom   19 type  4   force =     0.06886301    0.00690320    0.07099296
     atom   20 type  4   force =     0.06427107   -0.01284419   -0.06907869
     atom   21 type  4   force =    -0.06642815    0.00809198    0.06355606
     atom   22 type  4   force =    -0.06107939   -0.00908264   -0.05533882
     atom   23 type  5   force =    -0.07190629   -0.05426992   -0.00077959
     The ionic contribution  to forces
     atom    1 type  1   force =    -0.19188221   -4.77238476   14.33333733
     atom    2 type  1   force =   -35.68343663   -6.14704855    0.77915622
     atom    3 type  1   force =   -35.70637722    6.26062001   -0.71216369
     atom    4 type  1   force =    35.55032117   -6.19266386    0.77840143
     atom    5 type  1   force =    35.04697554    7.15088632   -0.70491050
     atom    6 type  2   force =    -0.20230982   -3.73912615  -14.25701182
     atom    7 type  2   force =    -0.53604360    3.67834007   14.51281249
     atom    8 type  3   force =   -47.66250967   -0.04906673   -0.06562646
     atom    9 type  3   force =    45.33080416   -2.16390773   -0.06773198
     atom   10 type  3   force =   -32.20365283   -2.09632311  -23.49695992
     atom   11 type  3   force =   -31.27280790   -0.84524728   22.49965740
     atom   12 type  3   force =   -31.40209765    0.85800692  -22.59195059
     atom   13 type  3   force =   -32.19496017    2.24688259   23.52387396
     atom   14 type  3   force =    32.13042556   -2.11099876  -23.55516085
     atom   15 type  3   force =    31.20023988   -0.85952872   22.55772437
     atom   16 type  3   force =    31.24778298    0.97802157  -22.78053133
     atom   17 type  3   force =    32.03808620    2.36829148   23.71489084
     atom   18 type  4   force =    -0.50125971    4.44452631  -14.39755647
     atom   19 type  4   force =   -32.19729042    0.90986873  -25.99353870
     atom   20 type  4   force =   -32.17138350   -1.00626314   25.97240827
     atom   21 type  4   force =    32.01635284    0.81217109  -26.26862035
     atom   22 type  4   force =    31.99021290   -1.10190082   26.25018379
     atom   23 type  5   force =     5.37481010    1.37684451   -0.03068346
     The local contribution  to forces
     atom    1 type  1   force =     0.17356615    4.72622988  -14.31077621
     atom    2 type  1   force =    35.82871927    6.28487322   -0.77752153
     atom    3 type  1   force =    35.84661624   -6.39563477    0.77015947
     atom    4 type  1   force =   -35.68722425    6.34385676   -0.77352896
     atom    5 type  1   force =   -35.17093670   -7.31254399    0.77265647
     atom    6 type  2   force =     0.17828097    3.76188341   14.33705844
     atom    7 type  2   force =     0.53296416   -3.71662126  -14.55529048
     atom    8 type  3   force =    47.82657739    0.05337109    0.08597691
     atom    9 type  3   force =   -45.47961010    2.14117650    0.09591089
     atom   10 type  3   force =    32.42442852    2.06089997   23.66707581
     atom   11 type  3   force =    31.51329470    0.78378564  -22.67480733
     atom   12 type  3   force =    31.61078723   -0.78488981   22.73197826
     atom   13 type  3   force =    32.42774251   -2.18819433  -23.70087443
     atom   14 type  3   force =   -32.34812091    2.07710905   23.72597471
     atom   15 type  3   force =   -31.43237814    0.78819342  -22.73128845
     atom   16 type  3   force =   -31.47441351   -0.89643642   22.91543378
     atom   17 type  3   force =   -32.27543055   -2.29702184  -23.88977427
     atom   18 type  4   force =     0.49623235   -4.48613929   14.45930011
     atom   19 type  4   force =    32.00632219   -0.92947193   25.81587067
     atom   20 type  4   force =    31.98469271    1.02125955  -25.80739089
     atom   21 type  4   force =   -31.83967552   -0.83720401   26.09095612
     atom   22 type  4   force =   -31.81254528    1.11431541  -26.09330363
     atom   23 type  5   force =    -5.12246706   -1.12871256    0.03106136
     The core correction contribution to forces
     atom    1 type  1   force =     0.00007672    0.00359276   -0.00309846
     atom    2 type  1   force =    -0.01034345   -0.00101328    0.00096144
     atom    3 type  1   force =    -0.01144825    0.00302141   -0.00150813
     atom    4 type  1   force =     0.01119562   -0.00296200    0.00106603
     atom    5 type  1   force =     0.00407470    0.00760383   -0.00189366
     atom    6 type  2   force =    -0.00032876    0.00275816    0.00329882
     atom    7 type  2   force =     0.00039465   -0.00362118   -0.00239157
     atom    8 type  3   force =    -0.02914342    0.00108470   -0.00077085
     atom    9 type  3   force =     0.00903327   -0.01476348   -0.00040027
     atom   10 type  3   force =    -0.02336492    0.00855787   -0.01741372
     atom   11 type  3   force =    -0.02518711    0.00899334    0.01781703
     atom   12 type  3   force =    -0.02253138   -0.01005405   -0.01506906
     atom   13 type  3   force =    -0.02287140   -0.00896647    0.01623441
     atom   14 type  3   force =     0.02238749    0.00876390   -0.01742145
     atom   15 type  3   force =     0.02368353    0.00972447    0.01772855
     atom   16 type  3   force =     0.02374474   -0.01031443   -0.01403186
     atom   17 type  3   force =     0.02310044   -0.00894349    0.01524544
     atom   18 type  4   force =     0.00074787   -0.00357752    0.00286313
     atom   19 type  4   force =    -0.01014869    0.00015695   -0.00948526
     atom   20 type  4   force =    -0.01002863    0.00028155    0.00945931
     atom   21 type  4   force =     0.01006883    0.00020332   -0.00896520
     atom   22 type  4   force =     0.00988056    0.00011919    0.00853010
     atom   23 type  5   force =     0.00000000    0.00000000    0.00000000
     The Hubbard contrib.    to forces
     atom    1 type  1   force =     0.00000000    0.00000000    0.00000000
     atom    2 type  1   force =     0.00000000    0.00000000    0.00000000
     atom    3 type  1   force =     0.00000000    0.00000000    0.00000000
     atom    4 type  1   force =     0.00000000    0.00000000    0.00000000
     atom    5 type  1   force =     0.00000000    0.00000000    0.00000000
     atom    6 type  2   force =     0.00000000    0.00000000    0.00000000
     atom    7 type  2   force =     0.00000000    0.00000000    0.00000000
     atom    8 type  3   force =     0.00000000    0.00000000    0.00000000
     atom    9 type  3   force =     0.00000000    0.00000000    0.00000000
     atom   10 type  3   force =     0.00000000    0.00000000    0.00000000
     atom   11 type  3   force =     0.00000000    0.00000000    0.00000000
     atom   12 type  3   force =     0.00000000    0.00000000    0.00000000
     atom   13 type  3   force =     0.00000000    0.00000000    0.00000000
     atom   14 type  3   force =     0.00000000    0.00000000    0.00000000
     atom   15 type  3   force =     0.00000000    0.00000000    0.00000000
     atom   16 type  3   force =     0.00000000    0.00000000    0.00000000
     atom   17 type  3   force =     0.00000000    0.00000000    0.00000000
     atom   18 type  4   force =     0.00000000    0.00000000    0.00000000
     atom   19 type  4   force =     0.00000000    0.00000000    0.00000000
     atom   20 type  4   force =     0.00000000    0.00000000    0.00000000
     atom   21 type  4   force =     0.00000000    0.00000000    0.00000000
     atom   22 type  4   force =     0.00000000    0.00000000    0.00000000
     atom   23 type  5   force =     0.00000000    0.00000000    0.00000000
     The SCF correction term to forces
     atom    1 type  1   force =     0.00000000    0.00000000   -0.00000000
     atom    2 type  1   force =    -0.00000000    0.00000000   -0.00000000
     atom    3 type  1   force =    -0.00000000   -0.00000000   -0.00000000
     atom    4 type  1   force =     0.00000000    0.00000000   -0.00000000
     atom    5 type  1   force =     0.00000000   -0.00000000   -0.00000000
     atom    6 type  2   force =     0.00000000    0.00000000   -0.00000000
     atom    7 type  2   force =     0.00000000   -0.00000000   -0.00000000
     atom    8 type  3   force =    -0.00000000   -0.00000000   -0.00000000
     atom    9 type  3   force =    -0.00000000   -0.00000000   -0.00000000
     atom   10 type  3   force =     0.00197201   -0.00492886    0.00417338
     atom   11 type  3   force =    -0.00980151    0.01367572    0.00600011
     atom   12 type  3   force =     0.00821590   -0.00386685    0.00064980
     atom   13 type  3   force =    -0.00894164   -0.01450127    0.00982655
     atom   14 type  3   force =     0.00279425   -0.00813263    0.00619074
     atom   15 type  3   force =     0.00731058    0.01809816    0.00573653
     atom   16 type  3   force =    -0.00079628   -0.00373520    0.00267031
     atom   17 type  3   force =     0.00613305   -0.01707522    0.01132005
     atom   18 type  4   force =     0.00782989   -0.00046414   -0.01445328
     atom   19 type  4   force =    -0.00026931    0.00591696    0.00201527
     atom   20 type  4   force =    -0.00423905    0.00092977    0.00920636
     atom   21 type  4   force =     0.00384519    0.00720303    0.00623921
     atom   22 type  4   force =     0.00463404   -0.00091558    0.00565627
     atom   23 type  5   force =     0.00147263    0.00027883   -0.00177687

     Total force =     0.482887     Total SCF correction =     0.049174
     SCF correction compared to forces is large: reduce conv_thr to get better values


     Computing stress (Cartesian axis) and pressure


     negative rho (up, down):  9.097E-01 9.097E-01
          total   stress  (Ry/bohr**3)                   (kbar)     P=       95.51
   0.00073595   0.00007828   0.00000011          108.26       11.52        0.02
   0.00007828   0.00078023  -0.00001465           11.52      114.78       -2.15
   0.00000011  -0.00001465   0.00043170            0.02       -2.15       63.50


     Entering Dynamics:    iteration =     2
                           time      =   0.0004 pico-seconds


ATOMIC_POSITIONS (angstrom)
Hf            2.6699999570        2.8271230292        6.6039642186    0   0   0
Hf            1.2529906802        1.2862841814        5.0584662261    0   0   0
Hf            1.2554868986        7.3898042948        5.0880677674    0   0   0
Hf            4.0870092338        1.2862841814        5.0584662261    0   0   0
Hf            4.0845130154        7.3898042948        5.0880677674    0   0   0
Nb            2.6699999570        2.7969306055        3.5155832167    0   0   0
Nb            2.6699999570        5.8763786763        6.6349979432    0   0   0
Ta            1.2093730560        4.3409278516        5.0711258323    0   0   0
Ta            4.1306268580        4.3409278516        5.0711258323    0   0   0
Ta            1.3072499226        1.3141195542        2.0587721787
Ta            1.3027858274        1.3083873692        8.0945854026
Ta            1.3040080071        7.3758299422        2.0462306790
Ta            1.3077089535        7.3650862607        8.0860089384
Ta            4.0327494724        1.3141190370        2.0587718755
Ta            4.0372137430        1.3083869369        8.0945857355
Ta            4.0359921696        7.3758307209        2.0462306724
Ta            4.0322910385        7.3650870217        8.0860089402
Zr            2.6699975087        5.8662905512        3.5273818809
Zr            1.2438045775        4.3220767074        1.9999737588
Zr            1.2403546113        4.3541241223        8.1497817143
Zr            4.0961937059        4.3220760543        1.9999731735
Zr            4.0996442685        4.3541238043        8.1497819137
H             5.1228430275        5.3323423979        5.0721508669


     kinetic energy (Ekin) =           1.79735567 Ry
     temperature           =       13513.33407480 K 
     Ekin + Etot (const)   =       -2941.23719993 Ry
     Ions kinetic stress =           34.72 (kbar)
                                     52.12          52.07           0.01
                                     52.07          52.03           0.01
                                      0.01           0.01           0.00



     Writing config-only to output data dir outdir/pwscf.save/
     NEW-OLD atomic charge density approx. for the potential

     Check: negative core charge=   -0.000002

     negative rho (up, down):  9.096E-01 9.096E-01
     Generating pointlists ...
     new r_m :   0.0678 (alat units)  1.0934 (a.u.) for type    3
     new r_m :   0.0678 (alat units)  1.0934 (a.u.) for type    5

     total cpu time spent up to now is      302.9 secs

     Self-consistent Calculation

     iteration #  1     ecut=   120.00 Ry     beta= 0.70
     Davidson diagonalization with overlap
     c_bands:  1 eigenvalues not converged
     ethr =  1.00E-06,  avg # of iterations = 16.5

     negative rho (up, down):  9.096E-01 9.096E-01

     total cpu time spent up to now is      333.9 secs

     total energy              =   -2942.94428653 Ry
     estimated scf accuracy    <       0.28970832 Ry

     total magnetization       =     0.04 Bohr mag/cell
     absolute magnetization    =     0.05 Bohr mag/cell

     iteration #  2     ecut=   120.00 Ry     beta= 0.70
     Davidson diagonalization with overlap
     ethr =  1.05E-04,  avg # of iterations =  2.0

     negative rho (up, down):  9.096E-01 9.096E-01

     total cpu time spent up to now is      347.5 secs

     total energy              =   -2942.96330046 Ry
     estimated scf accuracy    <       0.17885591 Ry

     total magnetization       =     0.04 Bohr mag/cell
     absolute magnetization    =     0.05 Bohr mag/cell

     iteration #  3     ecut=   120.00 Ry     beta= 0.70
     Davidson diagonalization with overlap
     ethr =  6.46E-05,  avg # of iterations =  1.5

     negative rho (up, down):  9.096E-01 9.096E-01

     total cpu time spent up to now is      361.0 secs

     total energy              =   -2942.97320017 Ry
     estimated scf accuracy    <       0.00352343 Ry

     total magnetization       =     0.04 Bohr mag/cell
     absolute magnetization    =     0.05 Bohr mag/cell

     iteration #  4     ecut=   120.00 Ry     beta= 0.70
     Davidson diagonalization with overlap
     c_bands:  1 eigenvalues not converged
     ethr =  1.27E-06,  avg # of iterations = 15.5

     negative rho (up, down):  9.096E-01 9.096E-01

     total cpu time spent up to now is      378.7 secs

     total energy              =   -2942.97336416 Ry
     estimated scf accuracy    <       0.00190323 Ry

     total magnetization       =     0.04 Bohr mag/cell
     absolute magnetization    =     0.05 Bohr mag/cell

     iteration #  5     ecut=   120.00 Ry     beta= 0.70
     Davidson diagonalization with overlap
     ethr =  6.87E-07,  avg # of iterations =  1.5

     negative rho (up, down):  9.096E-01 9.096E-01

     Magnetic moment per site  (integrated on atomic sphere of radius R)
     atom   1 (R=0.109)  charge=  8.5408  magn=  0.0001
     atom   2 (R=0.109)  charge=  8.2930  magn=  0.0002
     atom   3 (R=0.109)  charge=  8.2934  magn=  0.0002
     atom   4 (R=0.109)  charge=  8.2960  magn=  0.0001
     atom   5 (R=0.109)  charge=  8.2856  magn=  0.0002
     atom   6 (R=0.120)  charge= 10.3511  magn= -0.0002
     atom   7 (R=0.120)  charge= 10.3465  magn=  0.0003
     atom   8 (R=0.068)  charge=  4.4841  magn= -0.0000
     atom   9 (R=0.068)  charge=  4.5065  magn= -0.0000
     atom  10 (R=0.068)  charge=  4.4674  magn=  0.0002
     atom  11 (R=0.068)  charge=  4.4656  magn=  0.0000
     atom  12 (R=0.068)  charge=  4.4649  magn=  0.0002
     atom  13 (R=0.068)  charge=  4.4667  magn= -0.0001
     atom  14 (R=0.068)  charge=  4.4673  magn=  0.0003
     atom  15 (R=0.068)  charge=  4.4657  magn=  0.0001
     atom  16 (R=0.068)  charge=  4.4644  magn=  0.0007
     atom  17 (R=0.068)  charge=  4.4670  magn=  0.0001
     atom  18 (R=0.122)  charge=  9.4544  magn= -0.0003
     atom  19 (R=0.122)  charge=  8.9963  magn=  0.0026
     atom  20 (R=0.122)  charge=  8.9930  magn= -0.0003
     atom  21 (R=0.122)  charge=  9.0003  magn=  0.0036
     atom  22 (R=0.122)  charge=  8.9952  magn=  0.0002
     atom  23 (R=0.068)  charge=  0.8727  magn=  0.0000

     total cpu time spent up to now is      392.0 secs

     End of self-consistent calculation

 ------ SPIN UP ------------


          k = 0.0000 0.0000 0.0000 ( 56324 PWs)   bands (ev):

   -59.7631 -59.7575 -59.7180 -59.7128 -59.6823 -59.6811 -59.6374 -59.6368
   -59.5270 -59.0379 -53.3503 -53.2996 -53.2208 -53.1544 -51.7021 -45.2410
   -45.2244 -40.6186 -40.6055 -40.5222 -40.5176 -38.7939 -26.7683 -26.7617
   -26.6835 -26.6739 -26.5801 -26.5740 -26.4586 -26.4424 -26.3555 -26.3068
   -26.2814 -26.2450 -26.2341 -26.2116 -26.1973 -26.1612 -26.1370 -26.1266
   -26.0833 -25.9638 -25.9416 -25.9410 -25.9334 -25.9189 -25.8732 -25.8683
   -25.8442 -25.8406 -25.7448 -25.7105 -23.1332 -22.9128 -22.6287 -22.5333
   -22.2738 -22.1406 -22.1236 -22.0152 -21.8937 -21.8246 -21.7965 -21.5762
   -21.4829 -21.4283 -21.3710 -21.3190 -21.2426 -21.1918 -20.7525 -20.6796
   -20.6308 -19.1839 -18.9072 -18.8242 -18.8208 -18.5874 -18.5816 -18.5757
   -18.5656 -18.5496 -18.5164 -18.3501 -18.3370 -17.1388 -16.9387 -16.8079
     2.1468   3.2202   3.9423   4.1714   4.3327   4.5155   4.5603   4.6909
     4.7383   4.8941   4.9468   5.1095   5.2096   5.5303   5.5502   5.7146
     5.7942   5.8336   6.0543   6.1026   6.1771   6.2865   6.3007   6.3720
     6.4001   6.5679   6.6707   6.7324   6.7602   6.7751   6.7901   6.8790
     6.9946   7.1164   7.1934   7.2578   7.2849   7.3428   7.3830   7.3909
     7.4103   7.6150   7.7170   7.7571   7.9005   7.9654   7.9972   8.1209
     8.1383   8.2119   8.2736   8.3169   8.3274   8.4571   8.5424   8.5568
     8.6341   8.8241   8.8947   8.9588   9.0918   9.1002   9.2735   9.3089
     9.3267   9.3626   9.3855   9.4260   9.4668   9.6321   9.6941   9.7166
     9.9301   9.9936  10.0835  10.1294  10.1610  10.2574  10.3011

 ------ SPIN DOWN ----------


          k = 0.0000 0.0000 0.0000 ( 56324 PWs)   bands (ev):

   -59.7622 -59.7575 -59.7172 -59.7128 -59.6812 -59.6810 -59.6373 -59.6354
   -59.5272 -59.0380 -53.3501 -53.2994 -53.2206 -53.1543 -51.7021 -45.2407
   -45.2245 -40.6158 -40.6055 -40.5223 -40.5148 -38.7942 -26.7674 -26.7614
   -26.6823 -26.6739 -26.5795 -26.5733 -26.4584 -26.4407 -26.3555 -26.3062
   -26.2813 -26.2440 -26.2341 -26.2112 -26.1964 -26.1612 -26.1359 -26.1261
   -26.0835 -25.9638 -25.9415 -25.9398 -25.9330 -25.9182 -25.8731 -25.8669
   -25.8443 -25.8389 -25.7449 -25.7105 -23.1330 -22.9126 -22.6285 -22.5331
   -22.2736 -22.1404 -22.1235 -22.0150 -21.8936 -21.8244 -21.7963 -21.5760
   -21.4828 -21.4282 -21.3708 -21.3189 -21.2424 -21.1917 -20.7523 -20.6795
   -20.6307 -19.1809 -18.9076 -18.8218 -18.8168 -18.5857 -18.5809 -18.5745
   -18.5643 -18.5488 -18.5163 -18.3460 -18.3371 -17.1390 -16.9388 -16.8078
     2.1471   3.2206   3.9434   4.1718   4.3329   4.5166   4.5609   4.6913
     4.7388   4.8946   4.9480   5.1100   5.2105   5.5308   5.5507   5.7156
     5.7949   5.8344   6.0555   6.1036   6.1777   6.2876   6.3015   6.3731
     6.4010   6.5686   6.6717   6.7332   6.7614   6.7761   6.7904   6.8795
     6.9952   7.1177   7.1941   7.2586   7.2857   7.3435   7.3845   7.3917
     7.4116   7.6157   7.7177   7.7579   7.9016   7.9669   7.9992   8.1235
     8.1406   8.2151   8.2778   8.3186   8.3284   8.4604   8.5450   8.5594
     8.6356   8.8255   8.8959   8.9597   9.0932   9.1022   9.2746   9.3098
     9.3288   9.3640   9.3871   9.4269   9.4680   9.6341   9.6953   9.7179
     9.9312   9.9957  10.0854  10.1305  10.1624  10.2578  10.3002

     the Fermi energy is     8.2651 ev

!    total energy              =   -2942.97319834 Ry
     estimated scf accuracy    <       0.00030111 Ry
     smearing contrib. (-TS)   =      -0.10434883 Ry
     internal energy E=F+TS    =   -2942.86884950 Ry

     total magnetization       =     0.04 Bohr mag/cell
     absolute magnetization    =     0.05 Bohr mag/cell

     convergence has been achieved in   5 iterations

     negative rho (up, down):  9.096E-01 9.096E-01

     Forces acting on atoms (cartesian axes, Ry/au):

     atom    1 type  1   force =    -0.00511017   -0.02439034    0.01062859
     atom    2 type  1   force =    -0.12155765   -0.01759765   -0.00919283
     atom    3 type  1   force =    -0.12317468    0.01304806   -0.00284788
     atom    4 type  1   force =     0.13498916   -0.01050810   -0.00952883
     atom    5 type  1   force =     0.12958757   -0.02209138   -0.00003437
     atom    6 type  2   force =    -0.00457520   -0.02028237    0.00691492
     atom    7 type  2   force =    -0.00927669    0.01175952   -0.00800177
     atom    8 type  3   force =    -0.12089175    0.00775102   -0.00628209
     atom    9 type  3   force =    -0.13495499   -0.25625133    0.00156999
     atom   10 type  3   force =    -0.02440796   -0.02713600   -0.05841635
     atom   11 type  3   force =    -0.02304615   -0.03064030    0.05887193
     atom   12 type  3   force =    -0.01464992    0.03404874   -0.05451536
     atom   13 type  3   force =    -0.01775653    0.02581858    0.06366922
     atom   14 type  3   force =     0.01884657   -0.03118757   -0.06042630
     atom   15 type  3   force =     0.01905516   -0.03415188    0.06104056
     atom   16 type  3   force =     0.01628686    0.04004027   -0.05398330
     atom   17 type  3   force =     0.01775781    0.03213799    0.06369800
     atom   18 type  4   force =    -0.00879764    0.02148389   -0.00989488
     atom   19 type  4   force =    -0.13538087   -0.00579676   -0.11341148
     atom   20 type  4   force =    -0.13816265    0.00352616    0.11811213
     atom   21 type  4   force =     0.12744429   -0.00866527   -0.11454167
     atom   22 type  4   force =     0.13293776    0.00283226    0.11777597
     atom   23 type  5   force =     0.28483767    0.29625247   -0.00120420
     The non-local contrib.  to forces
     atom    1 type  1   force =     0.00889917    0.00136118    0.01489663
     atom    2 type  1   force =    -0.24879318   -0.16195627    0.01259072
     atom    3 type  1   force =    -0.24171036    0.15333402   -0.03060765
     atom    4 type  1   force =     0.25113781   -0.17105070    0.01324839
     atom    5 type  1   force =     0.23824074    0.13983333   -0.03031080
     atom    6 type  2   force =     0.00913147   -0.05476708   -0.07516830
     atom    7 type  2   force =    -0.00917781    0.07537406    0.06126031
     atom    8 type  3   force =    -0.25128824    0.00110181   -0.00652520
     atom    9 type  3   force =     0.14010697   -0.07278648   -0.00525000
     atom   10 type  3   force =    -0.22385914    0.00445161   -0.21721933
     atom   11 type  3   force =    -0.22981564    0.00645580    0.20973895
     atom   12 type  3   force =    -0.20738742   -0.02484087   -0.18147924
     atom   13 type  3   force =    -0.21899332   -0.00748696    0.21374112
     atom   14 type  3   force =     0.20999349    0.00257493   -0.22139212
     atom   15 type  3   force =     0.22111379    0.00784956    0.21039766
     atom   16 type  3   force =     0.21665676   -0.02603443   -0.18047538
     atom   17 type  3   force =     0.22518109   -0.01065030    0.21157761
     atom   18 type  4   force =    -0.01301223    0.06604686   -0.06081295
     atom   19 type  4   force =     0.06789815    0.00877224    0.07252552
     atom   20 type  4   force =     0.06349310   -0.01278450   -0.06760702
     atom   21 type  4   force =    -0.06445125    0.00965290    0.06537320
     atom   22 type  4   force =    -0.05957418   -0.00861674   -0.05384501
     atom   23 type  5   force =    -0.08377533   -0.07036111   -0.00078518
     The ionic contribution  to forces
     atom    1 type  1   force =    -0.20542260   -4.78598571   14.34434307
     atom    2 type  1   force =   -35.68949502   -6.15364965    0.77914814
     atom    3 type  1   force =   -35.71825650    6.26291936   -0.71215067
     atom    4 type  1   force =    35.55334886   -6.21501580    0.77836096
     atom    5 type  1   force =    35.10426067    7.14197077   -0.70522014
     atom    6 type  2   force =    -0.21643926   -3.75361149  -14.26866789
     atom    7 type  2   force =    -0.55422885    3.70090637   14.53142533
     atom    8 type  3   force =   -47.68859470   -0.04547049   -0.06563859
     atom    9 type  3   force =    44.99749532   -2.49649501   -0.06820504
     atom   10 type  3   force =   -32.20685041   -2.09986158  -23.49752660
     atom   11 type  3   force =   -31.27599735   -0.84876549   22.50021389
     atom   12 type  3   force =   -31.40698423    0.85887390  -22.59086037
     atom   13 type  3   force =   -32.19985291    2.24777507   23.52276194
     atom   14 type  3   force =    32.13217667   -2.11890494  -23.55758650
     atom   15 type  3   force =    31.20201341   -0.86738522   22.56011467
     atom   16 type  3   force =    31.25599201    0.98013060  -22.77591735
     atom   17 type  3   force =    32.04636239    2.37050865   23.71024830
     atom   18 type  4   force =    -0.51859182    4.46552028  -14.41494775
     atom   19 type  4   force =   -32.20425483    0.91189258  -25.99569820
     atom   20 type  4   force =   -32.17835490   -1.00413800   25.97452216
     atom   21 type  4   force =    32.01882301    0.81536709  -26.28586965
     atom   22 type  4   force =    31.99282589   -1.09836824   26.26731948
     atom   23 type  5   force =     5.76002515    1.73178694   -0.03016917
     The local contribution  to forces
     atom    1 type  1   force =     0.18975641    4.75987057  -14.35797772
     atom    2 type  1   force =    35.82257606    6.30135787   -0.82245283
     atom    3 type  1   force =    35.84249704   -6.40799168    0.71935371
     atom    4 type  1   force =   -35.67729866    6.38104148   -0.82376021
     atom    5 type  1   force =   -35.21638956   -7.30922903    0.71741496
     atom    6 type  2   force =     0.20256521    3.78139970   14.33424726
     atom    7 type  2   force =     0.55187216   -3.76616287  -14.61320925
     atom    8 type  3   force =    47.84213223    0.05073371    0.04691908
     atom    9 type  3   force =   -45.27909483    2.32554858    0.05517021
     atom   10 type  3   force =    32.42730338    2.05422199   23.67959266
     atom   11 type  3   force =    31.50577250    0.80866950  -22.66525585
     atom   12 type  3   force =    31.61657866   -0.78602623   22.73760322
     atom   13 type  3   force =    32.42116115   -2.21081378  -23.68302129
     atom   14 type  3   force =   -32.34404089    2.07435103   23.74265133
     atom   15 type  3   force =   -31.42695835    0.82063245  -22.72348198
     atom   16 type  3   force =   -31.47854794   -0.89785558   22.92035583
     atom   17 type  3   force =   -32.27529623   -2.32334919  -23.86795348
     atom   18 type  4   force =     0.51779599   -4.50476734   14.45096092
     atom   19 type  4   force =    32.00337785   -0.92543909   25.82325026
     atom   20 type  4   force =    31.98322402    1.01979603  -25.79536193
     atom   21 type  4   force =   -31.83080092   -0.83600170   26.11972052
     atom   22 type  4   force =   -31.80801955    1.10947711  -26.10170900
     atom   23 type  5   force =    -5.39154162   -1.36584998    0.02671817
     The core correction contribution to forces
     atom    1 type  1   force =     0.00029687    0.00360801   -0.00330798
     atom    2 type  1   force =    -0.01039562   -0.00114145    0.00094601
     atom    3 type  1   force =    -0.01150463    0.00308484   -0.00149051
     atom    4 type  1   force =     0.01140451   -0.00288013    0.00107020
     atom    5 type  1   force =     0.00501642    0.00682622   -0.00193961
     atom    6 type  2   force =    -0.00025923    0.00279700    0.00339589
     atom    7 type  2   force =     0.00038296   -0.00364638   -0.00243106
     atom    8 type  3   force =    -0.02903554    0.00096932   -0.00075621
     atom    9 type  3   force =     0.00946611   -0.01424648   -0.00010411
     atom   10 type  3   force =    -0.02337037    0.00860731   -0.01744034
     atom   11 type  3   force =    -0.02528543    0.00899060    0.01792659
     atom   12 type  3   force =    -0.02241342   -0.01000254   -0.01507197
     atom   13 type  3   force =    -0.02312951   -0.00890548    0.01641812
     atom   14 type  3   force =     0.02235016    0.00879665   -0.01754047
     atom   15 type  3   force =     0.02398379    0.00968787    0.01798721
     atom   16 type  3   force =     0.02326190   -0.01014231   -0.01419208
     atom   17 type  3   force =     0.02322829   -0.00869596    0.01558456
     atom   18 type  4   force =     0.00068391   -0.00357249    0.00288186
     atom   19 type  4   force =    -0.01014601    0.00008838   -0.00956386
     atom   20 type  4   force =    -0.00999958    0.00029241    0.00946422
     atom   21 type  4   force =     0.01001403    0.00011064   -0.00902398
     atom   22 type  4   force =     0.00979845    0.00007322    0.00849279
     atom   23 type  5   force =     0.00000000    0.00000000    0.00000000
     The Hubbard contrib.    to forces
     atom    1 type  1   force =     0.00000000    0.00000000    0.00000000
     atom    2 type  1   force =     0.00000000    0.00000000    0.00000000
     atom    3 type  1   force =     0.00000000    0.00000000    0.00000000
     atom    4 type  1   force =     0.00000000    0.00000000    0.00000000
     atom    5 type  1   force =     0.00000000    0.00000000    0.00000000
     atom    6 type  2   force =     0.00000000    0.00000000    0.00000000
     atom    7 type  2   force =     0.00000000    0.00000000    0.00000000
     atom    8 type  3   force =     0.00000000    0.00000000    0.00000000
     atom    9 type  3   force =     0.00000000    0.00000000    0.00000000
     atom   10 type  3   force =     0.00000000    0.00000000    0.00000000
     atom   11 type  3   force =     0.00000000    0.00000000    0.00000000
     atom   12 type  3   force =     0.00000000    0.00000000    0.00000000
     atom   13 type  3   force =     0.00000000    0.00000000    0.00000000
     atom   14 type  3   force =     0.00000000    0.00000000    0.00000000
     atom   15 type  3   force =     0.00000000    0.00000000    0.00000000
     atom   16 type  3   force =     0.00000000    0.00000000    0.00000000
     atom   17 type  3   force =     0.00000000    0.00000000    0.00000000
     atom   18 type  4   force =     0.00000000    0.00000000    0.00000000
     atom   19 type  4   force =     0.00000000    0.00000000    0.00000000
     atom   20 type  4   force =     0.00000000    0.00000000    0.00000000
     atom   21 type  4   force =     0.00000000    0.00000000    0.00000000
     atom   22 type  4   force =     0.00000000    0.00000000    0.00000000
     atom   23 type  5   force =     0.00000000    0.00000000    0.00000000
     The SCF correction term to forces
     atom    1 type  1   force =     0.00000000   -0.00000000    0.00000000
     atom    2 type  1   force =     0.00000000   -0.00000000    0.00000000
     atom    3 type  1   force =     0.00000000    0.00000000    0.00000000
     atom    4 type  1   force =    -0.00000000   -0.00000000    0.00000000
     atom    5 type  1   force =    -0.00000000   -0.00000000    0.00000000
     atom    6 type  2   force =     0.00000000    0.00000000    0.00000000
     atom    7 type  2   force =     0.00000000    0.00000000    0.00000000
     atom    8 type  3   force =     0.00000000    0.00000000    0.00000000
     atom    9 type  3   force =    -0.00000000    0.00000000    0.00000000
     atom   10 type  3   force =     0.00219359    0.00550511   -0.00711232
     atom   11 type  3   force =     0.00210478   -0.00593027   -0.00504122
     atom   12 type  3   force =     0.00538151   -0.00389508   -0.00599657
     atom   13 type  3   force =     0.00288308    0.00531018   -0.00752026
     atom   14 type  3   force =    -0.00180785    0.00205519   -0.00784812
     atom   15 type  3   force =    -0.00127247   -0.00487610   -0.00526657
     atom   16 type  3   force =    -0.00125086   -0.00599758   -0.00504390
     atom   17 type  3   force =    -0.00189272    0.00438523   -0.00704857
     atom   18 type  4   force =     0.00415152   -0.00168298    0.01073347
     atom   19 type  4   force =     0.00756899   -0.00105044   -0.00521478
     atom   20 type  4   force =     0.00329972    0.00042066   -0.00419488
     atom   21 type  4   force =    -0.00631557    0.00226624   -0.00603134
     atom   22 type  4   force =    -0.00226783    0.00032735   -0.00377188
     atom   23 type  5   force =    -0.00004552    0.00073707    0.00174241

     Total force =     0.578174     Total SCF correction =     0.030587


     Computing stress (Cartesian axis) and pressure


     negative rho (up, down):  9.096E-01 9.096E-01
          total   stress  (Ry/bohr**3)                   (kbar)     P=       99.79
   0.00076697   0.00011192   0.00000209          112.82       16.46        0.31
   0.00011192   0.00083293  -0.00001276           16.46      122.53       -1.88
   0.00000209  -0.00001276   0.00043527            0.31       -1.88       64.03


     Entering Dynamics:    iteration =     3
                           time      =   0.0006 pico-seconds


ATOMIC_POSITIONS (angstrom)
Hf            2.6699999570        2.8271230292        6.6039642186    0   0   0
Hf            1.2529906802        1.2862841814        5.0584662261    0   0   0
[...]
     4.7352   4.8950   4.9489   5.1092   5.2081   5.5327   5.5484   5.7152
     5.7955   5.8346   6.0562   6.1091   6.1784   6.2864   6.3002   6.3733
     6.4015   6.5682   6.6684   6.7315   6.7614   6.7758   6.7892   6.8817
     6.9955   7.1132   7.1919   7.2608   7.2852   7.3402   7.3834   7.3923
     7.4114   7.6165   7.7138   7.7570   7.9014   7.9659   7.9976   8.1219
     8.1393   8.2140   8.2766   8.3139   8.3290   8.4569   8.5444   8.5587
     8.6352   8.8239   8.8966   8.9593   9.0954   9.1057   9.2745   9.3075
     9.3282   9.3640   9.3865   9.4268   9.4682   9.6302   9.6938   9.7160
     9.9273   9.9917  10.0846  10.1304  10.1576  10.2539  10.2941

     the Fermi energy is     8.2646 ev

!    total energy              =   -2942.98996972 Ry
     estimated scf accuracy    <       0.00061899 Ry
     smearing contrib. (-TS)   =      -0.10436373 Ry
     internal energy E=F+TS    =   -2942.88560600 Ry

     total magnetization       =     0.01 Bohr mag/cell
     absolute magnetization    =     0.01 Bohr mag/cell

     convergence has been achieved in   4 iterations

     negative rho (up, down):  9.096E-01 9.096E-01

     Forces acting on atoms (cartesian axes, Ry/au):

     atom    1 type  1   force =    -0.00503442   -0.02478903    0.01564286
     atom    2 type  1   force =    -0.12144857   -0.01678336    0.00490737
     atom    3 type  1   force =    -0.12289598    0.01200081    0.01187163
     atom    4 type  1   force =     0.13489323   -0.00836949    0.00517986
     atom    5 type  1   force =     0.13066727   -0.02551193    0.01469929
     atom    6 type  2   force =    -0.00462831   -0.01828862    0.00362279
     atom    7 type  2   force =    -0.00968944    0.01085398   -0.00972966
     atom    8 type  3   force =    -0.11893126    0.00816843   -0.00319002
     atom    9 type  3   force =    -0.11527328   -0.23930710    0.00618315
     atom   10 type  3   force =    -0.02472564   -0.02460281   -0.06387212
     atom   11 type  3   force =    -0.02318857   -0.03271617    0.05324672
     atom   12 type  3   force =    -0.01478139    0.03258017   -0.05976466
     atom   13 type  3   force =    -0.01784666    0.02855771    0.05724401
     atom   14 type  3   force =     0.01853631   -0.02890931   -0.06604038
     atom   15 type  3   force =     0.01893778   -0.03608295    0.05546084
     atom   16 type  3   force =     0.01588792    0.03854562   -0.05941942
     atom   17 type  3   force =     0.01757039    0.03485529    0.05730536
     atom   18 type  4   force =    -0.00905437    0.01759689   -0.00851536
     atom   19 type  4   force =    -0.13194166   -0.00608112   -0.11548158
     atom   20 type  4   force =    -0.13763389    0.00358301    0.11163028
     atom   21 type  4   force =     0.12355090   -0.00874076   -0.11650002
     atom   22 type  4   force =     0.13193942    0.00253209    0.11109709
     atom   23 type  5   force =     0.26509022    0.28090863   -0.00557802
     The non-local contrib.  to forces
     atom    1 type  1   force =     0.00913575   -0.00025130    0.01695072
     atom    2 type  1   force =    -0.24870065   -0.16155579    0.02133657
     atom    3 type  1   force =    -0.24124550    0.15251029   -0.02163079
     atom    4 type  1   force =     0.25126471   -0.17011622    0.02235369
     atom    5 type  1   force =     0.23874052    0.13665088   -0.02180524
     atom    6 type  2   force =     0.00906466   -0.05560095   -0.07328232
     atom    7 type  2   force =    -0.00912141    0.07597799    0.06079654
     atom    8 type  3   force =    -0.24970506    0.00153490   -0.00092431
     atom    9 type  3   force =     0.13362592   -0.07997454    0.00035931
     atom   10 type  3   force =    -0.22544278    0.00614223   -0.21938781
     atom   11 type  3   force =    -0.22840441    0.00399949    0.20658392
     atom   12 type  3   force =    -0.20913157   -0.02647391   -0.18354426
     atom   13 type  3   force =    -0.21750973   -0.00517536    0.21041295
     atom   14 type  3   force =     0.21223202    0.00400099   -0.22350863
     atom   15 type  3   force =     0.21997272    0.00549369    0.20726235
     atom   16 type  3   force =     0.21873463   -0.02778317   -0.18221022
     atom   17 type  3   force =     0.22367122   -0.00822417    0.20855678
     atom   18 type  4   force =    -0.01280589    0.06571207   -0.05587089
     atom   19 type  4   force =     0.06839336    0.00827618    0.07136570
     atom   20 type  4   force =     0.06239711   -0.01284580   -0.06969300
     atom   21 type  4   force =    -0.06543520    0.00954590    0.06388709
     atom   22 type  4   force =    -0.05863962   -0.00903615   -0.05585990
     atom   23 type  5   force =    -0.08037175   -0.06735649   -0.00039974
     The ionic contribution  to forces
     atom    1 type  1   force =    -0.20255843   -4.74386288   14.36150753
     atom    2 type  1   force =   -35.67658652   -6.14215397    0.77984176
     atom    3 type  1   force =   -35.70761519    6.25398326   -0.70934040
     atom    4 type  1   force =    35.54136677   -6.19896773    0.77935716
     atom    5 type  1   force =    35.07934009    7.14915234   -0.69988200
     atom    6 type  2   force =    -0.21432005   -3.70750740  -14.28321633
     atom    7 type  2   force =    -0.55421649    3.65137886   14.55107633
     atom    8 type  3   force =   -47.65533988   -0.04624778   -0.06648405
     atom    9 type  3   force =    45.04678543   -2.46420484   -0.05570570
     atom   10 type  3   force =   -32.18568752   -2.07818719  -23.46063860
     atom   11 type  3   force =   -31.25502489   -0.82663242   22.46335902
     atom   12 type  3   force =   -31.38955024    0.83948121  -22.55882730
     atom   13 type  3   force =   -32.17802109    2.22733327   23.48674953
     atom   14 type  3   force =    32.11045290   -2.09558000  -23.52114223
     atom   15 type  3   force =    31.18108873   -0.84353068   22.52345954
     atom   16 type  3   force =    31.23730578    0.96022349  -22.74663954
     atom   17 type  3   force =    32.02405070    2.34894339   23.67588882
     atom   18 type  4   force =    -0.52250350    4.41247346  -14.43047937
     atom   19 type  4   force =   -32.14886891    0.91089111  -25.91043716
     atom   20 type  4   force =   -32.12238501   -1.00336553   25.88860425
     atom   21 type  4   force =    31.96383096    0.81370452  -26.20158058
     atom   22 type  4   force =    31.93965202   -1.09782071   26.17951369
     atom   23 type  5   force =     5.68880434    1.68049624   -0.04498437
     The local contribution  to forces
     atom    1 type  1   force =     0.18989945    4.71441538  -14.34930639
     atom    2 type  1   force =    35.81201047    6.29178717   -0.76697085
     atom    3 type  1   force =    35.83418348   -6.40253311    0.77503210
     atom    4 type  1   force =   -35.66542860    6.37022840   -0.76630054
     atom    5 type  1   force =   -35.18417747   -7.32755742    0.77011738
     atom    6 type  2   force =     0.20174243    3.75246523   14.38437123
     atom    7 type  2   force =     0.55369110   -3.71193372  -14.60758084
     atom    8 type  3   force =    47.81465935    0.05245979    0.09345096
     atom    9 type  3   force =   -45.30238126    2.31610052    0.09076733
     atom   10 type  3   force =    32.40835870    2.04620831   23.62622829
     atom   11 type  3   force =    31.48332770    0.77380948  -22.64295474
     atom   12 type  3   force =    31.60328261   -0.77626058   22.69171473
     atom   13 type  3   force =    32.39765786   -2.17682068  -23.66655501
     atom   14 type  3   force =   -32.32603068    2.06337872   23.69038733
     atom   15 type  3   force =   -31.40236182    0.78585238  -22.70318444
     atom   16 type  3   force =   -31.46296492   -0.88944235   22.87833127
     atom   17 type  3   force =   -32.24974174   -2.28856918  -23.85397959
     atom   18 type  4   force =     0.52419987   -4.46807877   14.50203841
     atom   19 type  4   force =    31.95819775   -0.92656126   25.73340925
     atom   20 type  4   force =    31.92504867    1.01891334  -25.72839901
     atom   21 type  4   force =   -31.78556925   -0.83505117   26.03121883
     atom   22 type  4   force =   -31.75139545    1.10740704  -26.03376462
     atom   23 type  5   force =    -5.34190489   -1.33161940    0.04405932
     The core correction contribution to forces
     atom    1 type  1   force =     0.00029263    0.00360366   -0.00340492
     atom    2 type  1   force =    -0.01033146   -0.00112170    0.00103046
     atom    3 type  1   force =    -0.01144145    0.00309756   -0.00145014
     atom    4 type  1   force =     0.01134568   -0.00277637    0.00113041
     atom    5 type  1   force =     0.00482555    0.00679982   -0.00185185
     atom    6 type  2   force =    -0.00027441    0.00281251    0.00330691
     atom    7 type  2   force =     0.00038425   -0.00369183   -0.00240339
     atom    8 type  3   force =    -0.02896356    0.00097349   -0.00075419
     atom    9 type  3   force =     0.00938847   -0.01444212   -0.00013214
     atom   10 type  3   force =    -0.02353940    0.00863292   -0.01747230
     atom   11 type  3   force =    -0.02513936    0.00894387    0.01775101
     atom   12 type  3   force =    -0.02258422   -0.01005753   -0.01510030
     atom   13 type  3   force =    -0.02290070   -0.00887992    0.01628272
     atom   14 type  3   force =     0.02252283    0.00885880   -0.01758554
     atom   15 type  3   force =     0.02373931    0.00963705    0.01782180
     atom   16 type  3   force =     0.02346874   -0.01017216   -0.01422159
     atom   17 type  3   force =     0.02300898   -0.00870020    0.01543657
     atom   18 type  4   force =     0.00068745   -0.00362265    0.00287364
     atom   19 type  4   force =    -0.01012523    0.00010138   -0.00951817
     atom   20 type  4   force =    -0.00998403    0.00029780    0.00946625
     atom   21 type  4   force =     0.01002294    0.00011506   -0.00895497
     atom   22 type  4   force =     0.00979269    0.00009155    0.00848536
     atom   23 type  5   force =     0.00000000    0.00000000    0.00000000
     The Hubbard contrib.    to forces
     atom    1 type  1   force =     0.00000000    0.00000000    0.00000000
     atom    2 type  1   force =     0.00000000    0.00000000    0.00000000
     atom    3 type  1   force =     0.00000000    0.00000000    0.00000000
     atom    4 type  1   force =     0.00000000    0.00000000    0.00000000
     atom    5 type  1   force =     0.00000000    0.00000000    0.00000000
     atom    6 type  2   force =     0.00000000    0.00000000    0.00000000
     atom    7 type  2   force =     0.00000000    0.00000000    0.00000000
     atom    8 type  3   force =     0.00000000    0.00000000    0.00000000
     atom    9 type  3   force =     0.00000000    0.00000000    0.00000000
     atom   10 type  3   force =     0.00000000    0.00000000    0.00000000
     atom   11 type  3   force =     0.00000000    0.00000000    0.00000000
     atom   12 type  3   force =     0.00000000    0.00000000    0.00000000
     atom   13 type  3   force =     0.00000000    0.00000000    0.00000000
     atom   14 type  3   force =     0.00000000    0.00000000    0.00000000
     atom   15 type  3   force =     0.00000000    0.00000000    0.00000000
     atom   16 type  3   force =     0.00000000    0.00000000    0.00000000
     atom   17 type  3   force =     0.00000000    0.00000000    0.00000000
     atom   18 type  4   force =     0.00000000    0.00000000    0.00000000
     atom   19 type  4   force =     0.00000000    0.00000000    0.00000000
     atom   20 type  4   force =     0.00000000    0.00000000    0.00000000
     atom   21 type  4   force =     0.00000000    0.00000000    0.00000000
     atom   22 type  4   force =     0.00000000    0.00000000    0.00000000
     atom   23 type  5   force =     0.00000000    0.00000000    0.00000000
     The SCF correction term to forces
     atom    1 type  1   force =    -0.00000000    0.00000000   -0.00000000
     atom    2 type  1   force =     0.00000000   -0.00000000   -0.00000000
     atom    3 type  1   force =     0.00000000    0.00000000   -0.00000000
     atom    4 type  1   force =    -0.00000000   -0.00000000   -0.00000000
     atom    5 type  1   force =    -0.00000000    0.00000000   -0.00000000
     atom    6 type  2   force =    -0.00000000   -0.00000000   -0.00000000
     atom    7 type  2   force =    -0.00000000   -0.00000000   -0.00000000
     atom    8 type  3   force =     0.00000000   -0.00000000   -0.00000000
     atom    9 type  3   force =    -0.00000000    0.00000000   -0.00000000
     atom   10 type  3   force =     0.00170321   -0.00750408    0.00908783
     atom   11 type  3   force =     0.00217026    0.00705841    0.01019705
     atom   12 type  3   force =     0.00331989    0.00578597    0.00768200
     atom   13 type  3   force =     0.00304488   -0.00800461    0.01204335
     atom   14 type  3   force =    -0.00052289   -0.00967281    0.00749823
     atom   15 type  3   force =    -0.00338329    0.00635960    0.01179113
     atom   16 type  3   force =    -0.00053844    0.00561481    0.00701020
     atom   17 type  3   force =    -0.00330090   -0.00869954    0.01309231
     atom   18 type  4   force =     0.00148556    0.01100779   -0.02538761
     atom   19 type  4   force =     0.00057923    0.00110646    0.00138833
     atom   20 type  4   force =     0.00740724    0.00047820    0.01334134
     atom   21 type  4   force =     0.00081931    0.00283993    0.00061914
     atom   22 type  4   force =    -0.00735236    0.00178537    0.01441209
     atom   23 type  5   force =    -0.00131962   -0.00071671   -0.00256369

     Total force =     0.556689     Total SCF correction =     0.050887


     Computing stress (Cartesian axis) and pressure


     negative rho (up, down):  9.096E-01 9.096E-01
          total   stress  (Ry/bohr**3)                   (kbar)     P=       98.26
   0.00075219   0.00010714   0.00000110          110.65       15.76        0.16
   0.00010714   0.00082228  -0.00001355           15.76      120.96       -1.99
   0.00000110  -0.00001355   0.00042941            0.16       -1.99       63.17


     Entering Dynamics:    iteration =    20
                           time      =   0.0041 pico-seconds


ATOMIC_POSITIONS (angstrom)
Hf            2.6699999570        2.8271230292        6.6039642186    0   0   0
Hf            1.2529906802        1.2862841814        5.0584662261    0   0   0
Hf            1.2554868986        7.3898042948        5.0880677674    0   0   0
Hf            4.0870092338        1.2862841814        5.0584662261    0   0   0
Hf            4.0845130154        7.3898042948        5.0880677674    0   0   0
Nb            2.6699999570        2.7969306055        3.5155832167    0   0   0
Nb            2.6699999570        5.8763786763        6.6349979432    0   0   0
Ta            1.2093730560        4.3409278516        5.0711258323    0   0   0
Ta            4.1306268580        4.3409278516        5.0711258323    0   0   0
Ta            1.3069650057        1.3138252915        2.0580706330
Ta            1.3025226762        1.3080114850        8.0952343856
Ta            1.3038256855        7.3762055424        2.0455957924
Ta            1.3074959223        7.3653829489        8.0866922168
Ta            4.0329449238        1.3137875624        2.0580752941
Ta            4.0374077225        1.3080078313        8.0952330596
Ta            4.0361669122        7.3762507310        2.0456245339
Ta            4.0324841464        7.3654400126        8.0866818258
Zr            2.6699563879        5.8667599659        3.5272188192
Zr            1.2407837633        4.3219330752        1.9974282598
Zr            1.2372441155        4.3542055224        8.1523643664
Zr            4.0990138987        4.3218750478        1.9974508766
Zr            4.1026123556        4.3541959559        8.1523099075
H             5.1914165524        5.4235223297        5.0656220231


     kinetic energy (Ekin) =           1.75332846 Ry
     temperature           =       13182.31758529 K 
     Ekin + Etot (const)   =       -2941.23664126 Ry
     Ions kinetic stress =           33.87 (kbar)
                                     48.98          50.60          -0.53
                                     50.60          52.46          -0.54
                                     -0.53          -0.54           0.15



     The maximum number of steps has been reached.

     End of molecular dynamics calculation

     diffusion coefficients :
     atom     1   D =       0.00000000 cm^2/s
     atom     2   D =       0.00000000 cm^2/s
     atom     3   D =       0.00000000 cm^2/s
     atom     4   D =       0.00000000 cm^2/s
     atom     5   D =       0.00000000 cm^2/s
     atom     6   D =       0.00000000 cm^2/s
     atom     7   D =       0.00000000 cm^2/s
     atom     8   D =       0.00000000 cm^2/s
     atom     9   D =       0.00000000 cm^2/s
     atom    10   D =       0.00000000 cm^2/s
     atom    11   D =       0.00000000 cm^2/s
     atom    12   D =       0.00000000 cm^2/s
     atom    13   D =       0.00000000 cm^2/s
     atom    14   D =       0.00000000 cm^2/s
     atom    15   D =       0.00000000 cm^2/s
     atom    16   D =       0.00000000 cm^2/s
     atom    17   D =       0.00000000 cm^2/s
     atom    18   D =       0.00000000 cm^2/s
     atom    19   D =       0.00000007 cm^2/s
     atom    20   D =       0.00000007 cm^2/s
     atom    21   D =       0.00000006 cm^2/s
     atom    22   D =       0.00000006 cm^2/s
     atom    23   D =       0.00003000 cm^2/s

     < D > =       0.00000216 cm^2/s

     Writing all to output data dir outdir/pwscf.save/

     init_run     :      7.59s CPU     10.36s WALL (       1 calls)
     electrons    :   1619.95s CPU   1938.10s WALL (      20 calls)
     update_pot   :     17.48s CPU     21.30s WALL (      19 calls)
     forces       :    226.62s CPU    255.75s WALL (      20 calls)
     stress       :    348.93s CPU    402.14s WALL (      20 calls)

     Called by init_run:
     wfcinit      :      5.54s CPU      7.58s WALL (       1 calls)
     potinit      :      0.42s CPU      0.45s WALL (       1 calls)
     hinit0       :      0.87s CPU      1.06s WALL (       1 calls)

     Called by electrons:
     c_bands      :   1293.02s CPU   1555.26s WALL (      99 calls)
     sum_band     :    213.42s CPU    246.35s WALL (      99 calls)
     v_of_rho     :      9.13s CPU     11.00s WALL (     119 calls)
     newd         :    129.35s CPU    155.69s WALL (     119 calls)
     mix_rho      :      0.76s CPU      1.04s WALL (      99 calls)

     Called by c_bands:
     init_us_2    :      3.58s CPU      3.73s WALL (     478 calls)
     init_us_2:cp :      3.57s CPU      3.73s WALL (     478 calls)
     regterg      :   1281.72s CPU   1541.27s WALL (     198 calls)

     Called by *egterg:
     rdiaghg      :     45.99s CPU     58.70s WALL (    1254 calls)
     h_psi        :    648.87s CPU    718.73s WALL (    1294 calls)
     s_psi        :    217.67s CPU    218.13s WALL (    1294 calls)
     g_psi        :      0.48s CPU      0.53s WALL (    1094 calls)

     Called by h_psi:
     h_psi:calbec :    307.61s CPU    362.86s WALL (    1294 calls)
     vloc_psi     :     69.27s CPU     82.98s WALL (    1294 calls)
     add_vuspsi   :    270.91s CPU    271.73s WALL (    1294 calls)

     General routines
     calbec       :    589.00s CPU    702.95s WALL (    1692 calls)
     fft          :      7.32s CPU     21.15s WALL (    2484 calls)
     ffts         :      0.19s CPU      0.22s WALL (      99 calls)
     fftw         :     72.68s CPU     88.23s WALL (  101622 calls)

     Parallel routines

     PWSCF        :  37m26.78s CPU  44m20.14s WALL


   This run was terminated on:  19:52:14  11Jun2023            

=------------------------------------------------------------------------------=
   JOB DONE.
=------------------------------------------------------------------------------=
