
     Program PWSCF v.7.2 starts on 13Jun2023 at 20:17:22 

     This program is part of the open-source Quantum ESPRESSO suite
     for quantum simulation of materials; please cite
         "P. Giannozzi et al., J. Phys.:Condens. Matter 21 395502 (2009);
         "P. Giannozzi et al., J. Phys.:Condens. Matter 29 465901 (2017);
         "P. Giannozzi et al., J. Chem. Phys. 152 154105 (2020);
          URL http://www.quantum-espresso.org", 
     in publications or presentations arising from this work. More details at
     http://www.quantum-espresso.org/quote

     Parallel version (MPI), running on    42 processors

     MPI processes distributed on     1 nodes
     178490 MiB available memory on the printing compute node when the environment starts

     Reading input from md_data/md_Hf5Nb2Ta10Zr5H_20steps_100eV_incident30_polar60.in
Warning: card &CELL ignored
Warning: card / ignored

     Current dimensions of program PWSCF are:
     Max number of different atomic species (ntypx) = 10
     Max number of k-points (npk) =  40000
     Max angular momentum in pseudopotentials (lmaxx) =  4

     File outdir/pwscf.md deleted, as requested

     gamma-point specific algorithms are used

     R & G space division:  proc/nbgrp/npool/nimage =      42
     Subspace diagonalization in iterative solution of the eigenvalue problem:
     one sub-group per band group will be used
     custom distributed-memory algorithm (size of sub-group:  2*  2 procs)


     Parallelization info
     --------------------
     sticks:   dense  smooth     PW     G-vecs:    dense   smooth      PW
     Min         262     262     63                23470    23470    2920
     Max         265     265     66                23484    23484    2942
     Sum       11057   11057   2753               986005   986005  123175

     Using Slab Decomposition



     bravais-lattice index     =            0
     lattice parameter (alat)  =      17.6500  a.u.
     unit-cell volume          =    5552.8853 (a.u.)^3
     number of atoms/cell      =           23
     number of atomic types    =            5
     number of electrons       =       277.00
     number of Kohn-Sham states=          167
     kinetic-energy cutoff     =     120.0000  Ry
     charge density cutoff     =     480.0000  Ry
     scf convergence threshold =      1.0E-03
     mixing beta               =       0.7000
     number of iterations used =            8  TF        mixing
     energy convergence thresh.=      0.0E+00
     force convergence thresh. =      0.0E+00
     Exchange-correlation=  SLA  PW   PBX  PBC
                           (   1   4   3   4   0   0   0)
     nstep                     =           20


     celldm(1)=  17.650041  celldm(2)=   0.000000  celldm(3)=   0.000000
     celldm(4)=   0.000000  celldm(5)=   0.000000  celldm(6)=   0.000000

     crystal axes: (cart. coord. in units of alat)
               a(1) = (   1.000000   0.000000   0.000000 )  
               a(2) = (   0.000000   0.929336   0.000000 )  
               a(3) = (   0.000000   0.000000   1.086698 )  

     reciprocal axes: (cart. coord. in units 2 pi/alat)
               b(1) = (  1.000000  0.000000  0.000000 )  
               b(2) = (  0.000000  1.076037  0.000000 )  
               b(3) = (  0.000000  0.000000  0.920219 )  


     PseudoPot. # 1 for Hf read from file:
     q-e/pseudo/hf_pbe_v1.uspp.F.UPF
     MD5 check sum: 8ee9378dfe14276e333edf04c5e4aa26
     Pseudo is Ultrasoft + core correction, Zval = 12.0
     Generated by new atomic code, or converted to UPF format
     Using radial grid of  921 points,  8 beta functions with: 
                l(1) =   0
                l(2) =   0
                l(3) =   0
                l(4) =   1
                l(5) =   1
                l(6) =   2
                l(7) =   2
                l(8) =   3
     Q(r) pseudized with  6 coefficients,  rinner =    1.200   1.200   1.200
                                                       1.200   1.200   1.200
                                                       1.200

     PseudoPot. # 2 for Nb read from file:
     q-e/pseudo/nb_pbe_v1.uspp.F.UPF
     MD5 check sum: 573aab8a2fa660278ed4a62cd769473f
     Pseudo is Ultrasoft + core correction, Zval = 13.0
     Generated by new atomic code, or converted to UPF format
     Using radial grid of  887 points,  6 beta functions with: 
                l(1) =   0
                l(2) =   0
                l(3) =   1
                l(4) =   1
                l(5) =   2
                l(6) =   2
     Q(r) pseudized with  6 coefficients,  rinner =    1.000   1.000   1.000
                                                       1.000   1.000

     PseudoPot. # 3 for Ta read from file:
     q-e/pseudo/ta_pbe_v1.uspp.F.UPF
     MD5 check sum: f8bbe9446314a3b8ea5d9f3e3836c939
     Pseudo is Ultrasoft + core correction, Zval = 13.0
     Generated by new atomic code, or converted to UPF format
     Using radial grid of  921 points,  7 beta functions with: 
                l(1) =   0
                l(2) =   0
                l(3) =   1
                l(4) =   1
                l(5) =   2
                l(6) =   2
                l(7) =   3
     Q(r) pseudized with  6 coefficients,  rinner =    1.300   1.300   1.300
                                                       1.300   1.300   1.300
                                                       1.300

     PseudoPot. # 4 for Zr read from file:
     q-e/pseudo/zr_pbe_v1.uspp.F.UPF
     MD5 check sum: 5db81b1e868ab7776c4564c113de050b
     Pseudo is Ultrasoft + core correction, Zval = 12.0
     Generated by new atomic code, or converted to UPF format
     Using radial grid of  887 points,  6 beta functions with: 
                l(1) =   0
                l(2) =   0
                l(3) =   1
                l(4) =   1
                l(5) =   2
                l(6) =   2
     Q(r) pseudized with  6 coefficients,  rinner =    1.200   1.200   1.200
                                                       1.200   1.200

     PseudoPot. # 5 for H  read from file:
     q-e/pseudo/h_pbe_v1.4.uspp.F.UPF
     MD5 check sum: 761ae9a214b05c3daf00ab9f6b793d6f
     Pseudo is Ultrasoft, Zval =  1.0
     Generated by new atomic code, or converted to UPF format
     Using radial grid of  615 points,  2 beta functions with: 
                l(1) =   0
                l(2) =   0
     Q(r) pseudized with  8 coefficients,  rinner =    0.700

     atomic species   valence    mass     pseudopotential
        Hf            12.00   178.49000     Hf( 1.00)
        Nb            13.00    92.90637     Nb( 1.00)
        Ta            13.00   180.94788     Ta( 1.00)
        Zr            12.00    91.22400     Zr( 1.00)
        H              1.00     2.01400     H ( 1.00)

     Starting magnetic structure 
     atomic species   magnetization
        Hf           0.000
        Nb           0.000
        Ta           0.000
        Zr           0.000
        H            0.000

     No symmetry found



   Cartesian axes

     site n.     atom                  positions (alat units)
         1           Hf  tau(   1) = (   0.2858672   0.3026898   0.7070626  )
         2           Hf  tau(   2) = (   0.1341532   0.1377178   0.5415917  )
         3           Hf  tau(   3) = (   0.1344204   0.7911996   0.5447610  )
         4           Hf  tau(   4) = (   0.4375813   0.1377178   0.5415917  )
         5           Hf  tau(   5) = (   0.4373140   0.7911996   0.5447610  )
         6           Nb  tau(   6) = (   0.2858672   0.2994572   0.3764008  )
         7           Nb  tau(   7) = (   0.2858672   0.6291626   0.7103852  )
         8           Ta  tau(   8) = (   0.1294832   0.4647675   0.5429471  )
         9           Ta  tau(   9) = (   0.4422513   0.4647675   0.5429471  )
        10           Ta  tau(  10) = (   0.1399628   0.1406984   0.2204260  )
        11           Ta  tau(  11) = (   0.1394848   0.1400847   0.8666573  )
        12           Ta  tau(  12) = (   0.1396156   0.7897030   0.2190832  )
        13           Ta  tau(  13) = (   0.1400119   0.7885528   0.8657390  )
        14           Ta  tau(  14) = (   0.4317717   0.1406984   0.2204260  )
        15           Ta  tau(  15) = (   0.4322496   0.1400847   0.8666573  )
        16           Ta  tau(  16) = (   0.4321189   0.7897030   0.2190832  )
        17           Ta  tau(  17) = (   0.4317226   0.7885528   0.8657390  )
        18           Zr  tau(  18) = (   0.2858672   0.6280820   0.3776642  )
        19           Zr  tau(  19) = (   0.1331729   0.4627493   0.2141328  )
        20           Zr  tau(  20) = (   0.1328036   0.4661802   0.8725649  )
        21           Zr  tau(  21) = (   0.4385616   0.4627493   0.2141328  )
        22           Zr  tau(  22) = (   0.4389309   0.4661802   0.8725649  )
        23           H   tau(  23) = (   0.6276957   0.5182013   0.6357822  )

     number of k points=     1  Gaussian smearing, width (Ry)=  0.0220
                       cart. coord. in units 2pi/alat
        k(    1) = (   0.0000000   0.0000000   0.0000000), wk =   1.0000000

     Dense  grid:   493003 G-vectors     FFT dimensions: ( 125, 120, 135)

     Estimated max dynamical RAM per process >     133.03 MB

     Estimated total dynamical RAM >       5.46 GB

     Check: negative core charge=   -0.000002
     Generating pointlists ...
     new r_m :   0.1117 (alat units)  1.9717 (a.u.) for type    1
     new r_m :   0.1098 (alat units)  1.9374 (a.u.) for type    2
     new r_m :   0.0883 (alat units)  1.5592 (a.u.) for type    3
     new r_m :   0.1112 (alat units)  1.9625 (a.u.) for type    4
     new r_m :   0.0883 (alat units)  1.5592 (a.u.) for type    5

     Initial potential from superposition of free atoms

     starting charge     266.9726, renormalised to     277.0000

     negative rho (up, down):  9.217E-01 9.217E-01
     Starting wfcs are  287 randomized atomic wfcs

     total cpu time spent up to now is       13.2 secs

     Self-consistent Calculation

     iteration #  1     ecut=   120.00 Ry     beta= 0.70
     Davidson diagonalization with overlap
     ethr =  1.00E-02,  avg # of iterations =  2.0

     negative rho (up, down):  9.969E-01 9.965E-01

     total cpu time spent up to now is       49.5 secs

     total energy              =   -2930.57936064 Ry
     estimated scf accuracy    <     276.95898303 Ry

     total magnetization       =    -0.00 Bohr mag/cell
     absolute magnetization    =     0.09 Bohr mag/cell

     iteration #  2     ecut=   120.00 Ry     beta= 0.70
     Davidson diagonalization with overlap
     ethr =  1.00E-02,  avg # of iterations =  5.0

     negative rho (up, down):  9.709E-01 9.702E-01

     total cpu time spent up to now is       95.1 secs

     total energy              =   -2942.17602940 Ry
     estimated scf accuracy    <      30.29173144 Ry

     total magnetization       =    -0.02 Bohr mag/cell
     absolute magnetization    =     0.21 Bohr mag/cell

     iteration #  3     ecut=   120.00 Ry     beta= 0.70
     Davidson diagonalization with overlap
     ethr =  1.00E-02,  avg # of iterations =  2.0

     negative rho (up, down):  1.005E+00 1.010E+00

     total cpu time spent up to now is      115.3 secs

     total energy              =   -2942.65523323 Ry
     estimated scf accuracy    <      12.90711412 Ry

     total magnetization       =    -0.01 Bohr mag/cell
     absolute magnetization    =     0.30 Bohr mag/cell

     iteration #  4     ecut=   120.00 Ry     beta= 0.70
     Davidson diagonalization with overlap
     ethr =  4.66E-03,  avg # of iterations =  3.0

     negative rho (up, down):  1.010E+00 1.019E+00

     total cpu time spent up to now is      133.4 secs

     total energy              =   -2942.90034057 Ry
     estimated scf accuracy    <       3.17268238 Ry

     total magnetization       =    -0.00 Bohr mag/cell
     absolute magnetization    =     0.35 Bohr mag/cell

     iteration #  5     ecut=   120.00 Ry     beta= 0.70
     Davidson diagonalization with overlap
     ethr =  1.15E-03,  avg # of iterations =  8.0

     negative rho (up, down):  9.879E-01 9.935E-01

     total cpu time spent up to now is      156.8 secs

     total energy              =   -2943.06937212 Ry
     estimated scf accuracy    <       1.83660414 Ry

     total magnetization       =    -0.01 Bohr mag/cell
     absolute magnetization    =     0.18 Bohr mag/cell

     iteration #  6     ecut=   120.00 Ry     beta= 0.70
     Davidson diagonalization with overlap
     ethr =  6.63E-04,  avg # of iterations =  2.0

     negative rho (up, down):  9.740E-01 9.771E-01

     total cpu time spent up to now is      174.1 secs

     total energy              =   -2943.11173637 Ry
     estimated scf accuracy    <       0.96324845 Ry

     total magnetization       =     0.01 Bohr mag/cell
     absolute magnetization    =     0.14 Bohr mag/cell

     iteration #  7     ecut=   120.00 Ry     beta= 0.70
     Davidson diagonalization with overlap
     ethr =  3.48E-04,  avg # of iterations =  2.0

     negative rho (up, down):  9.476E-01 9.486E-01

     total cpu time spent up to now is      204.9 secs

     total energy              =   -2943.05996705 Ry
     estimated scf accuracy    <       0.40549621 Ry

     total magnetization       =     0.00 Bohr mag/cell
     absolute magnetization    =     0.11 Bohr mag/cell

     iteration #  8     ecut=   120.00 Ry     beta= 0.70
     Davidson diagonalization with overlap
     ethr =  1.46E-04,  avg # of iterations =  6.5

     negative rho (up, down):  9.219E-01 9.216E-01

     total cpu time spent up to now is      243.3 secs

     total energy              =   -2943.06052043 Ry
     estimated scf accuracy    <       0.19439014 Ry

     total magnetization       =    -0.01 Bohr mag/cell
     absolute magnetization    =     0.09 Bohr mag/cell

     iteration #  9     ecut=   120.00 Ry     beta= 0.70
     Davidson diagonalization with overlap
     ethr =  7.02E-05,  avg # of iterations = 11.0

     negative rho (up, down):  9.080E-01 9.078E-01

     total cpu time spent up to now is      269.9 secs

     total energy              =   -2943.05442977 Ry
     estimated scf accuracy    <       0.05874014 Ry

     total magnetization       =    -0.01 Bohr mag/cell
     absolute magnetization    =     0.07 Bohr mag/cell

     iteration # 10     ecut=   120.00 Ry     beta= 0.70
     Davidson diagonalization with overlap
     ethr =  2.12E-05,  avg # of iterations = 14.5

     negative rho (up, down):  9.087E-01 9.087E-01

     total cpu time spent up to now is      293.1 secs

     total energy              =   -2943.05968933 Ry
     estimated scf accuracy    <       0.03619887 Ry

     total magnetization       =    -0.01 Bohr mag/cell
     absolute magnetization    =     0.06 Bohr mag/cell

     iteration # 11     ecut=   120.00 Ry     beta= 0.70
     Davidson diagonalization with overlap
     ethr =  1.31E-05,  avg # of iterations =  2.0

     negative rho (up, down):  9.092E-01 9.092E-01

     total cpu time spent up to now is      310.3 secs

     total energy              =   -2943.06381288 Ry
     estimated scf accuracy    <       0.00551887 Ry

     total magnetization       =    -0.02 Bohr mag/cell
     absolute magnetization    =     0.05 Bohr mag/cell

     iteration # 12     ecut=   120.00 Ry     beta= 0.70
     Davidson diagonalization with overlap
     c_bands:  1 eigenvalues not converged
     ethr =  1.99E-06,  avg # of iterations = 13.5

     negative rho (up, down):  9.092E-01 9.092E-01

     total cpu time spent up to now is      335.5 secs

     total energy              =   -2943.06589061 Ry
     estimated scf accuracy    <       0.00288673 Ry

     total magnetization       =    -0.02 Bohr mag/cell
     absolute magnetization    =     0.04 Bohr mag/cell

     iteration # 13     ecut=   120.00 Ry     beta= 0.70
     Davidson diagonalization with overlap
     ethr =  1.04E-06,  avg # of iterations =  3.0

     negative rho (up, down):  9.089E-01 9.089E-01

     Magnetic moment per site  (integrated on atomic sphere of radius R)
     atom   1 (R=0.112)  charge=  9.4632  magn=  0.0001
     atom   2 (R=0.112)  charge=  9.0594  magn=  0.0004
     atom   3 (R=0.112)  charge=  9.0583  magn=  0.0006
     atom   4 (R=0.112)  charge=  9.0579  magn= -0.0001
     atom   5 (R=0.112)  charge=  9.0568  magn=  0.0001
     atom   6 (R=0.110)  charge= 10.3496  magn=  0.0008
     atom   7 (R=0.110)  charge= 10.3496  magn=  0.0001
     atom   8 (R=0.088)  charge=  8.1283  magn=  0.0000
     atom   9 (R=0.088)  charge=  8.1181  magn=  0.0004
     atom  10 (R=0.088)  charge=  8.1074  magn= -0.0004
     atom  11 (R=0.088)  charge=  8.1049  magn= -0.0000
     atom  12 (R=0.088)  charge=  8.1085  magn= -0.0005
     atom  13 (R=0.088)  charge=  8.1052  magn= -0.0001
     atom  14 (R=0.088)  charge=  8.1064  magn= -0.0004
     atom  15 (R=0.088)  charge=  8.1053  magn= -0.0003
     atom  16 (R=0.088)  charge=  8.1074  magn= -0.0010
     atom  17 (R=0.088)  charge=  8.1092  magn=  0.0002
     atom  18 (R=0.111)  charge=  9.4546  magn=  0.0004
     atom  19 (R=0.111)  charge=  8.9974  magn= -0.0020
     atom  20 (R=0.111)  charge=  8.9969  magn= -0.0003
     atom  21 (R=0.111)  charge=  8.9939  magn= -0.0021
     atom  22 (R=0.111)  charge=  8.9910  magn= -0.0001
     atom  23 (R=0.088)  charge=  0.9713  magn= -0.0000

     total cpu time spent up to now is      353.2 secs

     End of self-consistent calculation

 ------ SPIN UP ------------


          k = 0.0000 0.0000 0.0000 ( 61588 PWs)   bands (ev):

   -60.7905 -60.7860 -60.7458 -60.7384 -60.7131 -60.7082 -60.6682 -60.6643
   -60.5122 -60.4224 -54.4076 -54.3562 -54.2810 -54.2308 -52.7039 -46.2772
   -46.2663 -41.6732 -41.6259 -41.5680 -41.5253 -39.8083 -27.7922 -27.7874
   -27.7063 -27.7010 -27.6034 -27.5981 -27.4795 -27.4685 -27.3758 -27.3434
   -27.3071 -27.2788 -27.2677 -27.2489 -27.2369 -27.1818 -27.1754 -27.1484
   -27.0923 -27.0844 -27.0248 -26.9690 -26.9641 -26.9588 -26.9470 -26.9126
   -26.8986 -26.8915 -26.8667 -26.8652 -24.1901 -23.9799 -23.6748 -23.5906
   -23.3337 -23.2006 -23.1794 -23.0762 -22.9492 -22.8811 -22.8613 -22.6421
   -22.5159 -22.4643 -22.4088 -22.3675 -22.2928 -22.2480 -21.7681 -21.7033
   -21.6347 -20.1966 -19.9741 -19.8284 -19.8249 -19.6494 -19.6217 -19.5997
   -19.5913 -19.5740 -19.5519 -19.3992 -19.3676 -18.1540 -17.9493 -17.8240
     1.4598   2.9175   2.9966   3.1278   3.3007   3.4471   3.4910   3.6751
     3.7355   3.8289   3.9072   4.0489   4.2509   4.4965   4.6448   4.6742
     4.7411   4.8738   5.0406   5.0720   5.1311   5.2547   5.2831   5.2917
     5.3898   5.5473   5.5662   5.7102   5.7295   5.7465   5.7474   5.7828
     5.9236   6.0871   6.1533   6.2145   6.2606   6.3003   6.3532   6.3703
     6.4481   6.6207   6.6541   6.6816   6.8738   6.9233   7.0006   7.0398
     7.0925   7.1390   7.2563   7.3072   7.3137   7.4223   7.5333   7.5809
     7.6128   7.6819   7.8836   7.9296   8.0758   8.0911   8.1113   8.1858
     8.2417   8.3245   8.3429   8.3621   8.4783   8.5255   8.6165   8.7134
     8.7760   8.8951   8.9321   9.0545   9.1747   9.2194   9.2704

 ------ SPIN DOWN ----------


          k = 0.0000 0.0000 0.0000 ( 61588 PWs)   bands (ev):

   -60.7911 -60.7860 -60.7464 -60.7384 -60.7138 -60.7082 -60.6688 -60.6644
   -60.5122 -60.4218 -54.4074 -54.3558 -54.2809 -54.2305 -52.7037 -46.2769
   -46.2652 -41.6733 -41.6280 -41.5683 -41.5275 -39.8077 -27.7925 -27.7877
   -27.7070 -27.7010 -27.6038 -27.5983 -27.4797 -27.4692 -27.3759 -27.3440
   -27.3072 -27.2796 -27.2678 -27.2493 -27.2375 -27.1823 -27.1760 -27.1483
   -27.0917 -27.0844 -27.0243 -26.9696 -26.9641 -26.9589 -26.9477 -26.9122
   -26.8988 -26.8922 -26.8671 -26.8655 -24.1897 -23.9796 -23.6744 -23.5904
   -23.3334 -23.2002 -23.1789 -23.0758 -22.9488 -22.8808 -22.8611 -22.6419
   -22.5152 -22.4634 -22.4085 -22.3670 -22.2923 -22.2475 -21.7679 -21.7031
   -21.6345 -20.1987 -19.9738 -19.8310 -19.8270 -19.6496 -19.6219 -19.6010
   -19.5926 -19.5762 -19.5524 -19.3993 -19.3703 -18.1534 -17.9488 -17.8237
     1.4598   2.9169   2.9969   3.1279   3.3009   3.4468   3.4909   3.6753
     3.7356   3.8289   3.9066   4.0483   4.2509   4.4966   4.6447   4.6740
     4.7409   4.8737   5.0400   5.0717   5.1307   5.2541   5.2829   5.2917
     5.3892   5.5473   5.5661   5.7098   5.7286   5.7464   5.7475   5.7823
     5.9236   6.0865   6.1528   6.2141   6.2605   6.3001   6.3529   6.3695
     6.4474   6.6204   6.6535   6.6810   6.8729   6.9226   6.9989   7.0389
     7.0908   7.1378   7.2553   7.3066   7.3121   7.4209   7.5332   7.5791
     7.6117   7.6814   7.8833   7.9294   8.0744   8.0903   8.1106   8.1847
     8.2406   8.3239   8.3420   8.3613   8.4777   8.5246   8.6157   8.7124
     8.7753   8.8937   8.9312   9.0540   9.1736   9.2191   9.2642

     the Fermi energy is     7.2315 ev

!    total energy              =   -2943.06712482 Ry
     estimated scf accuracy    <       0.00048127 Ry
     smearing contrib. (-TS)   =      -0.09989143 Ry
     internal energy E=F+TS    =   -2942.96723339 Ry

     total magnetization       =    -0.02 Bohr mag/cell
     absolute magnetization    =     0.04 Bohr mag/cell

     convergence has been achieved in  13 iterations

     negative rho (up, down):  9.089E-01 9.089E-01

     Forces acting on atoms (cartesian axes, Ry/au):

     atom    1 type  1   force =    -0.00557851   -0.02525484    0.00891249
     atom    2 type  1   force =    -0.11341216   -0.01700742   -0.00158394
     atom    3 type  1   force =    -0.11354189    0.01463137    0.00259723
     atom    4 type  1   force =     0.11110827   -0.01954124   -0.00594582
     atom    5 type  1   force =     0.12002784    0.01291292    0.00334222
     atom    6 type  2   force =    -0.01149139   -0.01988138    0.00449320
     atom    7 type  2   force =    -0.01909535    0.01143111   -0.00922976
     atom    8 type  3   force =    -0.11730746    0.00414470   -0.00136292
     atom    9 type  3   force =     0.16267906    0.00696420    0.01009488
     atom   10 type  3   force =    -0.02061835   -0.03230666   -0.05915336
     atom   11 type  3   force =    -0.02106711   -0.03587810    0.05695321
     atom   12 type  3   force =    -0.01933996    0.03732801   -0.05468324
     atom   13 type  3   force =    -0.01866605    0.03161829    0.06137893
     atom   14 type  3   force =     0.02422317   -0.02984529   -0.05737658
     atom   15 type  3   force =     0.01806757   -0.03773581    0.05402359
     atom   16 type  3   force =     0.02093523    0.03531667   -0.05108371
     atom   17 type  3   force =     0.01512413    0.03773220    0.05919849
     atom   18 type  4   force =    -0.00457131    0.02872719   -0.00993264
     atom   19 type  4   force =    -0.13032529   -0.00460029   -0.11580939
     atom   20 type  4   force =    -0.13460583    0.00506243    0.11269645
     atom   21 type  4   force =     0.12816989   -0.00710104   -0.11657269
     atom   22 type  4   force =     0.15605193    0.00623665    0.10355131
     atom   23 type  5   force =    -0.02676643   -0.00295367    0.00549205
     The non-local contrib.  to forces
     atom    1 type  1   force =    -0.00503735   -0.01423778    0.03396017
     atom    2 type  1   force =    -0.24456950   -0.16393688    0.01528782
     atom    3 type  1   force =    -0.23919408    0.15867991   -0.02557592
     atom    4 type  1   force =     0.25181109   -0.16394570    0.02571453
     atom    5 type  1   force =     0.26001625    0.14760353   -0.01163824
     atom    6 type  2   force =     0.00668470   -0.05592247   -0.06408222
     atom    7 type  2   force =    -0.02429478    0.05824107    0.05672764
     atom    8 type  3   force =    -0.27114580    0.00288544    0.00104040
     atom    9 type  3   force =     0.09966353   -0.03553585   -0.05385095
     atom   10 type  3   force =    -0.21328489    0.00405867   -0.20638047
     atom   11 type  3   force =    -0.21463713    0.00682236    0.19647113
     atom   12 type  3   force =    -0.20583956   -0.01975960   -0.17695034
     atom   13 type  3   force =    -0.21011905   -0.00453599    0.20572541
     atom   14 type  3   force =     0.20684660    0.00386218   -0.21974745
     atom   15 type  3   force =     0.22088336    0.00369687    0.18717880
     atom   16 type  3   force =     0.19827324   -0.01896356   -0.18698332
     atom   17 type  3   force =     0.23405142   -0.01293818    0.18605591
     atom   18 type  4   force =    -0.00420349    0.05780253   -0.06070343
     atom   19 type  4   force =     0.06123768    0.00887527    0.07377349
     atom   20 type  4   force =     0.05375455   -0.01806828   -0.06065512
     atom   21 type  4   force =    -0.05438851    0.01168735    0.07631470
     atom   22 type  4   force =    -0.05757361   -0.00911356   -0.08511294
     atom   23 type  5   force =    -0.03808241   -0.01021436   -0.01385099
     The ionic contribution  to forces
     atom    1 type  1   force =    -0.26316664   -4.74693388   14.02851364
     atom    2 type  1   force =   -39.66161355   -6.16068848    0.73523893
     atom    3 type  1   force =   -39.63686855    6.18955266   -0.76795655
     atom    4 type  1   force =    39.48992486   -6.27626781    0.68532232
     atom    5 type  1   force =    39.31140391    6.49327933   -0.87966706
     atom    6 type  2   force =    -0.15414886   -3.63047644  -14.01055254
     atom    7 type  2   force =    -0.42641916    3.71596977   13.99708823
     atom    8 type  3   force =   -52.07814508    0.03185351   -0.14983742
     atom    9 type  3   force =    50.56559936   -0.36110887   -0.83684448
     atom   10 type  3   force =   -36.04323933   -2.10365363  -23.07459600
     atom   11 type  3   force =   -35.12089650   -0.87330470   22.10984029
     atom   12 type  3   force =   -35.22837246    0.82434765  -22.13706566
     atom   13 type  3   force =   -36.02416331    2.23999260   23.10561480
     atom   14 type  3   force =    35.97058715   -2.12598097  -23.11398566
     atom   15 type  3   force =    34.98472141   -0.94393157   22.18909249
     atom   16 type  3   force =    35.13674634    0.86697350  -22.19848127
     atom   17 type  3   force =    35.80670452    2.39961398   23.25905087
     atom   18 type  4   force =    -0.19515231    4.40826339  -14.00903083
     atom   19 type  4   force =   -35.88096916    0.94223544  -25.54889019
     atom   20 type  4   force =   -35.86814075   -0.97912799   25.58478083
     atom   21 type  4   force =    35.75875588    0.92364451  -25.66315180
     atom   22 type  4   force =    35.41246419   -1.07579189   26.02843524
     atom   23 type  5   force =     4.14438803    0.24153988    0.66708184
     The local contribution  to forces
     atom    1 type  1   force =     0.26236920    4.73242797  -14.05742699
     atom    2 type  1   force =    39.81660951    6.30487285   -0.75149580
     atom    3 type  1   force =    39.78617118   -6.33035518    0.79543201
     atom    4 type  1   force =   -39.65484522    6.41991953   -0.72154572
     atom    5 type  1   force =   -39.47573342   -6.62684150    0.89045949
     atom    6 type  2   force =     0.13803441    3.65574669   14.08340825
     atom    7 type  2   force =     0.43258509   -3.76163821  -14.07106730
     atom    8 type  3   force =    52.27144775   -0.03195557    0.14735817
     atom    9 type  3   force =   -50.52035984    0.40721089    0.90976186
     atom   10 type  3   force =    36.25964864    2.05293128   23.24158316
     atom   11 type  3   force =    35.34358349    0.82278490  -22.27262668
     atom   12 type  3   force =    35.44093541   -0.75153413   22.27933331
     atom   13 type  3   force =    36.23992356   -2.18853581  -23.27062081
     atom   14 type  3   force =   -36.17729698    2.07550686   23.29624115
     atom   15 type  3   force =   -35.21933775    0.89490377  -22.33987295
     atom   16 type  3   force =   -35.34041867   -0.79331080   22.35465203
     atom   17 type  3   force =   -36.05240446   -2.33550355  -23.40324197
     atom   18 type  4   force =     0.19629503   -4.42838665   14.06213555
     atom   19 type  4   force =    35.69417643   -0.95653800   25.37442611
     atom   20 type  4   force =    35.68804080    0.99654619  -25.42552307
     atom   21 type  4   force =   -35.57992122   -0.94354554   25.48808335
     atom   22 type  4   force =   -35.20760033    1.08564587  -25.85858705
     atom   23 type  5   force =    -4.13375539   -0.23454792   -0.64844304
     The core correction contribution to forces
     atom    1 type  1   force =     0.00163606    0.00028132   -0.00011759
     atom    2 type  1   force =    -0.01227982   -0.00178962   -0.00014654
     atom    3 type  1   force =    -0.01274434    0.00272618   -0.00194067
     atom    4 type  1   force =     0.01307904   -0.00259916    0.00318074
     atom    5 type  1   force =     0.01326144    0.00386926    0.00033832
     atom    6 type  2   force =    -0.00040589    0.00245723    0.00257544
     atom    7 type  2   force =     0.00090438   -0.00287407   -0.00205898
     atom    8 type  3   force =    -0.03314133    0.00074839    0.00014060
     atom    9 type  3   force =     0.01328224   -0.00477440   -0.00755248
     atom   10 type  3   force =    -0.02162187    0.00970152   -0.01615866
     atom   11 type  3   force =    -0.02418410    0.00901964    0.01809935
     atom   12 type  3   force =    -0.02194824   -0.01002789   -0.01541850
     atom   13 type  3   force =    -0.02318447   -0.00905091    0.01672511
     atom   14 type  3   force =     0.02236053    0.01010348   -0.01633432
     atom   15 type  3   force =     0.02428671    0.01027843    0.01392215
     atom   16 type  3   force =     0.02276712   -0.01134945   -0.01575118
     atom   17 type  3   force =     0.02383552   -0.00946649    0.01399311
     atom   18 type  4   force =     0.00017141   -0.00286146    0.00290740
     atom   19 type  4   force =    -0.00982124    0.00005129   -0.00957788
     atom   20 type  4   force =    -0.00951794    0.00059018    0.00887871
     atom   21 type  4   force =     0.00948463   -0.00008494   -0.00984079
     atom   22 type  4   force =     0.01014399    0.00028584    0.00984947
     atom   23 type  5   force =     0.00000000    0.00000000    0.00000000
     The Hubbard contrib.    to forces
     atom    1 type  1   force =     0.00000000    0.00000000    0.00000000
     atom    2 type  1   force =     0.00000000    0.00000000    0.00000000
     atom    3 type  1   force =     0.00000000    0.00000000    0.00000000
     atom    4 type  1   force =     0.00000000    0.00000000    0.00000000
     atom    5 type  1   force =     0.00000000    0.00000000    0.00000000
     atom    6 type  2   force =     0.00000000    0.00000000    0.00000000
     atom    7 type  2   force =     0.00000000    0.00000000    0.00000000
     atom    8 type  3   force =     0.00000000    0.00000000    0.00000000
     atom    9 type  3   force =     0.00000000    0.00000000    0.00000000
     atom   10 type  3   force =     0.00000000    0.00000000    0.00000000
     atom   11 type  3   force =     0.00000000    0.00000000    0.00000000
     atom   12 type  3   force =     0.00000000    0.00000000    0.00000000
     atom   13 type  3   force =     0.00000000    0.00000000    0.00000000
     atom   14 type  3   force =     0.00000000    0.00000000    0.00000000
     atom   15 type  3   force =     0.00000000    0.00000000    0.00000000
     atom   16 type  3   force =     0.00000000    0.00000000    0.00000000
     atom   17 type  3   force =     0.00000000    0.00000000    0.00000000
     atom   18 type  4   force =     0.00000000    0.00000000    0.00000000
     atom   19 type  4   force =     0.00000000    0.00000000    0.00000000
     atom   20 type  4   force =     0.00000000    0.00000000    0.00000000
     atom   21 type  4   force =     0.00000000    0.00000000    0.00000000
     atom   22 type  4   force =     0.00000000    0.00000000    0.00000000
     atom   23 type  5   force =     0.00000000    0.00000000    0.00000000
     The SCF correction term to forces
     atom    1 type  1   force =    -0.00128645    0.00324793    0.00378074
     atom    2 type  1   force =    -0.01146547    0.00457510   -0.00067088
     atom    3 type  1   force =    -0.01081277   -0.00593179    0.00243583
     atom    4 type  1   force =     0.01123183    0.00339230    0.00117977
     atom    5 type  1   force =     0.01117300   -0.00495731    0.00364719
     atom    6 type  2   force =    -0.00156242    0.00835401   -0.00705825
     atom    7 type  2   force =    -0.00177754    0.00177295    0.00987814
     atom    8 type  3   force =    -0.00622967    0.00065333   -0.00026719
     atom    9 type  3   force =     0.00458710    0.00121283   -0.00162160
     atom   10 type  3   force =    -0.00202755    0.00469592   -0.00380392
     atom   11 type  3   force =    -0.00483953   -0.00115991    0.00496660
     atom   12 type  3   force =    -0.00402178   -0.00565762   -0.00478456
     atom   13 type  3   force =    -0.00102944   -0.00621120    0.00373191
     atom   14 type  3   force =     0.00181921    0.00670356   -0.00375281
     atom   15 type  3   force =     0.00760717   -0.00264291    0.00350057
     atom   16 type  3   force =     0.00366054   -0.00799263   -0.00472251
     atom   17 type  3   force =     0.00303046   -0.00393315    0.00313805
     atom   18 type  4   force =    -0.00158861   -0.00605022   -0.00544386
     atom   19 type  4   force =     0.00514434    0.00081612   -0.00574345
     atom   20 type  4   force =     0.00135084    0.00516273    0.00501257
     atom   21 type  4   force =    -0.00566756    0.00123798   -0.00818068
     atom   22 type  4   force =    -0.00128898    0.00525078    0.00876408
     atom   23 type  5   force =     0.00077667    0.00030914    0.00050171

     Total force =     0.512577     Total SCF correction =     0.042518


     Computing stress (Cartesian axis) and pressure


     negative rho (up, down):  9.089E-01 9.089E-01
          total   stress  (Ry/bohr**3)                   (kbar)     P=       82.74
   0.00067322  -0.00000305   0.00000451           99.03       -0.45        0.66
  -0.00000305   0.00064829  -0.00000848           -0.45       95.37       -1.25
   0.00000451  -0.00000848   0.00036593            0.66       -1.25       53.83


     Molecular Dynamics Calculation

     Starting temperature  =   300.00 K

     temperature is set once at start

     mass Hf               =   178.49
     mass Nb               =    92.91
     mass Ta               =   180.95
     mass Zr               =    91.22
     mass H                =     2.01
     Time step             =     4.20 a.u.,  0.2032 femto-seconds

     Entering Dynamics:    iteration =     1
                           time      =   0.0002 pico-seconds


ATOMIC_POSITIONS (angstrom)
Hf            2.6701086560        2.8271537302        6.6040189105
Hf            1.2530962855        1.2863151190        5.0585206169
Hf            1.2555925001        7.3898361401        5.0881222781
Hf            4.0871212805        1.2863150463        5.0585204917
Hf            4.0846253180        7.3898360908        5.0881222995
Nb            2.6701081826        2.7969609352        3.5156379006
Nb            2.6701077635        5.8764107319        6.6350518707
Ta            1.2094785952        4.3409593945        5.0711802299
Ta            4.1307403208        4.3409594743        5.0711805542
Ta            1.3073609596        1.3141531007        2.0588318723
Ta            1.3028965770        1.3084215462        8.0946352504
Ta            1.3041179338        7.3758586060        2.0462900685
Ta            1.3078191292        7.3651152688        8.0860583940
Ta            4.0328567744        1.3141531703        2.0588319225
Ta            4.0373209701        1.3084214936        8.0946351675
Ta            4.0360997434        7.3758585491        2.0462901703
Ta            4.0323984026        7.3651154418        8.0860583323
Zr            2.6701085594        5.8663188816        3.5274378090
Zr            1.2439361623        4.3221091318        2.0000479353
Zr            1.2404867157        4.3541549942        8.1498163117
Zr            4.0962813488        4.3221089915        2.0000478924
Zr            4.0997321202        4.3541550602        8.1498157983
H             5.6818700394        4.7878163005        5.8478382720


     kinetic energy (Ekin) =           8.09816517 Ry
     temperature           =       38745.42891373 K 
     Ekin + Etot (const)   =       -2934.96895965 Ry
     Ions kinetic stress =          143.02 (kbar)
                                    321.78          92.89         160.91
                                     92.89          26.82          46.45
                                    160.91          46.45          80.47



     Linear momentum :    0.0000000000   -0.0000000000    0.0000000000

     File outdir/pwscf.msd.dat deleted, as requested

     Writing config-only to output data dir outdir/pwscf.save/
     NEW-OLD atomic charge density approx. for the potential

     Check: negative core charge=   -0.000002

     negative rho (up, down):  9.089E-01 9.089E-01
     Generating pointlists ...
     new r_m :   0.0791 (alat units)  1.3964 (a.u.) for type    3
     new r_m :   0.0791 (alat units)  1.3964 (a.u.) for type    5

     total cpu time spent up to now is      378.8 secs

     Self-consistent Calculation

     iteration #  1     ecut=   120.00 Ry     beta= 0.70
     Davidson diagonalization with overlap
     ethr =  1.00E-06,  avg # of iterations =  8.0

     negative rho (up, down):  9.088E-01 9.088E-01

     total cpu time spent up to now is      411.1 secs

     total energy              =   -2943.06344406 Ry
     estimated scf accuracy    <       0.02343307 Ry

     total magnetization       =    -0.02 Bohr mag/cell
     absolute magnetization    =     0.03 Bohr mag/cell

     iteration #  2     ecut=   120.00 Ry     beta= 0.70
     Davidson diagonalization with overlap
     ethr =  8.46E-06,  avg # of iterations =  2.0

     negative rho (up, down):  9.089E-01 9.089E-01

     total cpu time spent up to now is      437.0 secs

     total energy              =   -2943.06522285 Ry
     estimated scf accuracy    <       0.00661028 Ry

     total magnetization       =    -0.02 Bohr mag/cell
     absolute magnetization    =     0.03 Bohr mag/cell

     iteration #  3     ecut=   120.00 Ry     beta= 0.70
     Davidson diagonalization with overlap
     ethr =  2.39E-06,  avg # of iterations =  2.0

     negative rho (up, down):  9.089E-01 9.089E-01

     total cpu time spent up to now is      473.4 secs

     total energy              =   -2943.06557990 Ry
     estimated scf accuracy    <       0.00103282 Ry

     total magnetization       =    -0.02 Bohr mag/cell
     absolute magnetization    =     0.02 Bohr mag/cell

     iteration #  4     ecut=   120.00 Ry     beta= 0.70
     Davidson diagonalization with overlap
     ethr =  3.73E-07,  avg # of iterations =  2.0

     negative rho (up, down):  9.089E-01 9.089E-01

     Magnetic moment per site  (integrated on atomic sphere of radius R)
     atom   1 (R=0.112)  charge=  9.4636  magn=  0.0000
     atom   2 (R=0.112)  charge=  9.0583  magn=  0.0000
     atom   3 (R=0.112)  charge=  9.0579  magn=  0.0002
     atom   4 (R=0.112)  charge=  9.0575  magn= -0.0001
     atom   5 (R=0.112)  charge=  9.0562  magn= -0.0000
     atom   6 (R=0.110)  charge= 10.3497  magn=  0.0002
     atom   7 (R=0.110)  charge= 10.3486  magn= -0.0000
     atom   8 (R=0.079)  charge=  7.1173  magn= -0.0000
     atom   9 (R=0.079)  charge=  7.1209  magn=  0.0000
     atom  10 (R=0.079)  charge=  7.0995  magn= -0.0002
     atom  11 (R=0.079)  charge=  7.0955  magn= -0.0001
     atom  12 (R=0.079)  charge=  7.1003  magn= -0.0002
     atom  13 (R=0.079)  charge=  7.0979  magn= -0.0000
     atom  14 (R=0.079)  charge=  7.0991  magn= -0.0002
     atom  15 (R=0.079)  charge=  7.0966  magn= -0.0002
     atom  16 (R=0.079)  charge=  7.1002  magn= -0.0005
     atom  17 (R=0.079)  charge=  7.1003  magn=  0.0000
     atom  18 (R=0.111)  charge=  9.4553  magn=  0.0001
     atom  19 (R=0.111)  charge=  9.0005  magn= -0.0011
     atom  20 (R=0.111)  charge=  8.9962  magn=  0.0001
     atom  21 (R=0.111)  charge=  8.9988  magn= -0.0013
     atom  22 (R=0.111)  charge=  8.9898  magn= -0.0001
     atom  23 (R=0.079)  charge=  0.9300  magn= -0.0000

     total cpu time spent up to now is      505.8 secs

     End of self-consistent calculation

 ------ SPIN UP ------------


          k = 0.0000 0.0000 0.0000 ( 61588 PWs)   bands (ev):

   -60.7737 -60.7640 -60.7285 -60.7175 -60.6964 -60.6825 -60.6507 -60.6400
   -60.4847 -60.2886 -54.3902 -54.3412 -54.2641 -54.2162 -52.6859 -46.2517
   -46.2456 -41.6532 -41.6275 -41.5453 -41.5270 -39.7919 -27.7735 -27.7661
   -27.6892 -27.6780 -27.5851 -27.5786 -27.4573 -27.4499 -27.3444 -27.3241
   -27.2740 -27.2611 -27.2467 -27.2273 -27.2154 -27.1608 -27.1532 -27.1186
   -27.0571 -26.9988 -26.9527 -26.9479 -26.9368 -26.9291 -26.9172 -26.8758
   -26.8740 -26.8503 -26.8432 -26.8241 -24.1721 -23.9618 -23.6577 -23.5744
   -23.3172 -23.1820 -23.1617 -23.0578 -22.9315 -22.8662 -22.8436 -22.6267
   -22.4949 -22.4447 -22.3892 -22.3451 -22.2748 -22.2267 -21.7499 -21.6836
   -21.6175 -20.1939 -19.9546 -19.8287 -19.8219 -19.6295 -19.6025 -19.5933
   -19.5741 -19.5716 -19.5314 -19.3775 -19.3677 -18.1392 -17.9333 -17.8107
     1.4489   2.8212   2.9381   3.1468   3.3083   3.4653   3.5030   3.6933
     3.7505   3.8444   3.9256   4.0530   4.2678   4.5120   4.6481   4.6885
     4.7496   4.8720   5.0562   5.0795   5.1459   5.2716   5.2974   5.3112
     5.4064   5.5652   5.5906   5.7316   5.7443   5.7609   5.7759   5.7948
     5.9394   6.1058   6.1720   6.2340   6.2760   6.3235   6.3710   6.3823
     6.4607   6.6437   6.6722   6.6983   6.8960   6.9414   7.0131   7.0510
     7.1031   7.1524   7.2716   7.3115   7.3265   7.4337   7.5522   7.5811
     7.6260   7.6923   7.9000   7.9484   8.0922   8.0959   8.1254   8.1972
     8.2581   8.3444   8.3598   8.3766   8.4996   8.5406   8.6321   8.7290
     8.7951   8.9039   8.9557   9.0693   9.1857   9.2489   9.2927

 ------ SPIN DOWN ----------


          k = 0.0000 0.0000 0.0000 ( 61588 PWs)   bands (ev):

   -60.7741 -60.7640 -60.7289 -60.7175 -60.6969 -60.6826 -60.6511 -60.6401
   -60.4847 -60.2886 -54.3901 -54.3412 -54.2640 -54.2161 -52.6859 -46.2517
   -46.2454 -41.6532 -41.6286 -41.5453 -41.5281 -39.7918 -27.7740 -27.7663
   -27.6897 -27.6781 -27.5856 -27.5788 -27.4577 -27.4503 -27.3446 -27.3244
   -27.2741 -27.2616 -27.2468 -27.2277 -27.2156 -27.1612 -27.1534 -27.1187
   -27.0572 -26.9989 -26.9532 -26.9480 -26.9371 -26.9294 -26.9174 -26.8762
   -26.8744 -26.8509 -26.8433 -26.8241 -24.1720 -23.9617 -23.6576 -23.5743
   -23.3171 -23.1820 -23.1617 -23.0577 -22.9314 -22.8661 -22.8435 -22.6266
   -22.4948 -22.4446 -22.3892 -22.3451 -22.2747 -22.2266 -21.7499 -21.6836
   -21.6175 -20.1951 -19.9543 -19.8301 -19.8230 -19.6296 -19.6028 -19.5942
   -19.5747 -19.5722 -19.5314 -19.3775 -19.3693 -18.1391 -17.9332 -17.8107
     1.4487   2.8211   2.9376   3.1467   3.3083   3.4649   3.5027   3.6931
     3.7502   3.8442   3.9251   4.0525   4.2676   4.5118   4.6479   4.6883
     4.7492   4.8716   5.0557   5.0792   5.1455   5.2712   5.2971   5.3110
     5.4058   5.5650   5.5903   5.7312   5.7436   5.7607   5.7758   5.7943
     5.9393   6.1052   6.1716   6.2336   6.2758   6.3232   6.3707   6.3818
     6.4602   6.6434   6.6718   6.6979   6.8954   6.9408   7.0118   7.0503
     7.1014   7.1514   7.2704   7.3100   7.3261   7.4322   7.5519   7.5794
     7.6251   7.6917   7.8997   7.9481   8.0913   8.0954   8.1249   8.1962
     8.2570   8.3441   8.3589   8.3760   8.4991   8.5399   8.6316   8.7284
     8.7946   8.9027   8.9550   9.0688   9.1852   9.2485   9.2801

     the Fermi energy is     7.2436 ev

!    total energy              =   -2943.06552018 Ry
     estimated scf accuracy    <       0.00027927 Ry
     smearing contrib. (-TS)   =      -0.10059953 Ry
     internal energy E=F+TS    =   -2942.96492065 Ry

     total magnetization       =    -0.02 Bohr mag/cell
     absolute magnetization    =     0.02 Bohr mag/cell

     convergence has been achieved in   4 iterations

     negative rho (up, down):  9.089E-01 9.089E-01

     Forces acting on atoms (cartesian axes, Ry/au):

     atom    1 type  1   force =    -0.00544420   -0.02191592    0.00912194
     atom    2 type  1   force =    -0.11881960   -0.01528685   -0.00368895
     atom    3 type  1   force =    -0.11855104    0.01210192    0.00122536
     atom    4 type  1   force =     0.11595340   -0.01749185   -0.00756564
     atom    5 type  1   force =     0.12385726    0.01059082    0.00249238
     atom    6 type  2   force =    -0.01247954   -0.02092886    0.00323238
     atom    7 type  2   force =    -0.01898000    0.01168409   -0.00788823
     atom    8 type  3   force =    -0.12186821    0.00492904   -0.00054765
     atom    9 type  3   force =     0.12142282   -0.00759631   -0.01806305
     atom   10 type  3   force =    -0.02056313   -0.03035413   -0.05829721
     atom   11 type  3   force =    -0.02363967   -0.03501448    0.05853340
     atom   12 type  3   force =    -0.02017701    0.03446756   -0.05512862
     atom   13 type  3   force =    -0.01971617    0.02857125    0.06326867
     atom   14 type  3   force =     0.02455697   -0.02753454   -0.05696629
     atom   15 type  3   force =     0.02121360   -0.03778982    0.05539161
     atom   16 type  3   force =     0.02180648    0.03205597   -0.05143930
     atom   17 type  3   force =     0.01627257    0.03575553    0.06094016
     atom   18 type  4   force =    -0.00465589    0.02836619   -0.01238471
     atom   19 type  4   force =    -0.12808809   -0.00359820   -0.11589702
     atom   20 type  4   force =    -0.13361392    0.00617929    0.11401293
     atom   21 type  4   force =     0.12550569   -0.00610066   -0.11774406
     atom   22 type  4   force =     0.14985307    0.00731692    0.10758496
     atom   23 type  5   force =     0.02615463    0.01159304    0.02980694
     The non-local contrib.  to forces
     atom    1 type  1   force =    -0.00529093   -0.01310925    0.03450524
     atom    2 type  1   force =    -0.24670407   -0.16253751    0.01436443
     atom    3 type  1   force =    -0.24151433    0.15680372   -0.02622713
     atom    4 type  1   force =     0.25339394   -0.16289735    0.02457679
     atom    5 type  1   force =     0.26072991    0.14640965   -0.01417244
     atom    6 type  2   force =     0.00800190   -0.05740878   -0.06620643
     atom    7 type  2   force =    -0.02265179    0.05783804    0.05762847
     atom    8 type  3   force =    -0.26647834    0.00239056   -0.00140420
     atom    9 type  3   force =     0.05450273   -0.04886034   -0.08161966
     atom   10 type  3   force =    -0.21136538    0.00416121   -0.20773147
     atom   11 type  3   force =    -0.21488250    0.00842554    0.19692495
     atom   12 type  3   force =    -0.20403371   -0.02175699   -0.17791912
     atom   13 type  3   force =    -0.20759804   -0.00800712    0.20646490
     atom   14 type  3   force =     0.20443408    0.00494727   -0.21993174
     atom   15 type  3   force =     0.22074632    0.00302204    0.18800068
     atom   16 type  3   force =     0.19641417   -0.02122195   -0.18694975
     atom   17 type  3   force =     0.22897800   -0.01161940    0.19115798
     atom   18 type  4   force =    -0.00480880    0.05677703   -0.06422048
     atom   19 type  4   force =     0.06339801    0.00979348    0.07262335
     atom   20 type  4   force =     0.05403966   -0.01614343   -0.05948408
     atom   21 type  4   force =    -0.05594790    0.01222477    0.07487921
     atom   22 type  4   force =    -0.05923348   -0.00855278   -0.07800476
     atom   23 type  5   force =    -0.05296162   -0.01487757   -0.02211789
     The ionic contribution  to forces
     atom    1 type  1   force =    -0.30052310   -4.77008780   14.04984792
     atom    2 type  1   force =   -39.67878284   -6.16484376    0.73878054
     atom    3 type  1   force =   -39.66075812    6.19074588   -0.76280745
     atom    4 type  1   force =    39.48829320   -6.30645650    0.68658412
     atom    5 type  1   force =    39.31726626    6.53476833   -0.87381585
     atom    6 type  2   force =    -0.18109944   -3.64664963  -14.02894851
     atom    7 type  2   force =    -0.47562626    3.74503811   14.02860273
     atom    8 type  3   force =   -52.12841298    0.03476407   -0.14338721
     atom    9 type  3   force =    50.16883496   -0.47457462   -1.03281561
     atom   10 type  3   force =   -36.05159118   -2.10583998  -23.07894962
     atom   11 type  3   force =   -35.13416198   -0.87511450   22.11191017
     atom   12 type  3   force =   -35.23827337    0.82531624  -22.14127153
     atom   13 type  3   force =   -36.04131891    2.23826932   23.10642286
     atom   14 type  3   force =    35.97085716   -2.13316817  -23.12573683
     atom   15 type  3   force =    34.99085824   -0.95381512   22.20034130
     atom   16 type  3   force =    35.13817984    0.87408760  -22.21191338
     atom   17 type  3   force =    35.82491446    2.40118173   23.26750404
     atom   18 type  4   force =    -0.22636581    4.42403284  -14.03027009
     atom   19 type  4   force =   -35.89392956    0.94318762  -25.55509608
     atom   20 type  4   force =   -35.89518138   -0.97612788   25.58691718
     atom   21 type  4   force =    35.75595704    0.92317526  -25.69447964
     atom   22 type  4   force =    35.43565379   -1.06821143   26.07905084
     atom   23 type  5   force =     4.81520998    0.34032237    0.82353011
     The local contribution  to forces
     atom    1 type  1   force =     0.29952655    4.76629582  -14.08321954
     atom    2 type  1   force =    39.81393693    6.31439505   -0.76509468
     atom    3 type  1   force =    39.79124035   -6.33925327    0.78393006
     atom    4 type  1   force =   -39.63507334    6.45655314   -0.72946302
     atom    5 type  1   force =   -39.46516161   -6.67566234    0.88167117
     atom    6 type  2   force =     0.16201777    3.68614399   14.08417540
     atom    7 type  2   force =     0.47771620   -3.79094890  -14.09630738
     atom    8 type  3   force =    52.30333314   -0.03209954    0.13342278
     atom    9 type  3   force =   -50.10215965    0.52483130    1.09888481
     atom   10 type  3   force =    36.25914109    2.06460436   23.24309711
     atom   11 type  3   force =    35.34094981    0.82506981  -22.26455422
     atom   12 type  3   force =    35.44049288   -0.76617875   22.27621415
     atom   13 type  3   force =    36.24512161   -2.20173096  -23.25958784
     atom   14 type  3   force =   -36.16885777    2.09379605   23.30272366
     atom   15 type  3   force =   -35.20508286    0.90377240  -22.34300141
     atom   16 type  3   force =   -35.33261690   -0.81667393   22.35949081
     atom   17 type  3   force =   -36.05528419   -2.35012663  -23.40436176
     atom   18 type  4   force =     0.22709731   -4.45300409   14.06581987
     atom   19 type  4   force =    35.71434990   -0.95318633   25.37194884
     atom   20 type  4   force =    35.71466366    1.00228962  -25.41405200
     atom   21 type  4   force =   -35.58653881   -0.93814943   25.50838936
     atom   22 type  4   force =   -35.24094029    1.08631628  -25.89285611
     atom   23 type  5   force =    -4.73860578   -0.31447887   -0.77438121
     The core correction contribution to forces
     atom    1 type  1   force =     0.00172502    0.00014888   -0.00027058
     atom    2 type  1   force =    -0.01224021   -0.00174927   -0.00004435
     atom    3 type  1   force =    -0.01268442    0.00274240   -0.00183615
     atom    4 type  1   force =     0.01295137   -0.00261709    0.00310284
     atom    5 type  1   force =     0.01327779    0.00360056    0.00020623
     atom    6 type  2   force =    -0.00042123    0.00263493    0.00274909
     atom    7 type  2   force =     0.00083089   -0.00281837   -0.00208215
     atom    8 type  3   force =    -0.03242933    0.00070619    0.00008503
     atom    9 type  3   force =     0.00943603   -0.00577385   -0.01027161
     atom   10 type  3   force =    -0.02131993    0.00966199   -0.01603405
     atom   11 type  3   force =    -0.02431417    0.00912845    0.01811540
     atom   12 type  3   force =    -0.02182751   -0.01009746   -0.01528552
     atom   13 type  3   force =    -0.02308807   -0.00911182    0.01668911
     atom   14 type  3   force =     0.02222977    0.00994136   -0.01630805
     atom   15 type  3   force =     0.02416306    0.01028779    0.01399987
     atom   16 type  3   force =     0.02259900   -0.01128383   -0.01563181
     atom   17 type  3   force =     0.02343502   -0.00934206    0.01433924
     atom   18 type  4   force =     0.00022743   -0.00288271    0.00302392
     atom   19 type  4   force =    -0.00987040    0.00003668   -0.00960678
     atom   20 type  4   force =    -0.00952016    0.00054691    0.00889400
     atom   21 type  4   force =     0.00948283   -0.00008183   -0.00986694
     atom   22 type  4   force =     0.01021343    0.00030074    0.00955458
     atom   23 type  5   force =     0.00000000    0.00000000    0.00000000
     The Hubbard contrib.    to forces
     atom    1 type  1   force =     0.00000000    0.00000000    0.00000000
     atom    2 type  1   force =     0.00000000    0.00000000    0.00000000
     atom    3 type  1   force =     0.00000000    0.00000000    0.00000000
     atom    4 type  1   force =     0.00000000    0.00000000    0.00000000
     atom    5 type  1   force =     0.00000000    0.00000000    0.00000000
     atom    6 type  2   force =     0.00000000    0.00000000    0.00000000
     atom    7 type  2   force =     0.00000000    0.00000000    0.00000000
     atom    8 type  3   force =     0.00000000    0.00000000    0.00000000
     atom    9 type  3   force =     0.00000000    0.00000000    0.00000000
     atom   10 type  3   force =     0.00000000    0.00000000    0.00000000
     atom   11 type  3   force =     0.00000000    0.00000000    0.00000000
     atom   12 type  3   force =     0.00000000    0.00000000    0.00000000
     atom   13 type  3   force =     0.00000000    0.00000000    0.00000000
     atom   14 type  3   force =     0.00000000    0.00000000    0.00000000
     atom   15 type  3   force =     0.00000000    0.00000000    0.00000000
     atom   16 type  3   force =     0.00000000    0.00000000    0.00000000
     atom   17 type  3   force =     0.00000000    0.00000000    0.00000000
     atom   18 type  4   force =     0.00000000    0.00000000    0.00000000
     atom   19 type  4   force =     0.00000000    0.00000000    0.00000000
     atom   20 type  4   force =     0.00000000    0.00000000    0.00000000
     atom   21 type  4   force =     0.00000000    0.00000000    0.00000000
     atom   22 type  4   force =     0.00000000    0.00000000    0.00000000
     atom   23 type  5   force =     0.00000000    0.00000000    0.00000000
     The SCF correction term to forces
     atom    1 type  1   force =    -0.00091131   -0.00514435    0.00760752
     atom    2 type  1   force =     0.00494101   -0.00053214    0.00765373
     atom    3 type  1   force =     0.00513591    0.00108241    0.00751466
     atom    4 type  1   force =    -0.00364135   -0.00205482    0.00698225
     atom    5 type  1   force =    -0.00228466    0.00149384    0.00795189
     atom    6 type  2   force =    -0.00100812   -0.00563016    0.01081146
     atom    7 type  2   force =     0.00072140    0.00259444    0.00361873
     atom    8 type  3   force =     0.00208972   -0.00081302    0.01008458
     atom    9 type  3   force =    -0.00922081   -0.00319958    0.00710765
     atom   10 type  3   force =     0.00454269   -0.00292249    0.00066945
     atom   11 type  3   force =     0.00873958   -0.00250455   -0.00451427
     atom   12 type  3   force =     0.00343514    0.00720375    0.00248203
     atom   13 type  3   force =     0.00713767    0.00917105   -0.00737174
     atom   14 type  3   force =    -0.00413584   -0.00303183    0.00163530
     atom   15 type  3   force =    -0.00950073   -0.00103770   -0.00460020
     atom   16 type  3   force =    -0.00279922    0.00716731    0.00291346
     atom   17 type  3   force =    -0.00580028    0.00568111   -0.00835072
     atom   18 type  4   force =    -0.00083559    0.00346234    0.01261071
     atom   19 type  4   force =    -0.00206561   -0.00341042    0.00358227
     atom   20 type  4   force =     0.00235473   -0.00436670   -0.00891354
     atom   21 type  4   force =     0.00252296   -0.00325021    0.00268257
     atom   22 type  4   force =     0.00413004   -0.00251666   -0.01081096
     atom   23 type  5   force =     0.00248247    0.00064634    0.00212456

     Total force =     0.505485     Total SCF correction =     0.045040


     Computing stress (Cartesian axis) and pressure


     negative rho (up, down):  9.089E-01 9.089E-01
          total   stress  (Ry/bohr**3)                   (kbar)     P=       85.15
   0.00069753   0.00000470   0.00001465          102.61        0.69        2.15
   0.00000470   0.00066677  -0.00000599            0.69       98.09       -0.88
   0.00001465  -0.00000599   0.00037217            2.15       -0.88       54.75


     Entering Dynamics:    iteration =     2
                           time      =   0.0004 pico-seconds


ATOMIC_POSITIONS (angstrom)
Hf            2.6702170426        2.8271831737        6.6040741258
Hf            1.2531950729        1.2863451795        5.0585747959
Hf            1.2556912993        7.3898686799        5.0881768591
Hf            4.0872399805        1.2863449076        5.0585743232
Hf            4.0847447274        7.3898684946        5.0881769746
Nb            2.6702150326        2.7969889579        3.5156929407
Nb            2.6702134778        5.8764440756        6.6351049286
Ta            1.2095772367        4.3409912163        5.0712345966
Ta            4.1308606562        4.3409906670        5.0712342537
Ta            1.3074680713        1.3141818939        2.0588813348
Ta            1.3030035018        1.3084499746        8.0946946113
Ta            1.3042251035        7.3758930389        2.0463398369
Ta            1.3079263440        7.3651492063        8.0861181482
Ta            4.0329677089        1.3141821928        2.0588815107
Ta            4.0374315412        1.3084497124        8.0946942677
Ta            4.0362104291        7.3758927885        2.0463402494
Ta            4.0325086107        7.3651499589        8.0861178930
Zr            2.6702166391        5.8663551044        3.5274902972
Zr            1.2440233252        4.3221398952        2.0000828589
Zr            1.2405730179        4.3541873977        8.1498898742
Zr            4.0964114930        4.3221393335        2.0000825659
Zr            4.0998665630        4.3541876573        8.1498881258
H             5.5011954154        4.7356916039        5.7576229203


     kinetic energy (Ekin) =           8.09484937 Ry
     temperature           =       38729.56454726 K 
     Ekin + Etot (const)   =       -2934.97067081 Ry
     Ions kinetic stress =          142.96 (kbar)
                                    321.79          92.85         160.75
                                     92.85          26.79          46.39
                                    160.75          46.39          80.31



     Linear momentum :    0.0000000000   -0.0000000000    0.0000000000

     Writing config-only to output data dir outdir/pwscf.save/
     NEW-OLD atomic charge density approx. for the potential

     Check: negative core charge=   -0.000002

     negative rho (up, down):  9.088E-01 9.088E-01
     Generating pointlists ...
     new r_m :   0.0699 (alat units)  1.2337 (a.u.) for type    3
     new r_m :   0.0699 (alat units)  1.2337 (a.u.) for type    5

     total cpu time spent up to now is      531.0 secs

     Self-consistent Calculation

     iteration #  1     ecut=   120.00 Ry     beta= 0.70
     Davidson diagonalization with overlap
     ethr =  1.00E-06,  avg # of iterations = 17.0

     negative rho (up, down):  9.091E-01 9.091E-01

     total cpu time spent up to now is      566.7 secs

     total energy              =   -2943.01979560 Ry
     estimated scf accuracy    <       0.07383770 Ry

     total magnetization       =    -0.02 Bohr mag/cell
     absolute magnetization    =     0.02 Bohr mag/cell

     iteration #  2     ecut=   120.00 Ry     beta= 0.70
     Davidson diagonalization with overlap
     ethr =  2.67E-05,  avg # of iterations =  2.0

     negative rho (up, down):  9.090E-01 9.090E-01

     total cpu time spent up to now is      584.7 secs

     total energy              =   -2943.02516051 Ry
     estimated scf accuracy    <       0.03569727 Ry

     total magnetization       =    -0.02 Bohr mag/cell
     absolute magnetization    =     0.02 Bohr mag/cell

     iteration #  3     ecut=   120.00 Ry     beta= 0.70
     Davidson diagonalization with overlap
     ethr =  1.29E-05,  avg # of iterations =  1.0

     negative rho (up, down):  9.089E-01 9.089E-01

     total cpu time spent up to now is      618.9 secs

     total energy              =   -2943.02705644 Ry
     estimated scf accuracy    <       0.00215153 Ry

     total magnetization       =    -0.01 Bohr mag/cell
     absolute magnetization    =     0.02 Bohr mag/cell

     iteration #  4     ecut=   120.00 Ry     beta= 0.70
     Davidson diagonalization with overlap
     ethr =  7.77E-07,  avg # of iterations =  2.0

     negative rho (up, down):  9.088E-01 9.088E-01

     Magnetic moment per site  (integrated on atomic sphere of radius R)
     atom   1 (R=0.112)  charge=  9.4646  magn= -0.0000
     atom   2 (R=0.112)  charge=  9.0586  magn=  0.0000
     atom   3 (R=0.112)  charge=  9.0585  magn=  0.0000
     atom   4 (R=0.112)  charge=  9.0582  magn= -0.0001
     atom   5 (R=0.112)  charge=  9.0573  magn= -0.0001
     atom   6 (R=0.110)  charge= 10.3513  magn=  0.0000
     atom   7 (R=0.110)  charge= 10.3490  magn= -0.0001
     atom   8 (R=0.070)  charge=  5.8276  magn= -0.0000
     atom   9 (R=0.070)  charge=  5.8456  magn=  0.0000
     atom  10 (R=0.070)  charge=  5.8135  magn= -0.0001
     atom  11 (R=0.070)  charge=  5.8130  magn= -0.0001
     atom  12 (R=0.070)  charge=  5.8121  magn= -0.0001
     atom  13 (R=0.070)  charge=  5.8141  magn= -0.0000
     atom  14 (R=0.070)  charge=  5.8108  magn= -0.0001
     atom  15 (R=0.070)  charge=  5.8098  magn= -0.0001
     atom  16 (R=0.070)  charge=  5.8100  magn= -0.0003
     atom  17 (R=0.070)  charge=  5.8112  magn= -0.0001
     atom  18 (R=0.111)  charge=  9.4561  magn=  0.0000
     atom  19 (R=0.111)  charge=  8.9956  magn= -0.0007
     atom  20 (R=0.111)  charge=  8.9986  magn=  0.0001
     atom  21 (R=0.111)  charge=  8.9946  magn= -0.0009
     atom  22 (R=0.111)  charge=  8.9933  magn= -0.0001
     atom  23 (R=0.070)  charge=  0.8931  magn= -0.0000

     total cpu time spent up to now is      656.7 secs

     End of self-consistent calculation

 ------ SPIN UP ------------


          k = 0.0000 0.0000 0.0000 ( 61588 PWs)   bands (ev):

   -60.7804 -60.7734 -60.7350 -60.7265 -60.7022 -60.6962 -60.6560 -60.6530
   -60.4765 -60.1537 -54.3889 -54.3421 -54.2626 -54.2165 -52.6842 -46.2641
   -46.2531 -41.6580 -41.6222 -41.5474 -41.5211 -39.8060 -27.7801 -27.7751
   -27.6952 -27.6882 -27.5930 -27.5863 -27.4689 -27.4576 -27.3453 -27.3311
   -27.2693 -27.2667 -27.2524 -27.2327 -27.2248 -27.1668 -27.1634 -27.1161
   -27.0496 -26.9596 -26.9542 -26.9533 -26.9423 -26.8954 -26.8842 -26.8736
   -26.8563 -26.8498 -26.8188 -26.8027 -24.1730 -23.9620 -23.6613 -23.5766
   -23.3182 -23.1834 -23.1634 -23.0592 -22.9327 -22.8682 -22.8448 -22.6278
   -22.5058 -22.4542 -22.3942 -22.3493 -22.2807 -22.2317 -21.7496 -21.6825
   -21.6170 -20.1908 -19.9577 -19.8261 -19.8165 -19.6347 -19.6060 -19.5921
   -19.5772 -19.5678 -19.5332 -19.3800 -19.3618 -18.1538 -17.9437 -17.8211
     1.3953   2.5670   2.9307   3.1411   3.2952   3.4622   3.4921   3.6903
     3.7383   3.8480   3.9202   4.0403   4.2603   4.4937   4.6255   4.6836
     4.7392   4.8575   5.0515   5.0690   5.1458   5.2676   5.2898   5.3094
     5.4011   5.5600   5.5945   5.7303   5.7396   5.7549   5.7807   5.7875
     5.9319   6.1027   6.1691   6.2306   6.2700   6.3248   6.3666   6.3731
     6.4546   6.6444   6.6693   6.6964   6.8986   6.9422   7.0070   7.0490
     7.1007   7.1508   7.2633   7.2935   7.3224   7.4300   7.5537   7.5649
     7.6197   7.6835   7.8962   7.9481   8.0871   8.0892   8.1213   8.1888
     8.2552   8.3409   8.3539   8.3736   8.5015   8.5394   8.6291   8.7257
     8.7964   8.9009   8.9624   9.0647   9.1703   9.2547   9.2925

 ------ SPIN DOWN ----------


          k = 0.0000 0.0000 0.0000 ( 61588 PWs)   bands (ev):

   -60.7807 -60.7735 -60.7352 -60.7267 -60.7026 -60.6963 -60.6563 -60.6531
   -60.4765 -60.1538 -54.3888 -54.3421 -54.2625 -54.2165 -52.6842 -46.2641
   -46.2532 -41.6581 -41.6229 -41.5473 -41.5219 -39.8060 -27.7805 -27.7753
   -27.6956 -27.6884 -27.5934 -27.5864 -27.4691 -27.4581 -27.3454 -27.3313
   -27.2695 -27.2670 -27.2525 -27.2329 -27.2251 -27.1670 -27.1637 -27.1162
   -27.0497 -26.9600 -26.9543 -26.9534 -26.9428 -26.8957 -26.8845 -26.8738
   -26.8567 -26.8500 -26.8190 -26.8027 -24.1730 -23.9619 -23.6613 -23.5766
   -23.3182 -23.1835 -23.1635 -23.0592 -22.9327 -22.8682 -22.8447 -22.6278
   -22.5058 -22.4542 -22.3942 -22.3493 -22.2807 -22.2317 -21.7496 -21.6825
   -21.6171 -20.1917 -19.9576 -19.8270 -19.8173 -19.6348 -19.6061 -19.5927
   -19.5773 -19.5686 -19.5332 -19.3800 -19.3629 -18.1538 -17.9437 -17.8212
     1.3950   2.5669   2.9302   3.1409   3.2951   3.4618   3.4918   3.6901
     3.7381   3.8479   3.9198   4.0400   4.2600   4.4935   4.6254   4.6834
     4.7389   4.8571   5.0510   5.0687   5.1455   5.2673   5.2896   5.3092
     5.4006   5.5598   5.5942   5.7300   5.7392   5.7546   5.7804   5.7872
     5.9318   6.1022   6.1688   6.2303   6.2698   6.3245   6.3663   6.3727
     6.4542   6.6441   6.6690   6.6960   6.8980   6.9417   7.0060   7.0484
     7.0993   7.1500   7.2621   7.2923   7.3220   7.4287   7.5534   7.5635
     7.6190   7.6830   7.8959   7.9478   8.0863   8.0887   8.1209   8.1880
     8.2542   8.3406   8.3531   8.3731   8.5011   8.5388   8.6287   8.7253
     8.7961   8.8999   8.9619   9.0643   9.1699   9.2545   9.2765

     the Fermi energy is     7.2381 ev

!    total energy              =   -2943.02697007 Ry
     estimated scf accuracy    <       0.00038910 Ry
     smearing contrib. (-TS)   =      -0.10160107 Ry
     internal energy E=F+TS    =   -2942.92536900 Ry

     total magnetization       =    -0.01 Bohr mag/cell
     absolute magnetization    =     0.02 Bohr mag/cell

     convergence has been achieved in   4 iterations

     negative rho (up, down):  9.088E-01 9.088E-01

     Forces acting on atoms (cartesian axes, Ry/au):

     atom    1 type  1   force =    -0.00572365   -0.02631149    0.01402163
     atom    2 type  1   force =    -0.11514942   -0.01694093    0.00297977
     atom    3 type  1   force =    -0.11463584    0.01465135    0.00661339
     atom    4 type  1   force =     0.11182954   -0.01909139   -0.00201729
     atom    5 type  1   force =     0.11950173    0.01397773    0.00796351
     atom    6 type  2   force =    -0.01256867   -0.02261072    0.00128751
     atom    7 type  2   force =    -0.01786516    0.01192301   -0.00876900
     atom    8 type  3   force =    -0.12521833    0.00553681    0.00407530
     atom    9 type  3   force =     0.01107566   -0.04260867   -0.07904526
     atom   10 type  3   force =    -0.01780185   -0.03092870   -0.05880480
     atom   11 type  3   force =    -0.02052546   -0.03587957    0.05455312
     atom   12 type  3   force =    -0.01823261    0.03652448   -0.05556795
     atom   13 type  3   force =    -0.01778091    0.03215157    0.05868260
     atom   14 type  3   force =     0.02228735   -0.02838913   -0.05781650
     atom   15 type  3   force =     0.01776520   -0.03862472    0.05167662
     atom   16 type  3   force =     0.02027295    0.03446111   -0.05198978
     atom   17 type  3   force =     0.01422812    0.03823474    0.05631453
     atom   18 type  4   force =    -0.00410575    0.03094653   -0.01042380
     atom   19 type  4   force =    -0.12901719   -0.00467304   -0.11557130
     atom   20 type  4   force =    -0.13226889    0.00383523    0.10915948
     atom   21 type  4   force =     0.12681200   -0.00708662   -0.11841275
     atom   22 type  4   force =     0.14383876    0.00573680    0.10545653
     atom   23 type  5   force =     0.14328239    0.04516563    0.08563443
     The non-local contrib.  to forces
     atom    1 type  1   force =    -0.00576107   -0.01406843    0.03751020
     atom    2 type  1   force =    -0.24425808   -0.16386164    0.01861434
     atom    3 type  1   force =    -0.23912960    0.15834406   -0.02278095
     atom    4 type  1   force =     0.25031745   -0.16467871    0.02723627
     atom    5 type  1   force =     0.25658579    0.14939462   -0.01346784
     atom    6 type  2   force =     0.00931888   -0.05902622   -0.06679800
     atom    7 type  2   force =    -0.02071453    0.05730060    0.05815673
     atom    8 type  3   force =    -0.25849846    0.00117282    0.00003960
     atom    9 type  3   force =     0.03334399   -0.05669286   -0.09628480
     atom   10 type  3   force =    -0.21076626    0.00290244   -0.21028958
     atom   11 type  3   force =    -0.21248865    0.00939583    0.19450992
     atom   12 type  3   force =    -0.20352734   -0.02044316   -0.17865118
     atom   13 type  3   force =    -0.20481731   -0.00690330    0.20359490
     atom   14 type  3   force =     0.20352234    0.00429033   -0.22039466
     atom   15 type  3   force =     0.21702508    0.00158682    0.18706294
     atom   16 type  3   force =     0.19614722   -0.01949370   -0.18631958
     atom   17 type  3   force =     0.22227741   -0.00607552    0.19394795
     atom   18 type  4   force =    -0.00537513    0.05853501   -0.06194475
     atom   19 type  4   force =     0.06414701    0.00925191    0.07477936
     atom   20 type  4   force =     0.05525388   -0.01705063   -0.06372481
     atom   21 type  4   force =    -0.05657166    0.01130926    0.07711657
     atom   22 type  4   force =    -0.06030371   -0.01047497   -0.07590559
     atom   23 type  5   force =    -0.07452929   -0.02173179   -0.03438757
     The ionic contribution  to forces
     atom    1 type  1   force =    -0.33833925   -4.79642489   14.07585985
     atom    2 type  1   force =   -39.69654974   -6.16992397    0.74222239
     atom    3 type  1   force =   -39.68396501    6.19335772   -0.75800962
     atom    4 type  1   force =    39.48935904   -6.34001545    0.68907534
     atom    5 type  1   force =    39.33066462    6.57438750   -0.86443869
     atom    6 type  2   force =    -0.21040719   -3.66605079  -14.05069219
     atom    7 type  2   force =    -0.52143132    3.77844898   14.06565088
     atom    8 type  3   force =   -52.18134674    0.03706309   -0.13797630
     atom    9 type  3   force =    49.60866956   -0.63524634   -1.31109131
     atom   10 type  3   force =   -36.06021334   -2.10830794  -23.08354310
     atom   11 type  3   force =   -35.14666507   -0.87722962   22.11428108
     atom   12 type  3   force =   -35.24822786    0.82661355  -22.14571440
     atom   13 type  3   force =   -36.05640569    2.23727223   23.10772795
     atom   14 type  3   force =    35.97198490   -2.14114912  -23.13797751
     atom   15 type  3   force =    34.99885164   -0.96286112   22.21094362
     atom   16 type  3   force =    35.14090131    0.88149278  -22.22511496
     atom   17 type  3   force =    35.84521880    2.39980540   23.27294514
     atom   18 type  4   force =    -0.25919979    4.44336318  -14.05469757
     atom   19 type  4   force =   -35.90756009    0.94407259  -25.56185863
     atom   20 type  4   force =   -35.91985872   -0.97351181   25.59030798
     atom   21 type  4   force =    35.75453671    0.92303494  -25.72867884
     atom   22 type  4   force =    35.46951111   -1.05777826   26.12157932
     atom   23 type  5   force =     5.62047212    0.48958735    1.06919958
     The local contribution  to forces
     atom    1 type  1   force =     0.33441878    4.77615530  -14.08851949
     atom    2 type  1   force =    39.84305092    6.31523497   -0.74316451
     atom    3 type  1   force =    39.82703586   -6.33426088    0.80151342
     atom    4 type  1   force =   -39.64830653    6.48595674   -0.70819542
     atom    5 type  1   force =   -39.49013429   -6.70809634    0.89750275
     atom    6 type  2   force =     0.18814597    3.68754093   14.12820359
     atom    7 type  2   force =     0.52220693   -3.81751900  -14.12452692
     atom    8 type  3   force =    52.34906152   -0.03465602    0.16001391
     atom    9 type  3   force =   -49.63666461    0.65749569    1.36396316
     atom   10 type  3   force =    36.28143159    2.06146243   23.25229776
     atom   11 type  3   force =    35.37032088    0.82012264  -22.27931638
     atom   12 type  3   force =    35.46134415   -0.75142515   22.28788087
     atom   13 type  3   force =    36.27150594   -2.17615346  -23.27726931
     atom   14 type  3   force =   -36.18369747    2.09349763   23.31738736
     atom   15 type  3   force =   -35.23383425    0.90896503  -22.36634593
     atom   16 type  3   force =   -35.34570686   -0.80726850   22.37811612
     atom   17 type  3   force =   -36.08352056   -2.33546401  -23.43292410
     atom   18 type  4   force =     0.25987370   -4.46035483   14.11710253
     atom   19 type  4   force =    35.72448547   -0.96143412   25.38462985
     atom   20 type  4   force =    35.74495687    0.98687138  -25.43468808
     atom   21 type  4   force =   -35.58220121   -0.94431932   25.54717454
     atom   22 type  4   force =   -35.28568450    1.06804930  -25.95627548
     atom   23 type  5   force =    -5.40645377   -0.42341216   -0.94870693
     The core correction contribution to forces
     atom    1 type  1   force =     0.00178006    0.00010289   -0.00054064
     atom    2 type  1   force =    -0.01215294   -0.00192289    0.00005479
     atom    3 type  1   force =    -0.01252055    0.00287871   -0.00181405
     atom    4 type  1   force =     0.01274599   -0.00283104    0.00285183
     atom    5 type  1   force =     0.01326558    0.00350392   -0.00012050
     atom    6 type  2   force =    -0.00040241    0.00285040    0.00291980
     atom    7 type  2   force =     0.00074747   -0.00279573   -0.00209123
     atom    8 type  3   force =    -0.03165254    0.00064202   -0.00000091
     atom    9 type  3   force =     0.00698435   -0.00638321   -0.01296167
     atom   10 type  3   force =    -0.02117440    0.00963537   -0.01609235
     atom   11 type  3   force =    -0.02434276    0.00916503    0.01813160
     atom   12 type  3   force =    -0.02181528   -0.01018811   -0.01537882
     atom   13 type  3   force =    -0.02304383   -0.00927526    0.01661269
     atom   14 type  3   force =     0.02231107    0.00984079   -0.01642774
     atom   15 type  3   force =     0.02399488    0.01013251    0.01418166
     atom   16 type  3   force =     0.02258129   -0.01121335   -0.01569205
     atom   17 type  3   force =     0.02293733   -0.00916012    0.01488849
     atom   18 type  4   force =     0.00029096   -0.00294556    0.00310944
     atom   19 type  4   force =    -0.00990952    0.00001885   -0.00968744
     atom   20 type  4   force =    -0.00956741    0.00053013    0.00901554
     atom   21 type  4   force =     0.00950545   -0.00007722   -0.00995668
     atom   22 type  4   force =     0.01025687    0.00034718    0.00932305
     atom   23 type  5   force =     0.00000000    0.00000000    0.00000000
     The Hubbard contrib.    to forces
     atom    1 type  1   force =     0.00000000    0.00000000    0.00000000
     atom    2 type  1   force =     0.00000000    0.00000000    0.00000000
     atom    3 type  1   force =     0.00000000    0.00000000    0.00000000
     atom    4 type  1   force =     0.00000000    0.00000000    0.00000000
     atom    5 type  1   force =     0.00000000    0.00000000    0.00000000
     atom    6 type  2   force =     0.00000000    0.00000000    0.00000000
     atom    7 type  2   force =     0.00000000    0.00000000    0.00000000
     atom    8 type  3   force =     0.00000000    0.00000000    0.00000000
     atom    9 type  3   force =     0.00000000    0.00000000    0.00000000
     atom   10 type  3   force =     0.00000000    0.00000000    0.00000000
     atom   11 type  3   force =     0.00000000    0.00000000    0.00000000
     atom   12 type  3   force =     0.00000000    0.00000000    0.00000000
     atom   13 type  3   force =     0.00000000    0.00000000    0.00000000
     atom   14 type  3   force =     0.00000000    0.00000000    0.00000000
     atom   15 type  3   force =     0.00000000    0.00000000    0.00000000
     atom   16 type  3   force =     0.00000000    0.00000000    0.00000000
     atom   17 type  3   force =     0.00000000    0.00000000    0.00000000
     atom   18 type  4   force =     0.00000000    0.00000000    0.00000000
     atom   19 type  4   force =     0.00000000    0.00000000    0.00000000
     atom   20 type  4   force =     0.00000000    0.00000000    0.00000000
     atom   21 type  4   force =     0.00000000    0.00000000    0.00000000
     atom   22 type  4   force =     0.00000000    0.00000000    0.00000000
     atom   23 type  5   force =     0.00000000    0.00000000    0.00000000
     The SCF correction term to forces
     atom    1 type  1   force =     0.00202624    0.00796267   -0.00941501
     atom    2 type  1   force =    -0.00539115    0.00357163   -0.01387395
     atom    3 type  1   force =    -0.00620812   -0.00562923   -0.01142212
     atom    4 type  1   force =     0.00756201    0.00251610   -0.01211203
     atom    5 type  1   force =     0.00896844   -0.00517293   -0.01063895
     atom    6 type  2   force =     0.00062450    0.01211399   -0.01147240
     atom    7 type  2   force =     0.00117470   -0.00347282   -0.00508517
     atom    8 type  3   force =    -0.00293370    0.00135393   -0.01712771
     atom    9 type  3   force =    -0.00140921   -0.00174292   -0.02179734
     atom   10 type  3   force =    -0.00723102    0.00341804   -0.00030424
     atom   11 type  3   force =    -0.00750145    0.00270558    0.00782019
     atom   12 type  3   force =    -0.00615786   -0.00799362   -0.00283113
     atom   13 type  3   force =    -0.00517160   -0.01274961    0.00888965
     atom   14 type  3   force =     0.00801493    0.00517028    0.00046935
     atom   15 type  3   force =     0.01157626    0.00359108    0.00670762
     atom   16 type  3   force =     0.00619840   -0.00901709   -0.00210601
     atom   17 type  3   force =     0.00716355   -0.01083197    0.00833033
     atom   18 type  4   force =     0.00015293   -0.00761225   -0.01312017
     atom   19 type  4   force =    -0.00033164    0.00345676   -0.00256116
     atom   20 type  4   force =    -0.00320510    0.00703519    0.00912214
     atom   21 type  4   force =     0.00139113    0.00300475   -0.00319505
     atom   22 type  4   force =     0.00990741    0.00563259    0.00760851
     atom   23 type  5   force =     0.00364174    0.00076125    0.00040264

     Total force =     0.519682     Total SCF correction =     0.062854
     SCF correction compared to forces is large: reduce conv_thr to get better values


     Computing stress (Cartesian axis) and pressure


     negative rho (up, down):  9.088E-01 9.088E-01
          total   stress  (Ry/bohr**3)                   (kbar)     P=       88.35
   0.00075888   0.00001864   0.00003648          111.63        2.74        5.37
   0.00001864   0.00065849   0.00000085            2.74       96.87        0.12
   0.00003648   0.00000085   0.00038430            5.37        0.12       56.53


[...]
     4.7559   4.9514   5.0368   5.0931   5.1823   5.2575   5.2873   5.2995
     5.3975   5.5439   5.5758   5.7014   5.7117   5.7344   5.7546   5.7968
     5.9224   6.0740   6.1345   6.2154   6.2694   6.2924   6.3555   6.3794
     6.4529   6.6040   6.6551   6.6859   6.8530   6.9177   7.0023   7.0382
     7.0846   7.1302   7.2540   7.2962   7.3272   7.4235   7.5172   7.5915
     7.6256   7.7172   7.8862   7.9395   8.0782   8.0884   8.1151   8.1962
     8.2411   8.3300   8.3448   8.3658   8.4598   8.5323   8.6237   8.6966
     8.7654   8.8793   8.9097   9.0542   9.1765   9.1959   9.2578

     the Fermi energy is     7.2298 ev

!    total energy              =   -2943.02572543 Ry
     estimated scf accuracy    <       0.00022149 Ry
     smearing contrib. (-TS)   =      -0.09828966 Ry
     internal energy E=F+TS    =   -2942.92743577 Ry

     total magnetization       =    -0.00 Bohr mag/cell
     absolute magnetization    =     0.00 Bohr mag/cell

     convergence has been achieved in   5 iterations

     negative rho (up, down):  9.088E-01 9.088E-01

     Forces acting on atoms (cartesian axes, Ry/au):

     atom    1 type  1   force =    -0.00821959   -0.02594357    0.01395538
     atom    2 type  1   force =    -0.11429312   -0.01646000   -0.00506454
     atom    3 type  1   force =    -0.11458446    0.01366856    0.00033132
     atom    4 type  1   force =     0.11349456   -0.01930444   -0.00806852
     atom    5 type  1   force =     0.12128343    0.01061381    0.00161883
     atom    6 type  2   force =    -0.01680417   -0.02277755   -0.00159772
     atom    7 type  2   force =    -0.01902206    0.01144667   -0.00770570
     atom    8 type  3   force =    -0.11651291    0.00315917   -0.00395442
     atom    9 type  3   force =     0.18525089    0.01804474    0.03087063
     atom   10 type  3   force =    -0.01961899   -0.03217516   -0.05990908
     atom   11 type  3   force =    -0.01866743   -0.03405173    0.05942554
     atom   12 type  3   force =    -0.01850714    0.03706435   -0.05480337
     atom   13 type  3   force =    -0.01665251    0.02884528    0.06343742
     atom   14 type  3   force =     0.02299952   -0.03065803   -0.05817047
     atom   15 type  3   force =     0.01649342   -0.03663459    0.05722960
     atom   16 type  3   force =     0.01982901    0.03590442   -0.05235856
     atom   17 type  3   force =     0.01620822    0.03505081    0.06097622
     atom   18 type  4   force =    -0.00825192    0.03006924   -0.01737391
     atom   19 type  4   force =    -0.12512006   -0.00433431   -0.11720633
     atom   20 type  4   force =    -0.13160178    0.00625557    0.11505306
     atom   21 type  4   force =     0.12352991   -0.00683142   -0.11888621
     atom   22 type  4   force =     0.16277584    0.00809305    0.10336276
     atom   23 type  5   force =    -0.05400867   -0.00904487   -0.00116194
     The non-local contrib.  to forces
     atom    1 type  1   force =    -0.00110252   -0.01283960    0.02694105
     atom    2 type  1   force =    -0.24688005   -0.16303913    0.01178228
     atom    3 type  1   force =    -0.24138244    0.15834126   -0.02764276
     atom    4 type  1   force =     0.25507397   -0.16314951    0.02423553
     atom    5 type  1   force =     0.26502182    0.14571221   -0.01033160
     atom    6 type  2   force =     0.00696965   -0.05013088   -0.05510018
     atom    7 type  2   force =    -0.02425076    0.06187389    0.05567108
     atom    8 type  3   force =    -0.28433544    0.00381959    0.00397228
     atom    9 type  3   force =     0.20105363   -0.00521644   -0.00307753
     atom   10 type  3   force =    -0.20885778    0.00418348   -0.20450662
     atom   11 type  3   force =    -0.21287498    0.00381402    0.19987975
     atom   12 type  3   force =    -0.20413927   -0.01944826   -0.17691144
     atom   13 type  3   force =    -0.21158586   -0.00332851    0.20899539
     atom   14 type  3   force =     0.20211218    0.00315144   -0.21822598
     atom   15 type  3   force =     0.22153657    0.00514275    0.18843820
     atom   16 type  3   force =     0.19402504   -0.01815118   -0.18778411
     atom   17 type  3   force =     0.24296599   -0.02030635    0.17979929
     atom   18 type  4   force =    -0.00115106    0.05643652   -0.05939277
     atom   19 type  4   force =     0.06090250    0.00808652    0.06874991
     atom   20 type  4   force =     0.05428730   -0.01878787   -0.05737159
     atom   21 type  4   force =    -0.05751047    0.01233211    0.07497022
     atom   22 type  4   force =    -0.06021158   -0.00645262   -0.09093785
     atom   23 type  5   force =    -0.01889987   -0.00444012   -0.00331042
     The ionic contribution  to forces
     atom    1 type  1   force =    -0.14613053   -4.75914302   14.23839091
     atom    2 type  1   force =   -39.66584211   -6.20056783    0.75196117
     atom    3 type  1   force =   -39.59272137    6.20425800   -0.75596825
     atom    4 type  1   force =    39.59890374   -6.29310144    0.74916335
     atom    5 type  1   force =    39.42272082    6.29435379   -0.82422101
     atom    6 type  2   force =    -0.27992079   -3.89206354  -14.26819558
     atom    7 type  2   force =    -0.15952743    3.69769935   14.06260539
     atom    8 type  3   force =   -52.29895089    0.06447471   -0.09219193
     atom    9 type  3   force =    51.05853067    0.05094867   -0.30027759
     atom   10 type  3   force =   -36.03272319   -2.10874980  -23.06385467
     atom   11 type  3   force =   -35.07568206   -0.86049632   22.08474055
     atom   12 type  3   force =   -35.20768061    0.82005516  -22.11735651
     atom   13 type  3   force =   -35.95429847    2.22496544   23.07397691
     atom   14 type  3   force =    35.99053053   -2.13881622  -23.09541206
     atom   15 type  3   force =    34.99423695   -0.89069790   22.11976148
     atom   16 type  3   force =    35.16051772    0.84507641  -22.14174737
     atom   17 type  3   force =    35.78543886    2.33130612   23.15874350
     atom   18 type  4   force =    -0.18174085    4.62823073  -14.11534223
     atom   19 type  4   force =   -35.87471897    0.94824068  -25.53063471
     atom   20 type  4   force =   -35.75984150   -0.97608229   25.52901997
     atom   21 type  4   force =    35.82742762    0.95600539  -25.66023216
     atom   22 type  4   force =    35.42674930   -1.06061469   25.69467033
     atom   23 type  5   force =     2.96472256    0.11471860    0.50240051
     The local contribution  to forces
     atom    1 type  1   force =     0.13918720    4.74509906  -14.24758964
     atom    2 type  1   force =    39.81528184    6.34603201   -0.77858668
     atom    3 type  1   force =    39.73566795   -6.34888630    0.77553956
     atom    4 type  1   force =   -39.75566234    6.43791984   -0.79492315
     atom    5 type  1   force =   -39.57986792   -6.43201287    0.82738312
     atom    6 type  2   force =     0.26009916    3.91235807   14.29646184
     atom    7 type  2   force =     0.16712021   -3.74477121  -14.11943690
     atom    8 type  3   force =    52.50482169   -0.06592184    0.07543791
     atom    9 type  3   force =   -51.09896263   -0.02654095    0.32589009
     atom   10 type  3   force =    36.24869982    2.05716499   23.21572282
     atom   11 type  3   force =    35.29880030    0.81646471  -22.23198982
     atom   12 type  3   force =    35.41882333   -0.74877491   22.24641713
     atom   13 type  3   force =    36.17747292   -2.18586773  -23.22467916
     atom   14 type  3   force =   -36.19496672    2.09285080   23.26369628
     atom   15 type  3   force =   -35.22712919    0.84084449  -22.25456404
     atom   16 type  3   force =   -35.36072880   -0.77626890   22.28406613
     atom   17 type  3   force =   -36.03767861   -2.27026716  -23.28109787
     atom   18 type  4   force =     0.17615151   -4.64745587   14.13340976
     atom   19 type  4   force =    35.70424372   -0.96046798   25.34296053
     atom   20 type  4   force =    35.59075632    0.99982340  -25.35344790
     atom   21 type  4   force =   -35.65922106   -0.97597910   25.46712846
     atom   22 type  4   force =   -35.21663284    1.07584190  -25.50035437
     atom   23 type  5   force =    -2.99888176   -0.11877331   -0.50020869
     The core correction contribution to forces
     atom    1 type  1   force =     0.00150219    0.00075848   -0.00062520
     atom    2 type  1   force =    -0.01242651   -0.00169721   -0.00014636
     atom    3 type  1   force =    -0.01296073    0.00263868   -0.00201013
     atom    4 type  1   force =     0.01345744   -0.00231739    0.00331397
     atom    5 type  1   force =     0.01326628    0.00400863    0.00059083
     atom    6 type  2   force =    -0.00050905    0.00206844    0.00199473
     atom    7 type  2   force =     0.00096477   -0.00310032   -0.00212067
     atom    8 type  3   force =    -0.03446661    0.00073700    0.00057925
     atom    9 type  3   force =     0.02198356   -0.00237999   -0.00194502
     atom   10 type  3   force =    -0.02195657    0.00950227   -0.01637196
     atom   11 type  3   force =    -0.02376844    0.00877706    0.01768960
     atom   12 type  3   force =    -0.02208342   -0.00972098   -0.01555158
     atom   13 type  3   force =    -0.02322377   -0.00879226    0.01659239
     atom   14 type  3   force =     0.02194240    0.01018470   -0.01604423
     atom   15 type  3   force =     0.02418497    0.01032267    0.01386100
     atom   16 type  3   force =     0.02264939   -0.01127515   -0.01568257
     atom   17 type  3   force =     0.02407007   -0.00929063    0.01335698
     atom   18 type  4   force =     0.00000168   -0.00279201    0.00262265
     atom   19 type  4   force =    -0.00973682    0.00009606   -0.00939693
     atom   20 type  4   force =    -0.00948969    0.00066172    0.00884538
     atom   21 type  4   force =     0.00963250   -0.00010792   -0.00988499
     atom   22 type  4   force =     0.01013608    0.00016407    0.01038678
     atom   23 type  5   force =     0.00000000    0.00000000    0.00000000
     The Hubbard contrib.    to forces
     atom    1 type  1   force =     0.00000000    0.00000000    0.00000000
     atom    2 type  1   force =     0.00000000    0.00000000    0.00000000
     atom    3 type  1   force =     0.00000000    0.00000000    0.00000000
     atom    4 type  1   force =     0.00000000    0.00000000    0.00000000
     atom    5 type  1   force =     0.00000000    0.00000000    0.00000000
     atom    6 type  2   force =     0.00000000    0.00000000    0.00000000
     atom    7 type  2   force =     0.00000000    0.00000000    0.00000000
     atom    8 type  3   force =     0.00000000    0.00000000    0.00000000
     atom    9 type  3   force =     0.00000000    0.00000000    0.00000000
     atom   10 type  3   force =     0.00000000    0.00000000    0.00000000
     atom   11 type  3   force =     0.00000000    0.00000000    0.00000000
     atom   12 type  3   force =     0.00000000    0.00000000    0.00000000
     atom   13 type  3   force =     0.00000000    0.00000000    0.00000000
     atom   14 type  3   force =     0.00000000    0.00000000    0.00000000
     atom   15 type  3   force =     0.00000000    0.00000000    0.00000000
     atom   16 type  3   force =     0.00000000    0.00000000    0.00000000
     atom   17 type  3   force =     0.00000000    0.00000000    0.00000000
     atom   18 type  4   force =     0.00000000    0.00000000    0.00000000
     atom   19 type  4   force =     0.00000000    0.00000000    0.00000000
     atom   20 type  4   force =     0.00000000    0.00000000    0.00000000
     atom   21 type  4   force =     0.00000000    0.00000000    0.00000000
     atom   22 type  4   force =     0.00000000    0.00000000    0.00000000
     atom   23 type  5   force =     0.00000000    0.00000000    0.00000000
     The SCF correction term to forces
     atom    1 type  1   force =    -0.00136330    0.00018711   -0.00390388
     atom    2 type  1   force =    -0.00411366    0.00281776    0.00918293
     atom    3 type  1   force =    -0.00287523   -0.00267748    0.00967078
     atom    4 type  1   force =     0.00203438    0.00134966    0.00939966
     atom    5 type  1   force =     0.00045507   -0.00144235    0.00745537
     atom    6 type  2   force =    -0.00313051    0.00499597    0.02249935
     atom    7 type  2   force =    -0.00301622   -0.00024944   -0.00516673
     atom    8 type  3   force =    -0.00326903    0.00005531    0.00750594
     atom    9 type  3   force =     0.00295829    0.00123904    0.00953855
     atom   10 type  3   force =    -0.00446865    0.00572951    0.00835923
     atom   11 type  3   force =    -0.00482963   -0.00260561   -0.01163667
     atom   12 type  3   force =    -0.00311454   -0.00504107    0.00785691
     atom   13 type  3   force =    -0.00470470    0.00187394   -0.01219023
     atom   14 type  3   force =     0.00369376    0.00197685    0.00707340
     atom   15 type  3   force =     0.00397674   -0.00224101   -0.01100917
     atom   16 type  3   force =     0.00367829   -0.00347117    0.00804724
     atom   17 type  3   force =     0.00172454    0.00361442   -0.01056781
     atom   18 type  4   force =    -0.00120057   -0.00434453    0.02058655
     atom   19 type  4   force =    -0.00549786   -0.00028399    0.01037275
     atom   20 type  4   force =    -0.00700157    0.00064621   -0.01273493
     atom   21 type  4   force =     0.00351394    0.00092371    0.00839013
     atom   22 type  4   force =     0.00304751   -0.00084002   -0.01114427
     atom   23 type  5   force =    -0.00063698   -0.00054443   -0.00078546

     Total force =     0.525882     Total SCF correction =     0.055967
     SCF correction compared to forces is large: reduce conv_thr to get better values


     Computing stress (Cartesian axis) and pressure


     negative rho (up, down):  9.088E-01 9.088E-01
          total   stress  (Ry/bohr**3)                   (kbar)     P=       81.66
   0.00063697  -0.00000499   0.00000465           93.70       -0.73        0.68
  -0.00000499   0.00065964  -0.00001130           -0.73       97.04       -1.66
   0.00000465  -0.00001130   0.00036870            0.68       -1.66       54.24


     Entering Dynamics:    iteration =    20
                           time      =   0.0041 pico-seconds


ATOMIC_POSITIONS (angstrom)
Hf            2.6722215711        2.8275293494        6.6051715241
Hf            1.2538090730        1.2867361968        5.0595383402
Hf            1.2563152663        7.3905694281        5.0891953698
Hf            4.0905107774        1.2867453714        5.0595024607
Hf            4.0880750850        7.3905516081        5.0892048876
Nb            2.6722255480        2.7972417036        3.5168554517
Nb            2.6720141904        5.8772037768        6.6358525192
Ta            1.2101573284        4.3416535506        5.0722873256
Ta            4.0881283321        4.3280021656        5.0480088527
Ta            1.3091742404        1.3143849788        2.0592297101
Ta            1.3047101608        1.3086028853        8.0963072480
Ta            1.3059679252        7.3768614044        2.0467058321
Ta            1.3096697434        7.3660601430        8.0877714856
Ta            4.0351691640        1.3144598498        2.0592346999
Ta            4.0396137174        1.3086081698        8.0962901431
Ta            4.0384005446        7.3768209343        2.0467320404
Ta            4.0346443529        7.3660850856        8.0877483088
Zr            2.6721955350        5.8675060351        3.5282947715
Zr            1.2431017000        4.3226209832        1.9984852393
Zr            1.2395662443        4.3548578469        8.1533758594
Zr            4.1012289157        4.3225757833        1.9984352468
Zr            4.1049409562        4.3548763491        8.1533383251
H             6.3874750546        5.0102910814        6.2972975481


     kinetic energy (Ekin) =           8.06370073 Ry
     temperature           =       38580.53480613 K 
     Ekin + Etot (const)   =       -2934.96202470 Ry
     Ions kinetic stress =          142.41 (kbar)
                                    306.53          91.59         168.94
                                     91.59          27.40          50.52
                                    168.94          50.52          93.31



     Linear momentum :    0.0000000000   -0.0000000000   -0.0000000000

     The maximum number of steps has been reached.

     End of molecular dynamics calculation

     diffusion coefficients :
     atom     1   D =       0.00000003 cm^2/s
     atom     2   D =       0.00000001 cm^2/s
     atom     3   D =       0.00000001 cm^2/s
     atom     4   D =       0.00000006 cm^2/s
     atom     5   D =       0.00000006 cm^2/s
     atom     6   D =       0.00000003 cm^2/s
     atom     7   D =       0.00000002 cm^2/s
     atom     8   D =       0.00000001 cm^2/s
     atom     9   D =       0.00001028 cm^2/s
     atom    10   D =       0.00000002 cm^2/s
     atom    11   D =       0.00000003 cm^2/s
     atom    12   D =       0.00000002 cm^2/s
     atom    13   D =       0.00000003 cm^2/s
     atom    14   D =       0.00000003 cm^2/s
     atom    15   D =       0.00000004 cm^2/s
     atom    16   D =       0.00000003 cm^2/s
     atom    17   D =       0.00000004 cm^2/s
     atom    18   D =       0.00000003 cm^2/s
     atom    19   D =       0.00000001 cm^2/s
     atom    20   D =       0.00000006 cm^2/s
     atom    21   D =       0.00000012 cm^2/s
     atom    22   D =       0.00000017 cm^2/s
     atom    23   D =       0.00177735 cm^2/s

     < D > =       0.00007776 cm^2/s

     Writing all to output data dir outdir/pwscf.save/

     init_run     :     10.84s CPU     12.59s WALL (       1 calls)
     electrons    :   2441.24s CPU   3017.03s WALL (      20 calls)
     update_pot   :     18.46s CPU     20.71s WALL (      19 calls)
     forces       :    175.54s CPU    202.30s WALL (      20 calls)
     stress       :    270.91s CPU    294.51s WALL (      20 calls)

     Called by init_run:
     wfcinit      :      8.39s CPU      9.62s WALL (       1 calls)
     potinit      :      0.44s CPU      0.51s WALL (       1 calls)
     hinit0       :      0.93s CPU      1.15s WALL (       1 calls)

     Called by electrons:
     c_bands      :   1942.50s CPU   2412.63s WALL (     100 calls)
     sum_band     :    328.41s CPU    402.58s WALL (     100 calls)
     v_of_rho     :     10.44s CPU     12.67s WALL (     120 calls)
     newd         :    181.29s CPU    215.78s WALL (     120 calls)
     mix_rho      :      0.92s CPU      1.25s WALL (     100 calls)

     Called by c_bands:
     init_us_2    :      3.76s CPU      3.86s WALL (     482 calls)
     init_us_2:cp :      3.75s CPU      3.86s WALL (     482 calls)
     regterg      :   1928.69s CPU   2395.94s WALL (     200 calls)

     Called by *egterg:
     rdiaghg      :     61.74s CPU     79.06s WALL (    1592 calls)
     h_psi        :    998.94s CPU   1148.19s WALL (    1632 calls)
     s_psi        :    338.94s CPU    339.62s WALL (    1632 calls)
     g_psi        :      0.71s CPU      0.78s WALL (    1430 calls)

     Called by h_psi:
     h_psi:calbec :    488.90s CPU    597.30s WALL (    1632 calls)
     vloc_psi     :    100.64s CPU    140.26s WALL (    1632 calls)
     add_vuspsi   :    408.12s CPU    409.29s WALL (    1632 calls)

     General routines
     calbec       :    796.14s CPU    974.53s WALL (    2032 calls)
     fft          :      9.69s CPU     30.84s WALL (    2499 calls)
     ffts         :      0.22s CPU      0.32s WALL (     100 calls)
     fftw         :    109.32s CPU    153.47s WALL (  105272 calls)

     Parallel routines

     PWSCF        :  48m59.47s CPU  59m36.37s WALL


   This run was terminated on:  21:16:59  13Jun2023            

=------------------------------------------------------------------------------=
   JOB DONE.
=------------------------------------------------------------------------------=
