
     Program PWSCF v.7.2 starts on 11Jun2023 at 21:48: 1 

     This program is part of the open-source Quantum ESPRESSO suite
     for quantum simulation of materials; please cite
         "P. Giannozzi et al., J. Phys.:Condens. Matter 21 395502 (2009);
         "P. Giannozzi et al., J. Phys.:Condens. Matter 29 465901 (2017);
         "P. Giannozzi et al., J. Chem. Phys. 152 154105 (2020);
          URL http://www.quantum-espresso.org", 
     in publications or presentations arising from this work. More details at
     http://www.quantum-espresso.org/quote

     Parallel version (MPI), running on    42 processors

     MPI processes distributed on     1 nodes
     185507 MiB available memory on the printing compute node when the environment starts

     Reading input from md_data/md_Hf5Nb2Ta10Zr5H_20steps_100eV_incident45_polar60.in
Warning: card &CELL ignored
Warning: card / ignored

     Current dimensions of program PWSCF are:
     Max number of different atomic species (ntypx) = 10
     Max number of k-points (npk) =  40000
     Max angular momentum in pseudopotentials (lmaxx) =  4

     File outdir/pwscf.md deleted, as requested

     gamma-point specific algorithms are used

     R & G space division:  proc/nbgrp/npool/nimage =      42
     Subspace diagonalization in iterative solution of the eigenvalue problem:
     one sub-group per band group will be used
     custom distributed-memory algorithm (size of sub-group:  2*  2 procs)


     Parallelization info
     --------------------
     sticks:   dense  smooth     PW     G-vecs:    dense   smooth      PW
     Min         239     239     59                21459    21459    2676
     Max         242     242     62                21470    21470    2688
     Sum       10131   10131   2529               901547   901547  112647

     Using Slab Decomposition



     bravais-lattice index     =            0
     lattice parameter (alat)  =      16.1383  a.u.
     unit-cell volume          =    5077.2634 (a.u.)^3
     number of atoms/cell      =           23
     number of atomic types    =            5
     number of electrons       =       277.00
     number of Kohn-Sham states=          167
     kinetic-energy cutoff     =     120.0000  Ry
     charge density cutoff     =     480.0000  Ry
     scf convergence threshold =      1.0E-03
     mixing beta               =       0.7000
     number of iterations used =            8  TF        mixing
     energy convergence thresh.=      0.0E+00
     force convergence thresh. =      0.0E+00
     Exchange-correlation=  SLA  PW   PBX  PBC
                           (   1   4   3   4   0   0   0)
     nstep                     =           20


     celldm(1)=  16.138261  celldm(2)=   0.000000  celldm(3)=   0.000000
     celldm(4)=   0.000000  celldm(5)=   0.000000  celldm(6)=   0.000000

     crystal axes: (cart. coord. in units of alat)
               a(1) = (   1.000000   0.000000   0.000000 )  
               a(2) = (   0.000000   1.016393   0.000000 )  
               a(3) = (   0.000000   0.000000   1.188496 )  

     reciprocal axes: (cart. coord. in units 2 pi/alat)
               b(1) = (  1.000000  0.000000  0.000000 )  
               b(2) = (  0.000000  0.983871  0.000000 )  
               b(3) = (  0.000000  0.000000  0.841400 )  


     PseudoPot. # 1 for Hf read from file:
     q-e/pseudo/hf_pbe_v1.uspp.F.UPF
     MD5 check sum: 8ee9378dfe14276e333edf04c5e4aa26
     Pseudo is Ultrasoft + core correction, Zval = 12.0
     Generated by new atomic code, or converted to UPF format
     Using radial grid of  921 points,  8 beta functions with: 
                l(1) =   0
                l(2) =   0
                l(3) =   0
                l(4) =   1
                l(5) =   1
                l(6) =   2
                l(7) =   2
                l(8) =   3
     Q(r) pseudized with  6 coefficients,  rinner =    1.200   1.200   1.200
                                                       1.200   1.200   1.200
                                                       1.200

     PseudoPot. # 2 for Nb read from file:
     q-e/pseudo/nb_pbe_v1.uspp.F.UPF
     MD5 check sum: 573aab8a2fa660278ed4a62cd769473f
     Pseudo is Ultrasoft + core correction, Zval = 13.0
     Generated by new atomic code, or converted to UPF format
     Using radial grid of  887 points,  6 beta functions with: 
                l(1) =   0
                l(2) =   0
                l(3) =   1
                l(4) =   1
                l(5) =   2
                l(6) =   2
     Q(r) pseudized with  6 coefficients,  rinner =    1.000   1.000   1.000
                                                       1.000   1.000

     PseudoPot. # 3 for Ta read from file:
     q-e/pseudo/ta_pbe_v1.uspp.F.UPF
     MD5 check sum: f8bbe9446314a3b8ea5d9f3e3836c939
     Pseudo is Ultrasoft + core correction, Zval = 13.0
     Generated by new atomic code, or converted to UPF format
     Using radial grid of  921 points,  7 beta functions with: 
                l(1) =   0
                l(2) =   0
                l(3) =   1
                l(4) =   1
                l(5) =   2
                l(6) =   2
                l(7) =   3
     Q(r) pseudized with  6 coefficients,  rinner =    1.300   1.300   1.300
                                                       1.300   1.300   1.300
                                                       1.300

     PseudoPot. # 4 for Zr read from file:
     q-e/pseudo/zr_pbe_v1.uspp.F.UPF
     MD5 check sum: 5db81b1e868ab7776c4564c113de050b
     Pseudo is Ultrasoft + core correction, Zval = 12.0
     Generated by new atomic code, or converted to UPF format
     Using radial grid of  887 points,  6 beta functions with: 
                l(1) =   0
                l(2) =   0
                l(3) =   1
                l(4) =   1
                l(5) =   2
                l(6) =   2
     Q(r) pseudized with  6 coefficients,  rinner =    1.200   1.200   1.200
                                                       1.200   1.200

     PseudoPot. # 5 for H  read from file:
     q-e/pseudo/h_pbe_v1.4.uspp.F.UPF
     MD5 check sum: 761ae9a214b05c3daf00ab9f6b793d6f
     Pseudo is Ultrasoft, Zval =  1.0
     Generated by new atomic code, or converted to UPF format
     Using radial grid of  615 points,  2 beta functions with: 
                l(1) =   0
                l(2) =   0
     Q(r) pseudized with  8 coefficients,  rinner =    0.700

     atomic species   valence    mass     pseudopotential
        Hf            12.00   178.49000     Hf( 1.00)
        Nb            13.00    92.90637     Nb( 1.00)
        Ta            13.00   180.94788     Ta( 1.00)
        Zr            12.00    91.22400     Zr( 1.00)
        H              1.00     2.01400     H ( 1.00)

     Starting magnetic structure 
     atomic species   magnetization
        Hf           0.000
        Nb           0.000
        Ta           0.000
        Zr           0.000
        H            0.000

     No symmetry found



   Cartesian axes

     site n.     atom                  positions (alat units)
         1           Hf  tau(   1) = (   0.3126464   0.3310449   0.7732979  )
         2           Hf  tau(   2) = (   0.1467202   0.1506188   0.5923263  )
         3           Hf  tau(   3) = (   0.1470125   0.8653167   0.5957925  )
         4           Hf  tau(   4) = (   0.4785725   0.1506188   0.5923263  )
         5           Hf  tau(   5) = (   0.4782802   0.8653167   0.5957925  )
         6           Nb  tau(   6) = (   0.3126464   0.3275094   0.4116608  )
         7           Nb  tau(   7) = (   0.3126464   0.6881006   0.7769319  )
         8           Ta  tau(   8) = (   0.1416128   0.5083054   0.5938087  )
         9           Ta  tau(   9) = (   0.4836800   0.5083054   0.5938087  )
        10           Ta  tau(  10) = (   0.1530741   0.1538785   0.2410748  )
        11           Ta  tau(  11) = (   0.1525513   0.1532074   0.9478430  )
        12           Ta  tau(  12) = (   0.1526943   0.8636799   0.2396062  )
        13           Ta  tau(  13) = (   0.1531277   0.8624219   0.9468387  )
        14           Ta  tau(  14) = (   0.4722187   0.1538785   0.2410748  )
        15           Ta  tau(  15) = (   0.4727414   0.1532074   0.9478430  )
        16           Ta  tau(  16) = (   0.4725984   0.8636799   0.2396062  )
        17           Ta  tau(  17) = (   0.4721650   0.8624219   0.9468387  )
        18           Zr  tau(  18) = (   0.3126464   0.6869187   0.4130426  )
        19           Zr  tau(  19) = (   0.1456481   0.5060981   0.2341920  )
        20           Zr  tau(  20) = (   0.1452442   0.5098505   0.9543040  )
        21           Zr  tau(  21) = (   0.4796447   0.5060981   0.2341920  )
        22           Zr  tau(  22) = (   0.4800486   0.5098505   0.9543040  )
        23           H   tau(  23) = (   0.6161590   0.5744362   0.7086623  )

     number of k points=     1  Gaussian smearing, width (Ry)=  0.0220
                       cart. coord. in units 2pi/alat
        k(    1) = (   0.0000000   0.0000000   0.0000000), wk =   1.0000000

     Dense  grid:   450774 G-vectors     FFT dimensions: ( 120, 120, 135)

     Estimated max dynamical RAM per process >     123.77 MB

     Estimated total dynamical RAM >       5.08 GB

     Check: negative core charge=   -0.000002
     Generating pointlists ...
     new r_m :   0.1222 (alat units)  1.9717 (a.u.) for type    1
     new r_m :   0.1201 (alat units)  1.9374 (a.u.) for type    2
     new r_m :   0.0773 (alat units)  1.2475 (a.u.) for type    3
     new r_m :   0.1189 (alat units)  1.9183 (a.u.) for type    4
     new r_m :   0.0773 (alat units)  1.2475 (a.u.) for type    5

     Initial potential from superposition of free atoms

     starting charge     266.9726, renormalised to     277.0000

     negative rho (up, down):  9.226E-01 9.226E-01
     Starting wfcs are  287 randomized atomic wfcs

     total cpu time spent up to now is       11.5 secs

     Self-consistent Calculation

     iteration #  1     ecut=   120.00 Ry     beta= 0.70
     Davidson diagonalization with overlap
     ethr =  1.00E-02,  avg # of iterations =  2.0

     negative rho (up, down):  9.861E-01 9.861E-01

     total cpu time spent up to now is       27.9 secs

     total energy              =   -2931.88385279 Ry
     estimated scf accuracy    <     287.28319107 Ry

     total magnetization       =     0.00 Bohr mag/cell
     absolute magnetization    =     0.11 Bohr mag/cell

     iteration #  2     ecut=   120.00 Ry     beta= 0.70
     Davidson diagonalization with overlap
     ethr =  1.00E-02,  avg # of iterations =  4.5

     negative rho (up, down):  9.428E-01 9.451E-01

     total cpu time spent up to now is       45.1 secs

     total energy              =   -2942.16712040 Ry
     estimated scf accuracy    <      35.01013178 Ry

     total magnetization       =    -0.01 Bohr mag/cell
     absolute magnetization    =     0.53 Bohr mag/cell

     iteration #  3     ecut=   120.00 Ry     beta= 0.70
     Davidson diagonalization with overlap
     ethr =  1.00E-02,  avg # of iterations =  3.0

     negative rho (up, down):  9.707E-01 9.721E-01

     total cpu time spent up to now is       60.2 secs

     total energy              =   -2942.68741991 Ry
     estimated scf accuracy    <      14.60136223 Ry

     total magnetization       =    -0.31 Bohr mag/cell
     absolute magnetization    =     1.02 Bohr mag/cell

     iteration #  4     ecut=   120.00 Ry     beta= 0.70
     Davidson diagonalization with overlap
     ethr =  5.27E-03,  avg # of iterations =  3.5

     negative rho (up, down):  9.661E-01 9.684E-01

     total cpu time spent up to now is       81.0 secs

     total energy              =   -2942.93699275 Ry
     estimated scf accuracy    <       3.15232727 Ry

     total magnetization       =     0.05 Bohr mag/cell
     absolute magnetization    =     1.00 Bohr mag/cell

     iteration #  5     ecut=   120.00 Ry     beta= 0.70
     Davidson diagonalization with overlap
     ethr =  1.14E-03,  avg # of iterations =  7.0

     negative rho (up, down):  9.423E-01 9.440E-01

     total cpu time spent up to now is      122.7 secs

     total energy              =   -2943.07481491 Ry
     estimated scf accuracy    <       1.48045520 Ry

     total magnetization       =     0.01 Bohr mag/cell
     absolute magnetization    =     0.55 Bohr mag/cell

     iteration #  6     ecut=   120.00 Ry     beta= 0.70
     Davidson diagonalization with overlap
     ethr =  5.34E-04,  avg # of iterations =  3.0

     negative rho (up, down):  9.305E-01 9.315E-01

     total cpu time spent up to now is      152.3 secs

     total energy              =   -2943.07427108 Ry
     estimated scf accuracy    <       1.00006705 Ry

     total magnetization       =     0.09 Bohr mag/cell
     absolute magnetization    =     0.42 Bohr mag/cell

     iteration #  7     ecut=   120.00 Ry     beta= 0.70
     Davidson diagonalization with overlap
     ethr =  3.61E-04,  avg # of iterations =  2.0

     negative rho (up, down):  9.121E-01 9.121E-01

     total cpu time spent up to now is      166.1 secs

     total energy              =   -2943.05587180 Ry
     estimated scf accuracy    <       0.25781255 Ry

     total magnetization       =     0.11 Bohr mag/cell
     absolute magnetization    =     0.39 Bohr mag/cell

     iteration #  8     ecut=   120.00 Ry     beta= 0.70
     Davidson diagonalization with overlap
     ethr =  9.31E-05,  avg # of iterations = 10.5

     negative rho (up, down):  9.069E-01 9.068E-01

     total cpu time spent up to now is      183.1 secs

     total energy              =   -2943.05570614 Ry
     estimated scf accuracy    <       0.17820769 Ry

     total magnetization       =     0.11 Bohr mag/cell
     absolute magnetization    =     0.29 Bohr mag/cell

     iteration #  9     ecut=   120.00 Ry     beta= 0.70
     Davidson diagonalization with overlap
     ethr =  6.43E-05,  avg # of iterations =  2.0

     negative rho (up, down):  9.081E-01 9.080E-01

     total cpu time spent up to now is      197.2 secs

     total energy              =   -2943.05877374 Ry
     estimated scf accuracy    <       0.05020019 Ry

     total magnetization       =     0.12 Bohr mag/cell
     absolute magnetization    =     0.24 Bohr mag/cell

     iteration # 10     ecut=   120.00 Ry     beta= 0.70
     Davidson diagonalization with overlap
     ethr =  1.81E-05,  avg # of iterations = 13.0

     negative rho (up, down):  9.090E-01 9.090E-01

     total cpu time spent up to now is      215.6 secs

     total energy              =   -2943.06207069 Ry
     estimated scf accuracy    <       0.04526876 Ry

     total magnetization       =     0.13 Bohr mag/cell
     absolute magnetization    =     0.20 Bohr mag/cell

     iteration # 11     ecut=   120.00 Ry     beta= 0.70
     Davidson diagonalization with overlap
     ethr =  1.63E-05,  avg # of iterations =  1.5

     negative rho (up, down):  9.098E-01 9.098E-01

     total cpu time spent up to now is      229.3 secs

     total energy              =   -2943.06558452 Ry
     estimated scf accuracy    <       0.00607170 Ry

     total magnetization       =     0.13 Bohr mag/cell
     absolute magnetization    =     0.18 Bohr mag/cell

     iteration # 12     ecut=   120.00 Ry     beta= 0.70
     Davidson diagonalization with overlap
     ethr =  2.19E-06,  avg # of iterations = 10.5

     negative rho (up, down):  9.099E-01 9.099E-01

     total cpu time spent up to now is      248.9 secs

     total energy              =   -2943.06715943 Ry
     estimated scf accuracy    <       0.00107547 Ry

     total magnetization       =     0.12 Bohr mag/cell
     absolute magnetization    =     0.16 Bohr mag/cell

     iteration # 13     ecut=   120.00 Ry     beta= 0.70
     Davidson diagonalization with overlap
     ethr =  3.88E-07,  avg # of iterations =  4.0

     negative rho (up, down):  9.097E-01 9.097E-01

     Magnetic moment per site  (integrated on atomic sphere of radius R)
     atom   1 (R=0.122)  charge=  9.4632    0.0002
     atom   2 (R=0.122)  charge=  9.0563    0.0001
     atom   3 (R=0.122)  charge=  9.0557    0.0000
     atom   4 (R=0.122)  charge=  9.0583   -0.0001
     atom   5 (R=0.122)  charge=  9.0602    0.0005
     atom   6 (R=0.120)  charge= 10.3501   -0.0006
     atom   7 (R=0.120)  charge= 10.3525    0.0003
     atom   8 (R=0.077)  charge=  5.9499    0.0000
     atom   9 (R=0.077)  charge=  5.9673   -0.0001
     atom  10 (R=0.077)  charge=  5.9322    0.0025
     atom  11 (R=0.077)  charge=  5.9318    0.0005
     atom  12 (R=0.077)  charge=  5.9309    0.0026
     atom  13 (R=0.077)  charge=  5.9321    0.0008
     atom  14 (R=0.077)  charge=  5.9327    0.0010
     atom  15 (R=0.077)  charge=  5.9320    0.0002
     atom  16 (R=0.077)  charge=  5.9319    0.0031
     atom  17 (R=0.077)  charge=  5.9337    0.0006
     atom  18 (R=0.119)  charge=  9.2641   -0.0005
     atom  19 (R=0.119)  charge=  8.8489    0.0041
     atom  20 (R=0.119)  charge=  8.8479    0.0000
     atom  21 (R=0.119)  charge=  8.8469    0.0036
     atom  22 (R=0.119)  charge=  8.8446   -0.0002
     atom  23 (R=0.077)  charge=  0.9007    0.0000

     total cpu time spent up to now is      264.9 secs

     End of self-consistent calculation

 ------ SPIN UP ------------


          k = 0.0000 0.0000 0.0000 ( 56324 PWs)   bands (ev):

   -59.7711 -59.7662 -59.7214 -59.7213 -59.6885 -59.6785 -59.6400 -59.6391
   -59.4731 -59.1885 -53.3664 -53.3212 -53.2372 -53.1916 -51.6577 -45.2473
   -45.2265 -40.6248 -40.5848 -40.5241 -40.4808 -38.7670 -26.7673 -26.7622
   -26.6787 -26.6781 -26.5825 -26.5779 -26.4554 -26.4469 -26.3379 -26.3174
   -26.2725 -26.2509 -26.2464 -26.2146 -26.2052 -26.1500 -26.1437 -26.1107
   -26.0336 -25.9486 -25.9463 -25.9449 -25.9306 -25.8999 -25.8752 -25.8657
   -25.8520 -25.8426 -25.8372 -25.8343 -23.1481 -22.9389 -22.6347 -22.5513
   -22.2907 -22.1626 -22.1444 -22.0371 -21.9078 -21.8466 -21.8189 -21.6020
   -21.4829 -21.4327 -21.3714 -21.3362 -21.2494 -21.2079 -20.7258 -20.6555
   -20.5902 -19.1539 -18.9151 -18.7937 -18.7721 -18.6138 -18.5741 -18.5641
   -18.5566 -18.5231 -18.5100 -18.3412 -18.3198 -17.1152 -16.9074 -16.7825
     2.2830   3.2902   3.9465   4.1662   4.3347   4.4558   4.5325   4.7145
     4.7489   4.7629   4.9513   5.0538   5.2665   5.5167   5.6303   5.7139
     5.7601   5.9196   6.0657   6.1234   6.1730   6.2892   6.3095   6.3431
     6.3978   6.5784   6.6088   6.7391   6.7597   6.7705   6.7917   6.8416
     6.9629   7.0748   7.1764   7.2677   7.2849   7.3227   7.3815   7.3957
     7.4274   7.6454   7.6864   7.7573   7.9397   7.9931   8.0115   8.1141
     8.1901   8.2014   8.3089   8.3203   8.3925   8.4566   8.5419   8.5746
     8.6286   8.7146   8.8974   9.0151   9.1027   9.1183   9.2332   9.3186
     9.3560   9.3697   9.3743   9.4288   9.4676   9.6055   9.6786   9.7933
     9.8739   9.9727  10.0918  10.1179  10.2136  10.2819  10.2993

 ------ SPIN DOWN ----------


          k = 0.0000 0.0000 0.0000 ( 56324 PWs)   bands (ev):

   -59.7699 -59.7617 -59.7208 -59.7161 -59.6841 -59.6779 -59.6394 -59.6340
   -59.4733 -59.1891 -53.3664 -53.3211 -53.2372 -53.1917 -51.6575 -45.2471
   -45.2271 -40.6251 -40.5811 -40.5243 -40.4772 -38.7675 -26.7655 -26.7561
   -26.6771 -26.6714 -26.5800 -26.5729 -26.4540 -26.4400 -26.3365 -26.3136
   -26.2711 -26.2460 -26.2442 -26.2119 -26.2025 -26.1492 -26.1378 -26.1105
   -26.0333 -25.9470 -25.9443 -25.9401 -25.9259 -25.8982 -25.8738 -25.8605
   -25.8504 -25.8404 -25.8350 -25.8324 -23.1482 -22.9390 -22.6345 -22.5513
   -22.2908 -22.1625 -22.1444 -22.0371 -21.9079 -21.8465 -21.8191 -21.6020
   -21.4832 -21.4331 -21.3712 -21.3362 -21.2493 -21.2081 -20.7257 -20.6553
   -20.5900 -19.1504 -18.9162 -18.7901 -18.7686 -18.6144 -18.5742 -18.5628
   -18.5538 -18.5189 -18.5098 -18.3415 -18.3153 -17.1156 -16.9077 -16.7824
     2.2840   3.2914   3.9516   4.1672   4.3357   4.4570   4.5368   4.7153
     4.7499   4.7651   4.9563   5.0562   5.2685   5.5186   5.6321   5.7166
     5.7620   5.9225   6.0697   6.1265   6.1772   6.2917   6.3115   6.3455
     6.4022   6.5803   6.6101   6.7418   6.7628   6.7722   6.7938   6.8427
     6.9644   7.0783   7.1801   7.2705   7.2867   7.3270   7.3844   7.3971
     7.4306   7.6480   7.6894   7.7602   7.9428   7.9985   8.0192   8.1205
     8.1975   8.2135   8.3171   8.3251   8.4007   8.4653   8.5466   8.5836
     8.6342   8.7184   8.9008   9.0197   9.1094   9.1223   9.2379   9.3268
     9.3628   9.3728   9.3782   9.4334   9.4715   9.6091   9.6831   9.7967
     9.8780   9.9765  10.0988  10.1216  10.2162  10.2847  10.3014

     the Fermi energy is     8.2856 ev

!    total energy              =   -2943.06759202 Ry
     estimated scf accuracy    <       0.00024445 Ry
     smearing contrib. (-TS)   =      -0.10636413 Ry
     internal energy E=F+TS    =   -2942.96122789 Ry

     total magnetization       =     0.12 Bohr mag/cell
     absolute magnetization    =     0.14 Bohr mag/cell

     convergence has been achieved in  13 iterations

     negative rho (up, down):  9.097E-01 9.097E-01

     Forces acting on atoms (cartesian axes, Ry/au):

     atom    1 type  1   force =    -0.00109085   -0.02193154    0.00509727
     atom    2 type  1   force =    -0.12049459   -0.01532959   -0.00134366
     atom    3 type  1   force =    -0.11797708    0.01303065    0.00487894
     atom    4 type  1   force =     0.11767829   -0.01635685   -0.00619449
     atom    5 type  1   force =     0.12155516    0.01445507    0.00481070
     atom    6 type  2   force =    -0.01114443   -0.02234030   -0.00008560
     atom    7 type  2   force =    -0.02568030    0.01279859   -0.00750726
     atom    8 type  3   force =    -0.11937188    0.00714009    0.00378532
     atom    9 type  3   force =     0.03488297   -0.06196129   -0.09543095
     atom   10 type  3   force =    -0.02204451   -0.02881970   -0.05647177
     atom   11 type  3   force =    -0.02555584   -0.03306513    0.05743822
     atom   12 type  3   force =    -0.02194933    0.03465493   -0.05584335
     atom   13 type  3   force =    -0.01354823    0.02868382    0.06186408
     atom   14 type  3   force =     0.02487366   -0.02656841   -0.05613766
     atom   15 type  3   force =     0.02214763   -0.03795056    0.05535185
     atom   16 type  3   force =     0.02288042    0.03380966   -0.05064431
     atom   17 type  3   force =     0.01180954    0.03931853    0.05801944
     atom   18 type  4   force =    -0.00103801    0.02794764   -0.01082049
     atom   19 type  4   force =    -0.13678922   -0.00540997   -0.11653943
     atom   20 type  4   force =    -0.13727997    0.00531827    0.11149418
     atom   21 type  4   force =     0.13533136   -0.00758031   -0.11927825
     atom   22 type  4   force =     0.15593224    0.00685531    0.10000259
     atom   23 type  5   force =     0.10687297    0.05330108    0.11355463
     The non-local contrib.  to forces
     atom    1 type  1   force =     0.00126963   -0.01077633    0.03308394
     atom    2 type  1   force =    -0.24740717   -0.16493843    0.01520150
     atom    3 type  1   force =    -0.24331535    0.15760748   -0.02117276
     atom    4 type  1   force =     0.24915350   -0.16486442    0.02719899
     atom    5 type  1   force =     0.26273309    0.14180024   -0.00456971
     atom    6 type  2   force =     0.01195915   -0.06633400   -0.06364879
     atom    7 type  2   force =    -0.01556537    0.07386131    0.05987166
     atom    8 type  3   force =    -0.25587749    0.00343157    0.00157493
     atom    9 type  3   force =     0.11110939   -0.04905747   -0.08964117
     atom   10 type  3   force =    -0.22227196    0.00420948   -0.21198051
     atom   11 type  3   force =    -0.22405161    0.01390933    0.19935547
     atom   12 type  3   force =    -0.21369359   -0.02488573   -0.17898418
     atom   13 type  3   force =    -0.21219684   -0.01028747    0.20598986
     atom   14 type  3   force =     0.21973464    0.00878102   -0.22255734
     atom   15 type  3   force =     0.22754429    0.00525783    0.18725823
     atom   16 type  3   force =     0.20611485   -0.02215620   -0.18879806
     atom   17 type  3   force =     0.23687331   -0.01775425    0.17938874
     atom   18 type  4   force =    -0.00179431    0.06745518   -0.05955321
     atom   19 type  4   force =     0.06375223    0.00793930    0.07401108
     atom   20 type  4   force =     0.05593954   -0.01699311   -0.05901360
     atom   21 type  4   force =    -0.06181077    0.01553952    0.07038012
     atom   22 type  4   force =    -0.05447923   -0.00856465   -0.07318971
     atom   23 type  5   force =    -0.05820202   -0.02921897   -0.03916001
     The ionic contribution  to forces
     atom    1 type  1   force =    -0.33765162   -4.87041781   14.26116054
     atom    2 type  1   force =   -35.67818342   -6.18547023    0.71757558
     atom    3 type  1   force =   -35.67432326    6.23804421   -0.79300197
     atom    4 type  1   force =    35.53723591   -6.31231253    0.65725586
     atom    5 type  1   force =    35.35242098    6.66698160   -0.97016758
     atom    6 type  2   force =    -0.15834970   -3.67554619  -14.29690976
     atom    7 type  2   force =    -0.67815455    3.84811043   14.29312140
     atom    8 type  3   force =   -47.63688324    0.00857546   -0.19613431
     atom    9 type  3   force =    45.61331720   -0.90638643   -1.78944568
     atom   10 type  3   force =   -32.19678645   -2.11017080  -23.46229729
     atom   11 type  3   force =   -31.27762153   -0.88414439   22.50850212
     atom   12 type  3   force =   -31.38369068    0.83331435  -22.52661017
     atom   13 type  3   force =   -32.19765437    2.27496994   23.51753545
     atom   14 type  3   force =    32.14289837   -2.13065767  -23.49843422
     atom   15 type  3   force =    31.15960514   -0.96713420   22.59404972
     atom   16 type  3   force =    31.31143329    0.87715589  -22.58922053
     atom   17 type  3   force =    31.97564936    2.50663856   23.72539372
     atom   18 type  4   force =    -0.22424737    4.44190662  -14.31281888
     atom   19 type  4   force =   -32.18101687    0.94020267  -25.93325564
     atom   20 type  4   force =   -32.18697164   -0.99828459   26.00261026
     atom   21 type  4   force =    32.08573181    0.91889380  -26.04974584
     atom   22 type  4   force =    31.66249120   -1.18620034   26.72103840
     atom   23 type  5   force =     4.97075143    0.67193165    1.41979882
     The local contribution  to forces
     atom    1 type  1   force =     0.33742256    4.85727877  -14.29321190
     atom    2 type  1   force =    35.81873914    6.33461963   -0.73053243
     atom    3 type  1   force =    35.81427637   -6.38077019    0.82736691
     atom    4 type  1   force =   -35.68045955    6.46245322   -0.69057711
     atom    5 type  1   force =   -35.50539748   -6.79385768    0.98434259
     atom    6 type  2   force =     0.13948899    3.71384153   14.36886484
     atom    7 type  2   force =     0.67122936   -3.90516164  -14.36208495
     atom    8 type  3   force =    47.80046369   -0.00766361    0.20178440
     atom    9 type  3   force =   -45.69501420    0.89761987    1.80059541
     atom   10 type  3   force =    32.41804111    2.07533072   23.64233015
     atom   11 type  3   force =    31.50120167    0.82760377  -22.67856231
     atom   12 type  3   force =    31.59550858   -0.76208291   22.67099931
     atom   13 type  3   force =    32.41928320   -2.22565410  -23.68652960
     atom   14 type  3   force =   -32.35547351    2.08930824   23.68953750
     atom   15 type  3   force =   -31.38778999    0.91382546  -22.74886876
     atom   16 type  3   force =   -31.50879468   -0.80932730   22.74969952
     atom   17 type  3   force =   -32.22177738   -2.44079026  -23.86858594
     atom   18 type  4   force =     0.23101847   -4.48117649   14.37331364
     atom   19 type  4   force =    31.98422896   -0.95936778   25.75780867
     atom   20 type  4   force =    31.99988126    1.01920028  -25.84683763
     atom   21 type  4   force =   -31.88962899   -0.94494722   25.87734720
     atom   22 type  4   force =   -31.45562722    1.20093256  -26.56560973
     atom   23 type  5   force =    -4.80494884   -0.58970015   -1.26730552
     The core correction contribution to forces
     atom    1 type  1   force =     0.00136589    0.00133100   -0.00043016
     atom    2 type  1   force =    -0.01177915   -0.00164038    0.00014864
     atom    3 type  1   force =    -0.01264577    0.00227925   -0.00190754
     atom    4 type  1   force =     0.01202010   -0.00196385    0.00312863
     atom    5 type  1   force =     0.01302596    0.00163871   -0.00000668
     atom    6 type  2   force =    -0.00045813    0.00335409    0.00285613
     atom    7 type  2   force =     0.00092347   -0.00370659   -0.00218034
     atom    8 type  3   force =    -0.03006071    0.00091913    0.00068555
     atom    9 type  3   force =     0.01280706   -0.00599578   -0.01226942
     atom   10 type  3   force =    -0.02215418    0.00869261   -0.01576719
     atom   11 type  3   force =    -0.02522735    0.00910252    0.01874449
     atom   12 type  3   force =    -0.02200031   -0.01003459   -0.01477607
     atom   13 type  3   force =    -0.02254509   -0.00939338    0.01625173
     atom   14 type  3   force =     0.02232077    0.00840652   -0.01666422
     atom   15 type  3   force =     0.02484540    0.00944010    0.01435905
     atom   16 type  3   force =     0.02244871   -0.00973708   -0.01591025
     atom   17 type  3   force =     0.02394249   -0.00863200    0.01408359
     atom   18 type  4   force =     0.00019942   -0.00349450    0.00292113
     atom   19 type  4   force =    -0.00989704    0.00008953   -0.00966439
     atom   20 type  4   force =    -0.00953599    0.00054740    0.00878476
     atom   21 type  4   force =     0.00975421   -0.00028888   -0.00953551
     atom   22 type  4   force =     0.00976676    0.00038083    0.00919832
     atom   23 type  5   force =     0.00000000    0.00000000    0.00000000
     The Hubbard contrib.    to forces
     atom    1 type  1   force =     0.00000000    0.00000000    0.00000000
     atom    2 type  1   force =     0.00000000    0.00000000    0.00000000
     atom    3 type  1   force =     0.00000000    0.00000000    0.00000000
     atom    4 type  1   force =     0.00000000    0.00000000    0.00000000
     atom    5 type  1   force =     0.00000000    0.00000000    0.00000000
     atom    6 type  2   force =     0.00000000    0.00000000    0.00000000
     atom    7 type  2   force =     0.00000000    0.00000000    0.00000000
     atom    8 type  3   force =     0.00000000    0.00000000    0.00000000
     atom    9 type  3   force =     0.00000000    0.00000000    0.00000000
     atom   10 type  3   force =     0.00000000    0.00000000    0.00000000
     atom   11 type  3   force =     0.00000000    0.00000000    0.00000000
     atom   12 type  3   force =     0.00000000    0.00000000    0.00000000
     atom   13 type  3   force =     0.00000000    0.00000000    0.00000000
     atom   14 type  3   force =     0.00000000    0.00000000    0.00000000
     atom   15 type  3   force =     0.00000000    0.00000000    0.00000000
     atom   16 type  3   force =     0.00000000    0.00000000    0.00000000
     atom   17 type  3   force =     0.00000000    0.00000000    0.00000000
     atom   18 type  4   force =     0.00000000    0.00000000    0.00000000
     atom   19 type  4   force =     0.00000000    0.00000000    0.00000000
     atom   20 type  4   force =     0.00000000    0.00000000    0.00000000
     atom   21 type  4   force =     0.00000000    0.00000000    0.00000000
     atom   22 type  4   force =     0.00000000    0.00000000    0.00000000
     atom   23 type  5   force =     0.00000000    0.00000000    0.00000000
     The SCF correction term to forces
     atom    1 type  1   force =    -0.00000000    0.00000000    0.00000000
     atom    2 type  1   force =    -0.00000000    0.00000000   -0.00000000
     atom    3 type  1   force =    -0.00000000   -0.00000000   -0.00000000
     atom    4 type  1   force =     0.00000000    0.00000000   -0.00000000
     atom    5 type  1   force =    -0.00000000   -0.00000000   -0.00000000
     atom    6 type  2   force =    -0.00000000    0.00000000   -0.00000000
     atom    7 type  2   force =    -0.00000000   -0.00000000    0.00000000
     atom    8 type  3   force =     0.00000000    0.00000000   -0.00000000
     atom    9 type  3   force =    -0.00000000    0.00000000   -0.00000000
     atom   10 type  3   force =     0.00141647   -0.00687398   -0.00847512
     atom   11 type  3   force =     0.00043246    0.00047137    0.00968026
     atom   12 type  3   force =     0.00221616   -0.00164847   -0.00619044
     atom   13 type  3   force =    -0.00014564   -0.00094344    0.00889845
     atom   14 type  3   force =    -0.00431713   -0.00239878   -0.00773758
     atom   15 type  3   force =    -0.00176773    0.00066798    0.00883542
     atom   16 type  3   force =    -0.00803227   -0.00211792   -0.00613318
     atom   17 type  3   force =    -0.00258875   -0.00013579    0.00802112
     atom   18 type  4   force =    -0.00592473    0.00326456   -0.01440137
     atom   19 type  4   force =     0.00643300    0.00573404   -0.00515735
     atom   20 type  4   force =     0.00369634    0.00085602    0.00623220
     atom   21 type  4   force =    -0.00842543    0.00323021   -0.00744243
     atom   22 type  4   force =    -0.00592978    0.00031463    0.00884713
     atom   23 type  5   force =    -0.00043811    0.00029627    0.00050315

     Total force =     0.443379     Total SCF correction =     0.036646


     Computing stress (Cartesian axis) and pressure


     negative rho (up, down):  9.097E-01 9.097E-01
          total   stress  (Ry/bohr**3)                   (kbar)     P=       93.49
   0.00071107   0.00001640   0.00004607          104.60        2.41        6.78
   0.00001640   0.00074721   0.00001480            2.41      109.92        2.18
   0.00004607   0.00001480   0.00044840            6.78        2.18       65.96


     Molecular Dynamics Calculation

     Starting temperature  =   300.00 K

     temperature is set once at start

     mass Hf               =   178.49
     mass Nb               =    92.91
     mass Ta               =   180.95
     mass Zr               =    91.22
     mass H                =     2.01
     Time step             =     4.20 a.u.,  0.2032 femto-seconds

     Entering Dynamics:    iteration =     1
                           time      =   0.0002 pico-seconds


ATOMIC_POSITIONS (angstrom)
Hf            2.6699999570        2.8271230292        6.6039642186    0   0   0
Hf            1.2529906802        1.2862841814        5.0584662261    0   0   0
Hf            1.2554868986        7.3898042948        5.0880677674    0   0   0
Hf            4.0870092338        1.2862841814        5.0584662261    0   0   0
Hf            4.0845130154        7.3898042948        5.0880677674    0   0   0
Nb            2.6699999570        2.7969306055        3.5155832167    0   0   0
Nb            2.6699999570        5.8763786763        6.6349979432    0   0   0
Ta            1.2093730560        4.3409278516        5.0711258323    0   0   0
Ta            4.1306268580        4.3409278516        5.0711258323    0   0   0
Ta            1.3072520602        1.3141217738        2.0587775120
Ta            1.3027875910        1.3083902003        8.0945808279
Ta            1.3040090009        7.3758271048        2.0462355994
Ta            1.3077104150        7.3650837602        8.0860039716
Ta            4.0327479338        1.3141218375        2.0587775214
Ta            4.0372122266        1.3083900620        8.0945807689
Ta            4.0359909394        7.3758270809        2.0462357466
Ta            4.0322894498        7.3650840611        8.0860038627
Zr            2.6699998987        5.8662874122        3.5273833230
Zr            1.2438269404        4.3220776608        1.9999934581
Zr            1.2403777065        4.3541235830        8.1497618080
Zr            4.0961728918        4.3220775390        1.9999933044
Zr            4.0996232545        4.3541236693        8.1497611629
H             5.1919481432        4.8706602485        5.9913667039


     kinetic energy (Ekin) =           1.83759633 Ry
     temperature           =       13815.88157946 K 
     Ekin + Etot (const)   =       -2941.22999569 Ry
     Ions kinetic stress =           35.49 (kbar)
                                     53.24          26.62          46.11
                                     26.62          13.31          23.05
                                     46.11          23.05          39.93



     File outdir/pwscf.msd.dat deleted, as requested

     Writing config-only to output data dir outdir/pwscf.save/
     NEW-OLD atomic charge density approx. for the potential

     Check: negative core charge=   -0.000002

     negative rho (up, down):  9.097E-01 9.097E-01
     Generating pointlists ...
     new r_m :   0.0725 (alat units)  1.1703 (a.u.) for type    3
     new r_m :   0.0725 (alat units)  1.1703 (a.u.) for type    5

     total cpu time spent up to now is      287.9 secs

     Self-consistent Calculation

     iteration #  1     ecut=   120.00 Ry     beta= 0.70
     Davidson diagonalization with overlap
     ethr =  1.00E-06,  avg # of iterations =  8.0

     negative rho (up, down):  9.098E-01 9.098E-01

     total cpu time spent up to now is      311.3 secs

     total energy              =   -2943.02642953 Ry
     estimated scf accuracy    <       0.01840377 Ry

     total magnetization       =     0.12 Bohr mag/cell
     absolute magnetization    =     0.13 Bohr mag/cell

     iteration #  2     ecut=   120.00 Ry     beta= 0.70
     Davidson diagonalization with overlap
     ethr =  6.64E-06,  avg # of iterations =  2.0

     negative rho (up, down):  9.097E-01 9.097E-01

     total cpu time spent up to now is      325.8 secs

     total energy              =   -2943.02778899 Ry
     estimated scf accuracy    <       0.00754257 Ry

     total magnetization       =     0.11 Bohr mag/cell
     absolute magnetization    =     0.13 Bohr mag/cell

     iteration #  3     ecut=   120.00 Ry     beta= 0.70
     Davidson diagonalization with overlap
     ethr =  2.72E-06,  avg # of iterations =  1.0

     negative rho (up, down):  9.096E-01 9.096E-01

     Magnetic moment per site  (integrated on atomic sphere of radius R)
     atom   1 (R=0.122)  charge=  9.4637    0.0002
     atom   2 (R=0.122)  charge=  9.0555    0.0002
     atom   3 (R=0.122)  charge=  9.0562    0.0003
     atom   4 (R=0.122)  charge=  9.0586    0.0002
     atom   5 (R=0.122)  charge=  9.0597    0.0005
     atom   6 (R=0.120)  charge= 10.3521   -0.0000
     atom   7 (R=0.120)  charge= 10.3521    0.0004
     atom   8 (R=0.073)  charge=  5.2422    0.0001
     atom   9 (R=0.073)  charge=  5.2597    0.0000
     atom  10 (R=0.073)  charge=  5.2277    0.0014
     atom  11 (R=0.073)  charge=  5.2241    0.0005
     atom  12 (R=0.073)  charge=  5.2267    0.0018
     atom  13 (R=0.073)  charge=  5.2254    0.0006
     atom  14 (R=0.073)  charge=  5.2275    0.0007
     atom  15 (R=0.073)  charge=  5.2239    0.0003
     atom  16 (R=0.073)  charge=  5.2273    0.0020
     atom  17 (R=0.073)  charge=  5.2254    0.0006
     atom  18 (R=0.119)  charge=  9.2668   -0.0003
     atom  19 (R=0.119)  charge=  8.8508    0.0037
     atom  20 (R=0.119)  charge=  8.8464    0.0005
     atom  21 (R=0.119)  charge=  8.8512    0.0031
     atom  22 (R=0.119)  charge=  8.8441    0.0002
     atom  23 (R=0.073)  charge=  0.8792    0.0001

     total cpu time spent up to now is      338.1 secs

     End of self-consistent calculation

 ------ SPIN UP ------------


          k = 0.0000 0.0000 0.0000 ( 56324 PWs)   bands (ev):

   -59.7757 -59.7652 -59.7297 -59.7158 -59.7001 -59.6716 -59.6522 -59.6339
   -59.4839 -59.0938 -53.3810 -53.3356 -53.2537 -53.2083 -51.6660 -45.2498
   -45.2461 -40.6340 -40.5959 -40.5224 -40.4928 -38.7813 -26.7758 -26.7609
   -26.6909 -26.6736 -26.5905 -26.5756 -26.4628 -26.4493 -26.3399 -26.3204
   -26.2744 -26.2593 -26.2430 -26.2238 -26.2022 -26.1582 -26.1470 -26.1165
   -26.0432 -25.9576 -25.9407 -25.9394 -25.9363 -25.8850 -25.8753 -25.8654
   -25.8522 -25.8406 -25.8055 -25.7608 -23.1618 -22.9521 -22.6479 -22.5640
   -22.3056 -22.1746 -22.1567 -22.0501 -21.9219 -21.8593 -21.8323 -21.6160
   -21.4949 -21.4443 -21.3813 -21.3440 -21.2646 -21.2209 -20.7347 -20.6631
   -20.5977 -19.1656 -18.9218 -18.8047 -18.7850 -18.6237 -18.5830 -18.5706
   -18.5576 -18.5362 -18.5093 -18.3440 -18.3318 -17.1299 -16.9209 -16.7964
     2.2425   3.2103   3.9372   4.1592   4.3265   4.4579   4.5253   4.7099
     4.7515   4.7540   4.9440   5.0448   5.2664   5.5042   5.6286   5.7079
     5.7485   5.9135   6.0561   6.1120   6.1725   6.2826   6.3008   6.3374
     6.3927   6.5693   6.6099   6.7313   6.7557   6.7634   6.7849   6.8431
     6.9558   7.0711   7.1721   7.2639   7.2769   7.3163   7.3744   7.3877
     7.4211   7.6433   7.6849   7.7571   7.9373   7.9879   8.0047   8.1097
     8.1776   8.1943   8.3011   8.3139   8.3803   8.4490   8.5379   8.5594
     8.6211   8.7046   8.8892   9.0101   9.0960   9.1125   9.2266   9.3155
     9.3504   9.3662   9.3718   9.4293   9.4643   9.6065   9.6741   9.7881
     9.8735   9.9688  10.0838  10.1127  10.2068  10.2779  10.2970

 ------ SPIN DOWN ----------


          k = 0.0000 0.0000 0.0000 ( 56324 PWs)   bands (ev):

   -59.7724 -59.7640 -59.7260 -59.7150 -59.6965 -59.6706 -59.6482 -59.6330
   -59.4838 -59.0937 -53.3808 -53.3354 -53.2535 -53.2082 -51.6659 -45.2495
   -45.2462 -40.6339 -40.5926 -40.5221 -40.4897 -38.7815 -26.7707 -26.7594
   -26.6854 -26.6721 -26.5860 -26.5739 -26.4573 -26.4478 -26.3379 -26.3181
   -26.2733 -26.2548 -26.2421 -26.2203 -26.2009 -26.1537 -26.1459 -26.1160
   -26.0426 -25.9529 -25.9389 -25.9363 -25.9333 -25.8819 -25.8725 -25.8627
   -25.8481 -25.8398 -25.8052 -25.7606 -23.1615 -22.9520 -22.6475 -22.5639
   -22.3055 -22.1744 -22.1564 -22.0498 -21.9217 -21.8591 -21.8323 -21.6159
   -21.4950 -21.4442 -21.3810 -21.3438 -21.2643 -21.2208 -20.7345 -20.6630
   -20.5975 -19.1624 -18.9220 -18.8014 -18.7821 -18.6240 -18.5825 -18.5673
   -18.5569 -18.5326 -18.5088 -18.3436 -18.3276 -17.1300 -16.9210 -16.7961
     2.2437   3.2118   3.9418   4.1604   4.3278   4.4593   4.5293   4.7109
     4.7526   4.7562   4.9484   5.0472   5.2683   5.5061   5.6306   5.7104
     5.7506   5.9164   6.0599   6.1145   6.1764   6.2848   6.3029   6.3397
     6.3966   6.5711   6.6113   6.7341   6.7585   6.7652   6.7871   6.8443
     6.9573   7.0745   7.1756   7.2663   7.2787   7.3202   7.3771   7.3892
     7.4244   7.6458   7.6875   7.7595   7.9403   7.9930   8.0117   8.1154
     8.1840   8.2057   8.3085   8.3182   8.3885   8.4577   8.5420   8.5686
     8.6263   8.7083   8.8924   9.0143   9.1021   9.1163   9.2309   9.3232
     9.3564   9.3702   9.3745   9.4337   9.4679   9.6104   9.6782   9.7913
     9.8770   9.9725  10.0904  10.1156  10.2091  10.2806  10.2991

     the Fermi energy is     8.2774 ev

!    total energy              =   -2943.02766691 Ry
     estimated scf accuracy    <       0.00077994 Ry
     smearing contrib. (-TS)   =      -0.10690816 Ry
     internal energy E=F+TS    =   -2942.92075876 Ry

     total magnetization       =     0.11 Bohr mag/cell
     absolute magnetization    =     0.12 Bohr mag/cell

     convergence has been achieved in   3 iterations

     negative rho (up, down):  9.096E-01 9.096E-01

     Forces acting on atoms (cartesian axes, Ry/au):

     atom    1 type  1   force =    -0.00308016   -0.02128990    0.00693191
     atom    2 type  1   force =    -0.11792346   -0.01510513   -0.01004096
     atom    3 type  1   force =    -0.11585554    0.01130194   -0.00513798
     atom    4 type  1   force =     0.11468660   -0.01909259   -0.01373029
     atom    5 type  1   force =     0.11822012    0.01647445   -0.00375401
     atom    6 type  2   force =    -0.01002163   -0.02282682    0.00058227
     atom    7 type  2   force =    -0.02523332    0.01259751   -0.00461846
     atom    8 type  3   force =    -0.11956656    0.00834645    0.00337342
     atom    9 type  3   force =    -0.03393687   -0.09748783   -0.15902922
     atom   10 type  3   force =    -0.01867171   -0.03080535   -0.05574673
     atom   11 type  3   force =    -0.02480751   -0.03230279    0.06386062
     atom   12 type  3   force =    -0.01762341    0.03485541   -0.05488835
     atom   13 type  3   force =    -0.01312968    0.02712698    0.06821850
     atom   14 type  3   force =     0.02169933   -0.02749437   -0.05596033
     atom   15 type  3   force =     0.02261415   -0.03600100    0.06145530
     atom   16 type  3   force =     0.01969152    0.03376368   -0.05041560
     atom   17 type  3   force =     0.01253340    0.03681386    0.06363693
     atom   18 type  4   force =    -0.00332133    0.03188556   -0.01581750
     atom   19 type  4   force =    -0.13346238   -0.00383933   -0.11592002
     atom   20 type  4   force =    -0.13413891    0.00506786    0.11594243
     atom   21 type  4   force =     0.13267564   -0.00650567   -0.12291899
     atom   22 type  4   force =     0.14991691    0.00635213    0.10842221
     atom   23 type  5   force =     0.17873481    0.08816497    0.17555483
     The non-local contrib.  to forces
     atom    1 type  1   force =    -0.00093837   -0.01168129    0.03403102
     atom    2 type  1   force =    -0.24730052   -0.16397561    0.01006820
     atom    3 type  1   force =    -0.24389319    0.15604456   -0.02737059
     atom    4 type  1   force =     0.24716650   -0.16588271    0.02188890
     atom    5 type  1   force =     0.25945585    0.14377841   -0.01254123
     atom    6 type  2   force =     0.01244860   -0.06689361   -0.06368179
     atom    7 type  2   force =    -0.01341809    0.07428670    0.06009979
     atom    8 type  3   force =    -0.25445981    0.00357583   -0.00264992
     atom    9 type  3   force =     0.12470408   -0.04237038   -0.08378176
     atom   10 type  3   force =    -0.21957975    0.00220392   -0.21526624
     atom   11 type  3   force =    -0.22459135    0.01594444    0.20354360
     atom   12 type  3   force =    -0.20974373   -0.02517913   -0.18102945
     atom   13 type  3   force =    -0.21200222   -0.01276035    0.21060807
     atom   14 type  3   force =     0.21514824    0.00782491   -0.22482335
     atom   15 type  3   force =     0.22705418    0.00652350    0.19254423
     atom   16 type  3   force =     0.20121483   -0.02225431   -0.19078210
     atom   17 type  3   force =     0.23320445   -0.01685069    0.18798329
     atom   18 type  4   force =    -0.00485744    0.06966453   -0.06541350
     atom   19 type  4   force =     0.06652426    0.00925411    0.07339546
     atom   20 type  4   force =     0.05779896   -0.01637557   -0.05693215
     atom   21 type  4   force =    -0.06543624    0.01581571    0.06806746
     atom   22 type  4   force =    -0.05845774   -0.00960220   -0.06715663
     atom   23 type  5   force =    -0.06910515   -0.03544508   -0.05071010
     The ionic contribution  to forces
     atom    1 type  1   force =    -0.35577794   -4.88545409   14.27773235
     atom    2 type  1   force =   -35.68495513   -6.18937370    0.72019181
     atom    3 type  1   force =   -35.68446024    6.23970240   -0.78868807
     atom    4 type  1   force =    35.53811094   -6.32969864    0.65959734
     atom    5 type  1   force =    35.36321310    6.68437173   -0.95875119
     atom    6 type  2   force =    -0.17114357   -3.68604695  -14.30882738
     atom    7 type  2   force =    -0.69636572    3.87043029   14.32037308
     atom    8 type  3   force =   -47.66227095    0.01060941   -0.19161549
     atom    9 type  3   force =    45.33594084   -1.04416120   -2.02803152
     atom   10 type  3   force =   -32.19960226   -2.11190993  -23.46591759
     atom   11 type  3   force =   -31.28239306   -0.88585260   22.51044755
     atom   12 type  3   force =   -31.38717116    0.83416494  -22.53030742
     atom   13 type  3   force =   -32.20388980    2.27320645   23.51829829
     atom   14 type  3   force =    32.14337482   -2.13469022  -23.50539548
     atom   15 type  3   force =    31.16397940   -0.97192536   22.59948034
     atom   16 type  3   force =    31.31268519    0.88058681  -22.59706525
     atom   17 type  3   force =    31.99179744    2.49659889   23.72285292
     atom   18 type  4   force =    -0.23956946    4.45291255  -14.32655638
     atom   19 type  4   force =   -32.18589643    0.94088021  -25.93884961
     atom   20 type  4   force =   -32.19859907   -0.99539616   26.00528559
     atom   21 type  4   force =    32.08544262    0.91907178  -26.06787790
     atom   22 type  4   force =    31.69798214   -1.16811046   26.73044851
     atom   23 type  5   force =     5.31956831    0.80008383    1.64317547
     The local contribution  to forces
     atom    1 type  1   force =     0.34385620    4.87250191  -14.31204227
     atom    2 type  1   force =    35.83371427    6.33937443   -0.76784016
     atom    3 type  1   force =    35.82960766   -6.38659063    0.78344284
     atom    4 type  1   force =   -35.69635302    6.47127607   -0.72351385
     atom    5 type  1   force =   -35.52941972   -6.80528387    0.94093026
     atom    6 type  2   force =     0.13648812    3.70795396   14.33795787
     atom    7 type  2   force =     0.67229222   -3.92692663  -14.39132727
     atom    8 type  3   force =    47.82939060   -0.00563493    0.17102378
     atom    9 type  3   force =   -45.51467826    1.00161996    1.95332088
     atom   10 type  3   force =    32.43399327    2.06009307   23.63666708
     atom   11 type  3   force =    31.50672966    0.83226893  -22.65071616
     atom   12 type  3   force =    31.61122056   -0.75712274   22.66763070
     atom   13 type  3   force =    32.42288699   -2.22918802  -23.65827983
     atom   14 type  3   force =   -32.37711014    2.08243371   23.68453171
     atom   15 type  3   force =   -31.39679738    0.92745927  -22.72724884
     atom   16 type  3   force =   -31.53376674   -0.80794965   22.74677929
     atom   17 type  3   force =   -32.24038878   -2.44062960  -23.84357639
     atom   18 type  4   force =     0.22734225   -4.46986596   14.34165891
     atom   19 type  4   force =    32.00517724   -0.95102477   25.75532986
     atom   20 type  4   force =    32.02251961    1.01729982  -25.82647812
     atom   21 type  4   force =   -31.91277945   -0.93982360   25.87161593
     atom   22 type  4   force =   -31.51556713    1.18192710  -26.53918655
     atom   23 type  5   force =    -5.07393473   -0.67617901   -1.42013195
     The core correction contribution to forces
     atom    1 type  1   force =     0.00128986    0.00115713   -0.00041139
     atom    2 type  1   force =    -0.01181611   -0.00158307    0.00016270
     atom    3 type  1   force =    -0.01264128    0.00216631   -0.00189380
     atom    4 type  1   force =     0.01183490   -0.00203114    0.00291813
     atom    5 type  1   force =     0.01282066    0.00153137   -0.00026514
     atom    6 type  2   force =    -0.00041622    0.00350083    0.00293754
     atom    7 type  2   force =     0.00076721   -0.00367603   -0.00216030
     atom    8 type  3   force =    -0.02977779    0.00090575    0.00071993
     atom    9 type  3   force =     0.01269732   -0.00586761   -0.01285929
     atom   10 type  3   force =    -0.02190565    0.00870346   -0.01572164
     atom   11 type  3   force =    -0.02538596    0.00914101    0.01884781
     atom   12 type  3   force =    -0.02177579   -0.01015156   -0.01478375
     atom   13 type  3   force =    -0.02249539   -0.00949276    0.01635580
     atom   14 type  3   force =     0.02213143    0.00830984   -0.01677041
     atom   15 type  3   force =     0.02477833    0.00939283    0.01454875
     atom   16 type  3   force =     0.02224184   -0.00971020   -0.01591880
     atom   17 type  3   force =     0.02372032   -0.00849964    0.01463065
     atom   18 type  4   force =     0.00027250   -0.00348633    0.00298591
     atom   19 type  4   force =    -0.00995870    0.00007416   -0.00973603
     atom   20 type  4   force =    -0.00956627    0.00053219    0.00883630
     atom   21 type  4   force =     0.00981309   -0.00026069   -0.00961887
     atom   22 type  4   force =     0.00985882    0.00043575    0.00911931
     atom   23 type  5   force =     0.00000000    0.00000000    0.00000000
     The Hubbard contrib.    to forces
     atom    1 type  1   force =     0.00000000    0.00000000    0.00000000
     atom    2 type  1   force =     0.00000000    0.00000000    0.00000000
     atom    3 type  1   force =     0.00000000    0.00000000    0.00000000
     atom    4 type  1   force =     0.00000000    0.00000000    0.00000000
     atom    5 type  1   force =     0.00000000    0.00000000    0.00000000
     atom    6 type  2   force =     0.00000000    0.00000000    0.00000000
     atom    7 type  2   force =     0.00000000    0.00000000    0.00000000
     atom    8 type  3   force =     0.00000000    0.00000000    0.00000000
     atom    9 type  3   force =     0.00000000    0.00000000    0.00000000
     atom   10 type  3   force =     0.00000000    0.00000000    0.00000000
     atom   11 type  3   force =     0.00000000    0.00000000    0.00000000
     atom   12 type  3   force =     0.00000000    0.00000000    0.00000000
     atom   13 type  3   force =     0.00000000    0.00000000    0.00000000
     atom   14 type  3   force =     0.00000000    0.00000000    0.00000000
     atom   15 type  3   force =     0.00000000    0.00000000    0.00000000
     atom   16 type  3   force =     0.00000000    0.00000000    0.00000000
     atom   17 type  3   force =     0.00000000    0.00000000    0.00000000
     atom   18 type  4   force =     0.00000000    0.00000000    0.00000000
     atom   19 type  4   force =     0.00000000    0.00000000    0.00000000
     atom   20 type  4   force =     0.00000000    0.00000000    0.00000000
     atom   21 type  4   force =     0.00000000    0.00000000    0.00000000
     atom   22 type  4   force =     0.00000000    0.00000000    0.00000000
     atom   23 type  5   force =     0.00000000    0.00000000    0.00000000
     The SCF correction term to forces
     atom    1 type  1   force =     0.00000000    0.00000000    0.00000000
     atom    2 type  1   force =    -0.00000000    0.00000000    0.00000000
     atom    3 type  1   force =    -0.00000000    0.00000000    0.00000000
     atom    4 type  1   force =     0.00000000    0.00000000    0.00000000
     atom    5 type  1   force =     0.00000000   -0.00000000    0.00000000
     atom    6 type  2   force =     0.00000000    0.00000000    0.00000000
     atom    7 type  2   force =     0.00000000   -0.00000000    0.00000000
     atom    8 type  3   force =    -0.00000000   -0.00000000    0.00000000
     atom    9 type  3   force =     0.00000000   -0.00000000    0.00000000
     atom   10 type  3   force =    -0.01227519    0.01020769    0.00292113
     atom   11 type  3   force =     0.00013534   -0.00370102   -0.01983271
     atom   12 type  3   force =    -0.01085116   -0.00675254    0.00203105
     atom   13 type  3   force =     0.00167287    0.00546521   -0.02033437
     atom   14 type  3   force =     0.01745711    0.00873095    0.00492667
     atom   15 type  3   force =     0.00290175   -0.00734768   -0.01943970
     atom   16 type  3   force =     0.01661854   -0.00680540    0.00500073
     atom   17 type  3   force =     0.00350211    0.00629846   -0.01982407
     atom   18 type  4   force =     0.01279296   -0.01723567    0.02993702
     atom   19 type  4   force =    -0.01000661   -0.00291947    0.00236976
     atom   20 type  4   force =    -0.00699000   -0.00088887   -0.01633972
     atom   21 type  4   force =     0.01493776   -0.00120532    0.01332387
     atom   22 type  4   force =     0.01540296    0.00180550   -0.02637296
     atom   23 type  5   force =     0.00150852   -0.00019120    0.00165088

     Total force =     0.491309     Total SCF correction =     0.077802
     SCF correction compared to forces is large: reduce conv_thr to get better values


     Computing stress (Cartesian axis) and pressure


     negative rho (up, down):  9.096E-01 9.096E-01
          total   stress  (Ry/bohr**3)                   (kbar)     P=       96.68
   0.00075615   0.00002806   0.00006306          111.23        4.13        9.28
   0.00002806   0.00075293   0.00002347            4.13      110.76        3.45
   0.00006306   0.00002347   0.00046260            9.28        3.45       68.05


     Entering Dynamics:    iteration =     2
                           time      =   0.0004 pico-seconds


ATOMIC_POSITIONS (angstrom)
Hf            2.6699999570        2.8271230292        6.6039642186    0   0   0
Hf            1.2529906802        1.2862841814        5.0584662261    0   0   0
Hf            1.2554868986        7.3898042948        5.0880677674    0   0   0
Hf            4.0870092338        1.2862841814        5.0584662261    0   0   0
Hf            4.0845130154        7.3898042948        5.0880677674    0   0   0
Nb            2.6699999570        2.7969306055        3.5155832167    0   0   0
Nb            2.6699999570        5.8763786763        6.6349979432    0   0   0
Ta            1.2093730560        4.3409278516        5.0711258323    0   0   0
Ta            4.1306268580        4.3409278516        5.0711258323    0   0   0
Ta            1.3072503796        1.3141192146        2.0587727585
Ta            1.3027854636        1.3083874362        8.0945860679
Ta            1.3040073823        7.3758300584        2.0462309124
Ta            1.3077092884        7.3650861073        8.0860095835
Ta            4.0327498659        1.3141195294        2.0587727654
Ta            4.0372141333        1.3083869503        8.0945858137
Ta            4.0359927015        7.3758299487        2.0462314598
Ta            4.0322904934        7.3650872575        8.0860091065
Zr            2.6699994676        5.8662925608        3.5273809398
Zr            1.2438042781        4.3220769261        1.9999739020
Zr            1.2403549407        4.3541244505        8.1497810834
Zr            4.0961953839        4.3220763831        1.9999728087
Zr            4.0996488387        4.3541247673        8.1497789490
H             5.1228074852        4.8360834605        5.9316504516


     kinetic energy (Ekin) =           1.79752268 Ry
     temperature           =       13514.58975685 K 
     Ekin + Etot (const)   =       -2941.23014423 Ry
     Ions kinetic stress =           34.72 (kbar)
                                     52.15          26.08          45.08
                                     26.08          13.04          22.54
                                     45.08          22.54          38.97



     Writing config-only to output data dir outdir/pwscf.save/
     NEW-OLD atomic charge density approx. for the potential

     Check: negative core charge=   -0.000002

     negative rho (up, down):  9.095E-01 9.095E-01
     Generating pointlists ...
     new r_m :   0.0678 (alat units)  1.0941 (a.u.) for type    3
     new r_m :   0.0678 (alat units)  1.0941 (a.u.) for type    5

     total cpu time spent up to now is      360.7 secs

     Self-consistent Calculation

     iteration #  1     ecut=   120.00 Ry     beta= 0.70
     Davidson diagonalization with overlap
     ethr =  1.00E-06,  avg # of iterations = 14.0

     negative rho (up, down):  9.096E-01 9.096E-01

     total cpu time spent up to now is      391.4 secs

     total energy              =   -2942.93778269 Ry
     estimated scf accuracy    <       0.30658719 Ry

     total magnetization       =     0.10 Bohr mag/cell
     absolute magnetization    =     0.11 Bohr mag/cell

     iteration #  2     ecut=   120.00 Ry     beta= 0.70
     Davidson diagonalization with overlap
     ethr =  1.11E-04,  avg # of iterations =  2.0

     negative rho (up, down):  9.096E-01 9.096E-01

     total cpu time spent up to now is      405.3 secs

     total energy              =   -2942.95723873 Ry
     estimated scf accuracy    <       0.17877234 Ry

     total magnetization       =     0.10 Bohr mag/cell
     absolute magnetization    =     0.11 Bohr mag/cell

     iteration #  3     ecut=   120.00 Ry     beta= 0.70
     Davidson diagonalization with overlap
     ethr =  6.45E-05,  avg # of iterations =  1.5

     negative rho (up, down):  9.095E-01 9.095E-01

     total cpu time spent up to now is      418.8 secs

     total energy              =   -2942.96693121 Ry
     estimated scf accuracy    <       0.00442395 Ry

     total magnetization       =     0.10 Bohr mag/cell
     absolute magnetization    =     0.11 Bohr mag/cell

     iteration #  4     ecut=   120.00 Ry     beta= 0.70
     Davidson diagonalization with overlap
     ethr =  1.60E-06,  avg # of iterations =  9.5

     negative rho (up, down):  9.094E-01 9.094E-01

     total cpu time spent up to now is      435.6 secs

     total energy              =   -2942.96709136 Ry
     estimated scf accuracy    <       0.00205534 Ry

     total magnetization       =     0.10 Bohr mag/cell
     absolute magnetization    =     0.11 Bohr mag/cell

     iteration #  5     ecut=   120.00 Ry     beta= 0.70
     Davidson diagonalization with overlap
     ethr =  7.42E-07,  avg # of iterations =  1.0

     negative rho (up, down):  9.095E-01 9.095E-01

     Magnetic moment per site  (integrated on atomic sphere of radius R)
     atom   1 (R=0.122)  charge=  9.4630    0.0001
     atom   2 (R=0.122)  charge=  9.0545    0.0002
     atom   3 (R=0.122)  charge=  9.0552    0.0003
     atom   4 (R=0.122)  charge=  9.0574    0.0002
     atom   5 (R=0.122)  charge=  9.0594    0.0005
     atom   6 (R=0.120)  charge= 10.3474    0.0000
     atom   7 (R=0.120)  charge= 10.3519    0.0002
     atom   8 (R=0.068)  charge=  4.4920    0.0000
     atom   9 (R=0.068)  charge=  4.5144    0.0001
     atom  10 (R=0.068)  charge=  4.4744    0.0007
     atom  11 (R=0.068)  charge=  4.4741    0.0004
     atom  12 (R=0.068)  charge=  4.4717    0.0011
     atom  13 (R=0.068)  charge=  4.4753    0.0004
     atom  14 (R=0.068)  charge=  4.4743    0.0004
     atom  15 (R=0.068)  charge=  4.4740    0.0003
     atom  16 (R=0.068)  charge=  4.4717    0.0011
     atom  17 (R=0.068)  charge=  4.4749    0.0005
     atom  18 (R=0.119)  charge=  9.2645   -0.0001
     atom  19 (R=0.119)  charge=  8.8495    0.0031
     atom  20 (R=0.119)  charge=  8.8480    0.0010
     atom  21 (R=0.119)  charge=  8.8489    0.0026
     atom  22 (R=0.119)  charge=  8.8443    0.0008
     atom  23 (R=0.068)  charge=  0.8596    0.0000

     total cpu time spent up to now is      448.5 secs

     End of self-consistent calculation

 ------ SPIN UP ------------


          k = 0.0000 0.0000 0.0000 ( 56324 PWs)   bands (ev):

   -59.7727 -59.7681 -59.7245 -59.7223 -59.6928 -59.6796 -59.6462 -59.6423
   -59.4776 -59.0529 -53.3649 -53.3191 -53.2375 -53.1910 -51.6514 -45.2427
   -45.2404 -40.6291 -40.5952 -40.5195 -40.4906 -38.7783 -26.7692 -26.7646
   -26.6825 -26.6794 -26.5852 -26.5800 -26.4601 -26.4520 -26.3418 -26.3198
   -26.2792 -26.2509 -26.2506 -26.2166 -26.2066 -26.1543 -26.1494 -26.1142
   -26.0394 -25.9567 -25.9466 -25.9448 -25.9366 -25.9249 -25.8805 -25.8713
   -25.8489 -25.8474 -25.7718 -25.7209 -23.1478 -22.9369 -22.6367 -22.5516
   -22.2914 -22.1604 -22.1431 -22.0361 -21.9081 -21.8462 -21.8188 -21.6021
   -21.4921 -21.4396 -21.3730 -21.3328 -21.2541 -21.2097 -20.7220 -20.6495
   -20.5856 -19.1635 -18.9191 -18.8043 -18.7808 -18.6171 -18.5769 -18.5696
   -18.5555 -18.5311 -18.5055 -18.3415 -18.3307 -17.1279 -16.9164 -16.7938
     2.1996   3.1379   3.9441   4.1642   4.3266   4.4648   4.5295   4.7150
     4.7559   4.7643   4.9489   5.0475   5.2694   5.4977   5.6357   5.7083
     5.7476   5.9177   6.0624   6.1179   6.1847   6.2928   6.3024   6.3444
     6.3979   6.5751   6.6207   6.7352   6.7622   6.7659   6.7898   6.8520
     6.9605   7.0751   7.1753   7.2708   7.2820   7.3177   7.3791   7.3945
     7.4187   7.6473   7.6909   7.7641   7.9424   7.9892   8.0084   8.1184
     8.1786   8.1989   8.3044   8.3175   8.3788   8.4497   8.5415   8.5578
     8.6271   8.7038   8.8947   9.0169   9.1018   9.1178   9.2302   9.3196
     9.3546   9.3701   9.3724   9.4305   9.4657   9.6133   9.6789   9.7878
     9.8818   9.9747  10.0877  10.1164  10.2040  10.2837  10.3022

 ------ SPIN DOWN ----------


          k = 0.0000 0.0000 0.0000 ( 56324 PWs)   bands (ev):

   -59.7716 -59.7658 -59.7236 -59.7199 -59.6902 -59.6784 -59.6434 -59.6412
   -59.4774 -59.0527 -53.3648 -53.3189 -53.2373 -53.1909 -51.6514 -45.2425
   -45.2403 -40.6284 -40.5925 -40.5187 -40.4880 -38.7784 -26.7669 -26.7619
   -26.6789 -26.6778 -26.5826 -26.5778 -26.4583 -26.4483 -26.3407 -26.3178
   -26.2781 -26.2499 -26.2477 -26.2144 -26.2049 -26.1529 -26.1464 -26.1137
   -26.0388 -25.9550 -25.9447 -25.9428 -25.9347 -25.9222 -25.8788 -25.8675
   -25.8470 -25.8445 -25.7715 -25.7205 -23.1475 -22.9367 -22.6363 -22.5514
   -22.2912 -22.1601 -22.1428 -22.0358 -21.9079 -21.8459 -21.8187 -21.6020
   -21.4921 -21.4395 -21.3726 -21.3326 -21.2538 -21.2095 -20.7217 -20.6494
   -20.5855 -19.1608 -18.9184 -18.8015 -18.7784 -18.6168 -18.5759 -18.5667
   -18.5546 -18.5282 -18.5044 -18.3404 -18.3271 -17.1279 -16.9164 -16.7934
     2.2006   3.1394   3.9477   4.1653   4.3277   4.4661   4.5329   4.7159
     4.7579   4.7653   4.9523   5.0496   5.2711   5.4993   5.6375   5.7102
     5.7496   5.9200   6.0656   6.1199   6.1879   6.2948   6.3045   6.3463
     6.4012   6.5765   6.6220   6.7374   6.7647   6.7677   6.7919   6.8531
     6.9618   7.0779   7.1782   7.2727   7.2836   7.3209   7.3814   7.3960
     7.4217   7.6494   7.6930   7.7661   7.9450   7.9933   8.0145   8.1231
     8.1839   8.2077   8.3110   8.3214   8.3860   8.4576   8.5453   8.5659
     8.6314   8.7071   8.8975   9.0204   9.1070   9.1211   9.2337   9.3261
     9.3594   9.3726   9.3758   9.4343   9.4687   9.6169   9.6824   9.7903
     9.8848   9.9783  10.0932  10.1188  10.2060  10.2858  10.3042

     the Fermi energy is     8.2797 ev

!    total energy              =   -2942.96693556 Ry
     estimated scf accuracy    <       0.00030662 Ry
     smearing contrib. (-TS)   =      -0.10740682 Ry
     internal energy E=F+TS    =   -2942.85952874 Ry

     total magnetization       =     0.10 Bohr mag/cell
     absolute magnetization    =     0.10 Bohr mag/cell

     convergence has been achieved in   5 iterations

     negative rho (up, down):  9.095E-01 9.095E-01

     Forces acting on atoms (cartesian axes, Ry/au):

     atom    1 type  1   force =     0.00061765   -0.02055754    0.00669312
     atom    2 type  1   force =    -0.12345062   -0.01432296    0.00256447
     atom    3 type  1   force =    -0.12037659    0.01063144    0.00783998
     atom    4 type  1   force =     0.12076612   -0.01550369   -0.00114507
     atom    5 type  1   force =     0.12314145    0.01395401    0.00915289
     atom    6 type  2   force =    -0.00792793   -0.02056373    0.00059348
     atom    7 type  2   force =    -0.02468709    0.01322895   -0.00715944
     atom    8 type  3   force =    -0.12443005    0.00929473    0.00758258
     atom    9 type  3   force =    -0.13200734   -0.15026171   -0.24978163
     atom   10 type  3   force =    -0.02312442   -0.02854679   -0.05653332
     atom   11 type  3   force =    -0.02656129   -0.03373767    0.05551374
     atom   12 type  3   force =    -0.02171244    0.03304744   -0.05704214
     atom   13 type  3   force =    -0.01508879    0.02894788    0.05969471
     atom   14 type  3   force =     0.02491534   -0.02469136   -0.05678799
     atom   15 type  3   force =     0.02307195   -0.03759660    0.05321993
     atom   16 type  3   force =     0.02259676    0.03210668   -0.05164728
     atom   17 type  3   force =     0.01324655    0.03809329    0.05488690
     atom   18 type  4   force =    -0.00065408    0.02743633   -0.01084037
     atom   19 type  4   force =    -0.13651238   -0.00422822   -0.11571566
     atom   20 type  4   force =    -0.13874867    0.00483234    0.10884673
     atom   21 type  4   force =     0.13528669   -0.00653571   -0.12112082
     atom   22 type  4   force =     0.15187803    0.00671817    0.10150340
     atom   23 type  5   force =     0.27976115    0.13825472    0.25968178
     The non-local contrib.  to forces
     atom    1 type  1   force =     0.00113803   -0.01070378    0.03437699
     atom    2 type  1   force =    -0.24960997   -0.16424632    0.01810284
     atom    3 type  1   force =    -0.24568832    0.15618095   -0.01949625
     atom    4 type  1   force =     0.25019640   -0.16447622    0.02821759
     atom    5 type  1   force =     0.26021685    0.14452304   -0.00889981
     atom    6 type  2   force =     0.01287554   -0.06740497   -0.06408691
     atom    7 type  2   force =    -0.01169990    0.07386118    0.06068248
     atom    8 type  3   force =    -0.25217588    0.00294087    0.00061537
     atom    9 type  3   force =     0.15850183   -0.02915631   -0.05996634
     atom   10 type  3   force =    -0.22410891    0.00338030   -0.21653752
     atom   11 type  3   force =    -0.22501095    0.01677069    0.19727398
     atom   12 type  3   force =    -0.21322160   -0.02694619   -0.18184003
     atom   13 type  3   force =    -0.21152315   -0.01335871    0.20418658
     atom   14 type  3   force =     0.21984076    0.00971768   -0.22371761
     atom   15 type  3   force =     0.22671204    0.00528652    0.18802089
     atom   16 type  3   force =     0.20550454   -0.02359011   -0.18930418
     atom   17 type  3   force =     0.22797485   -0.01207614    0.18872220
     atom   18 type  4   force =    -0.00387758    0.06752158   -0.05986479
     atom   19 type  4   force =     0.06516366    0.00869693    0.07506004
     atom   20 type  4   force =     0.05599586   -0.01559867   -0.06254486
     atom   21 type  4   force =    -0.06309346    0.01496099    0.07099799
     atom   22 type  4   force =    -0.05607888   -0.01015946   -0.07158667
     atom   23 type  5   force =    -0.08127804   -0.04276223   -0.06433354
     The ionic contribution  to forces
     atom    1 type  1   force =    -0.37352375   -4.90054269   14.29568254
     atom    2 type  1   force =   -35.69180795   -6.19340106    0.72284562
     atom    3 type  1   force =   -35.69422391    6.24148456   -0.78440470
     atom    4 type  1   force =    35.53939790   -6.34766516    0.66233282
     atom    5 type  1   force =    35.37540619    6.69962855   -0.94618031
     atom    6 type  2   force =    -0.18455966   -3.69711585  -14.32153297
     atom    7 type  2   force =    -0.71139021    3.89271618   14.34856179
     atom    8 type  3   force =   -47.68832794    0.01261484   -0.18717507
     atom    9 type  3   force =    45.00351021   -1.20928938   -2.31464311
     atom   10 type  3   force =   -32.20237915   -2.11361085  -23.46934102
     atom   11 type  3   force =   -31.28682985   -0.88742076   22.51215505
     atom   12 type  3   force =   -31.39058049    0.83498263  -22.53376465
     atom   13 type  3   force =   -32.20931981    2.27144762   23.51880444
     atom   14 type  3   force =    32.14385076   -2.13882233  -23.51221381
     atom   15 type  3   force =    31.16841243   -0.97612411   22.60437941
     atom   16 type  3   force =    31.31403449    0.88397412  -22.60446680
     atom   17 type  3   force =    32.00705632    2.48603150   23.71922062
     atom   18 type  4   force =    -0.25515685    4.46464060  -14.34076841
     atom   19 type  4   force =   -32.19068641    0.94155112  -25.94406151
     atom   20 type  4   force =   -32.20903265   -0.99263487   26.00758258
     atom   21 type  4   force =    32.08508553    0.91935148  -26.08609155
     atom   22 type  4   force =    31.73370355   -1.14985763   26.73432073
     atom   23 type  5   force =     5.71736125    0.95806148    1.91875830
     The local contribution  to forces
     atom    1 type  1   force =     0.37373996    4.88846800  -14.31990662
     atom    2 type  1   force =    35.82379152    6.34677282   -0.72177647
     atom    3 type  1   force =    35.82726750   -6.39215077    0.83161066
     atom    4 type  1   force =   -35.67259306    6.50139296   -0.67691834
     atom    5 type  1   force =   -35.51918336   -6.83451027    0.98205258
     atom    6 type  2   force =     0.16552909    3.74703094   14.40330991
     atom    7 type  2   force =     0.69722526   -3.94793280  -14.41205298
     atom    8 type  3   force =    47.83911362   -0.00591657    0.20944714
     atom    9 type  3   force =   -45.30110669    1.09342795    2.15173318
     atom   10 type  3   force =    32.42026555    2.07763412   23.64944337
     atom   11 type  3   force =    31.50468813    0.82240962  -22.68408706
     atom   12 type  3   force =    31.59909181   -0.76897917   22.67811913
     atom   13 type  3   force =    32.42144827   -2.21601831  -23.69251597
     atom   14 type  3   force =   -32.35585077    2.10214390   23.70102473
     atom   15 type  3   force =   -31.38957940    0.92044729  -22.76645526
     atom   16 type  3   force =   -31.51490218   -0.82334885   22.76370880
     atom   17 type  3   force =   -32.23933846   -2.42271912  -23.88150166
     atom   18 type  4   force =     0.25907870   -4.50771342   14.40705373
     atom   19 type  4   force =    31.99428578   -0.95479217   25.76977235
     atom   20 type  4   force =    32.01267359    1.01396424  -25.85696445
     atom   21 type  4   force =   -31.89114641   -0.94140694   25.91274149
     atom   22 type  4   force =   -31.52556249    1.16535405  -26.58286490
     atom   23 type  5   force =    -5.35589289   -0.77730710   -1.59332396
     The core correction contribution to forces
     atom    1 type  1   force =     0.00131193    0.00113410   -0.00082417
     atom    2 type  1   force =    -0.01183753   -0.00174482    0.00031759
     atom    3 type  1   force =    -0.01263901    0.00230692   -0.00181347
     atom    4 type  1   force =     0.01169860   -0.00209358    0.00272010
     atom    5 type  1   force =     0.01271710    0.00166511   -0.00054515
     atom    6 type  2   force =    -0.00032187    0.00370242    0.00311753
     atom    7 type  2   force =     0.00066778   -0.00366078   -0.00219167
     atom    8 type  3   force =    -0.02933765    0.00078418    0.00063085
     atom    9 type  3   force =     0.01336896   -0.00540198   -0.01303875
     atom   10 type  3   force =    -0.02208924    0.00859728   -0.01572001
     atom   11 type  3   force =    -0.02547352    0.00921073    0.01865989
     atom   12 type  3   force =    -0.02204663   -0.01026285   -0.01496805
     atom   13 type  3   force =    -0.02240104   -0.00956741    0.01610365
     atom   14 type  3   force =     0.02240383    0.00821152   -0.01683051
     atom   15 type  3   force =     0.02459683    0.00944480    0.01454250
     atom   16 type  3   force =     0.02245018   -0.00968427   -0.01592811
     atom   17 type  3   force =     0.02319201   -0.00839008    0.01511234
     atom   18 type  4   force =     0.00034033   -0.00357837    0.00303636
     atom   19 type  4   force =    -0.00996736    0.00008481   -0.00974299
     atom   20 type  4   force =    -0.00960497    0.00049056    0.00897118
     atom   21 type  4   force =     0.00980581   -0.00023137   -0.00956275
     atom   22 type  4   force =     0.00996470    0.00047364    0.00905437
     atom   23 type  5   force =     0.00000000    0.00000000    0.00000000
     The Hubbard contrib.    to forces
     atom    1 type  1   force =     0.00000000    0.00000000    0.00000000
     atom    2 type  1   force =     0.00000000    0.00000000    0.00000000
     atom    3 type  1   force =     0.00000000    0.00000000    0.00000000
     atom    4 type  1   force =     0.00000000    0.00000000    0.00000000
     atom    5 type  1   force =     0.00000000    0.00000000    0.00000000
     atom    6 type  2   force =     0.00000000    0.00000000    0.00000000
     atom    7 type  2   force =     0.00000000    0.00000000    0.00000000
     atom    8 type  3   force =     0.00000000    0.00000000    0.00000000
     atom    9 type  3   force =     0.00000000    0.00000000    0.00000000
     atom   10 type  3   force =     0.00000000    0.00000000    0.00000000
     atom   11 type  3   force =     0.00000000    0.00000000    0.00000000
     atom   12 type  3   force =     0.00000000    0.00000000    0.00000000
     atom   13 type  3   force =     0.00000000    0.00000000    0.00000000
     atom   14 type  3   force =     0.00000000    0.00000000    0.00000000
     atom   15 type  3   force =     0.00000000    0.00000000    0.00000000
     atom   16 type  3   force =     0.00000000    0.00000000    0.00000000
     atom   17 type  3   force =     0.00000000    0.00000000    0.00000000
     atom   18 type  4   force =     0.00000000    0.00000000    0.00000000
     atom   19 type  4   force =     0.00000000    0.00000000    0.00000000
     atom   20 type  4   force =     0.00000000    0.00000000    0.00000000
     atom   21 type  4   force =     0.00000000    0.00000000    0.00000000
     atom   22 type  4   force =     0.00000000    0.00000000    0.00000000
     atom   23 type  5   force =     0.00000000    0.00000000    0.00000000
     The SCF correction term to forces
     atom    1 type  1   force =    -0.00000000    0.00000000   -0.00000000
     atom    2 type  1   force =     0.00000000   -0.00000000   -0.00000000
     atom    3 type  1   force =     0.00000000    0.00000000   -0.00000000
     atom    4 type  1   force =    -0.00000000   -0.00000000   -0.00000000
     atom    5 type  1   force =    -0.00000000    0.00000000   -0.00000000
     atom    6 type  2   force =    -0.00000000   -0.00000000   -0.00000000
     atom    7 type  2   force =     0.00000000   -0.00000000   -0.00000000
     atom    8 type  3   force =     0.00000000   -0.00000000   -0.00000000
     atom    9 type  3   force =    -0.00000000    0.00000000   -0.00000000
     atom   10 type  3   force =     0.00528779   -0.00457651   -0.00330278
     atom   11 type  3   force =     0.00616535    0.00526319    0.01258725
     atom   12 type  3   force =     0.00514492    0.00422415   -0.00351318
     atom   13 type  3   force =     0.00680739   -0.00358418    0.01419138
     atom   14 type  3   force =    -0.00522879   -0.00597100   -0.00397543
     atom   15 type  3   force =    -0.00696951    0.00332003    0.01380774
     atom   16 type  3   force =    -0.00438982    0.00472692   -0.00458163
     atom   17 type  3   force =    -0.00553772   -0.00478173    0.01440877
     atom   18 type  4   force =    -0.00093824    0.00653708   -0.01922189
     atom   19 type  4   force =     0.00479241    0.00020223   -0.00566818
     atom   20 type  4   force =     0.01131996   -0.00141779    0.01287764
     atom   21 type  4   force =    -0.00526433    0.00076126   -0.00813064
     atom   22 type  4   force =    -0.01004840    0.00087870    0.01365523
     atom   23 type  5   force =    -0.00032872    0.00023370   -0.00034366

     Total force =     0.576439     Total SCF correction =     0.049001


     Computing stress (Cartesian axis) and pressure


     negative rho (up, down):  9.095E-01 9.095E-01
          total   stress  (Ry/bohr**3)                   (kbar)     P=       99.12
   0.00076698   0.00004383   0.00008947          112.83        6.45       13.16
   0.00004383   0.00075979   0.00003667            6.45      111.77        5.39
   0.00008947   0.00003667   0.00049455           13.16        5.39       72.75


     Entering Dynamics:    iteration =     3
                           time      =   0.0006 pico-seconds


ATOMIC_POSITIONS (angstrom)
Hf            2.6699999570        2.8271230292        6.6039642186    0   0   0
Hf            1.2529906802        1.2862841814        5.0584662261    0   0   0
[...]
     4.7534   4.7570   4.9508   5.0469   5.2720   5.4994   5.6291   5.7101
     5.7461   5.9230   6.0625   6.1186   6.1844   6.2891   6.3017   6.3447
     6.3981   6.5742   6.6150   6.7352   6.7610   6.7675   6.7887   6.8521
     6.9609   7.0710   7.1748   7.2671   7.2857   7.3174   7.3775   7.3958
     7.4239   7.6475   7.6905   7.7633   7.9426   7.9876   8.0102   8.1177
     8.1799   8.2019   8.3049   8.3183   8.3886   8.4501   8.5430   8.5614
     8.6272   8.7020   8.8962   9.0190   9.1065   9.1207   9.2287   9.3232
     9.3562   9.3712   9.3727   9.4332   9.4687   9.6103   9.6777   9.7889
     9.8763   9.9712  10.0890  10.1168  10.2031  10.2807  10.3007

     the Fermi energy is     8.2780 ev

!    total energy              =   -2942.98214711 Ry
     estimated scf accuracy    <       0.00057561 Ry
     smearing contrib. (-TS)   =      -0.10719218 Ry
     internal energy E=F+TS    =   -2942.87495494 Ry

     total magnetization       =     0.02 Bohr mag/cell
     absolute magnetization    =     0.02 Bohr mag/cell

     convergence has been achieved in   4 iterations

     negative rho (up, down):  9.094E-01 9.094E-01

     Forces acting on atoms (cartesian axes, Ry/au):

     atom    1 type  1   force =     0.00095114   -0.01711500    0.00331066
     atom    2 type  1   force =    -0.12173407   -0.01451942   -0.01076372
     atom    3 type  1   force =    -0.11893423    0.01081430   -0.00597192
     atom    4 type  1   force =     0.11865914   -0.01479782   -0.01435428
     atom    5 type  1   force =     0.12102201    0.01401104   -0.00475673
     atom    6 type  2   force =    -0.00795434   -0.02011385    0.00196716
     atom    7 type  2   force =    -0.02472525    0.01187920   -0.00373546
     atom    8 type  3   force =    -0.12142441    0.00890152    0.00368393
     atom    9 type  3   force =    -0.11538846   -0.14149744   -0.24489296
     atom   10 type  3   force =    -0.02297699   -0.03161489   -0.05339992
     atom   11 type  3   force =    -0.02506712   -0.03220724    0.06271014
     atom   12 type  3   force =    -0.02111020    0.03510753   -0.05372489
     atom   13 type  3   force =    -0.01389443    0.02707578    0.06691450
     atom   14 type  3   force =     0.02430315   -0.02679070   -0.05297974
     atom   15 type  3   force =     0.02145982   -0.03577762    0.05995715
     atom   16 type  3   force =     0.02132563    0.03373175   -0.04786199
     atom   17 type  3   force =     0.01174502    0.03658341    0.06202680
     atom   18 type  4   force =    -0.00120385    0.02740410   -0.01320490
     atom   19 type  4   force =    -0.13540324   -0.00377247   -0.11248121
     atom   20 type  4   force =    -0.13385365    0.00493969    0.11369787
     atom   21 type  4   force =     0.13400963   -0.00657524   -0.11703413
     atom   22 type  4   force =     0.14863896    0.00641838    0.10354560
     atom   23 type  5   force =     0.26155574    0.12791498    0.25734805
     The non-local contrib.  to forces
     atom    1 type  1   force =     0.00146034   -0.01047417    0.02900622
     atom    2 type  1   force =    -0.24950827   -0.16439493    0.01015585
     atom    3 type  1   force =    -0.24559894    0.15646104   -0.02771235
     atom    4 type  1   force =     0.24949658   -0.16390109    0.02094325
     atom    5 type  1   force =     0.25944614    0.14395960   -0.01583143
     atom    6 type  2   force =     0.01264649   -0.06756855   -0.06292147
     atom    7 type  2   force =    -0.01150671    0.07555485    0.05931086
     atom    8 type  3   force =    -0.25060319    0.00291718   -0.00437281
     atom    9 type  3   force =     0.15513852   -0.03000527   -0.06882681
     atom   10 type  3   force =    -0.22248504    0.00083376   -0.21495361
     atom   11 type  3   force =    -0.22568999    0.01739536    0.20051926
     atom   12 type  3   force =    -0.21115427   -0.02470062   -0.18029066
     atom   13 type  3   force =    -0.21253053   -0.01376880    0.20801538
     atom   14 type  3   force =     0.21855123    0.00789792   -0.22226175
     atom   15 type  3   force =     0.22762487    0.00675024    0.19032482
     atom   16 type  3   force =     0.20331970   -0.02184245   -0.18817061
     atom   17 type  3   force =     0.22910566   -0.01328478    0.19012605
     atom   18 type  4   force =    -0.00386937    0.06866422   -0.06352765
     atom   19 type  4   force =     0.06399260    0.00918827    0.07466307
     atom   20 type  4   force =     0.05723138   -0.01591497   -0.05925105
     atom   21 type  4   force =    -0.06299286    0.01553359    0.07086991
     atom   22 type  4   force =    -0.05646762   -0.01053073   -0.07059929
     atom   23 type  5   force =    -0.07807221   -0.04116420   -0.06304811
     The ionic contribution  to forces
     atom    1 type  1   force =    -0.37902129   -4.86556252   14.31090967
     atom    2 type  1   force =   -35.67949446   -6.18341633    0.72159993
     atom    3 type  1   force =   -35.68352964    6.23109598   -0.78440449
     atom    4 type  1   force =    35.52758089   -6.33751143    0.65876775
     atom    5 type  1   force =    35.36891775    6.68356187   -0.94994420
     atom    6 type  2   force =    -0.18192903   -3.64704776  -14.34009877
     atom    7 type  2   force =    -0.72195696    3.85423440   14.35876318
     atom    8 type  3   force =   -47.65674731    0.01491612   -0.19463153
     atom    9 type  3   force =    45.05644728   -1.16406955   -2.34157226
     atom   10 type  3   force =   -32.18056748   -2.09145601  -23.43172892
     atom   11 type  3   force =   -31.26640795   -0.86626822   22.47599912
     atom   12 type  3   force =   -31.37294923    0.81478895  -22.49944326
     atom   13 type  3   force =   -32.18881852    2.25204981   23.48275091
     atom   14 type  3   force =    32.12257176   -2.11786135  -23.47404559
     atom   15 type  3   force =    31.14571668   -0.95712942   22.56937129
     atom   16 type  3   force =    31.29832813    0.86405634  -22.56835245
     atom   17 type  3   force =    31.98333056    2.47195745   23.68503972
     atom   18 type  4   force =    -0.24942255    4.41013020  -14.35294438
     atom   19 type  4   force =   -32.13382978    0.94030241  -25.85579012
     atom   20 type  4   force =   -32.15528708   -0.99187995   25.92481312
     atom   21 type  4   force =    32.02867697    0.91918516  -25.99186858
     atom   22 type  4   force =    31.66679750   -1.15519117   26.67488176
     atom   23 type  5   force =     5.65159375    0.92111503    1.92192809
     The local contribution  to forces
     atom    1 type  1   force =     0.37990513    4.86428562  -14.35545482
     atom    2 type  1   force =    35.81860981    6.33623475   -0.77283062
     atom    3 type  1   force =    35.82161191   -6.38078705    0.77701389
     atom    4 type  1   force =   -35.66977454    6.49334545   -0.72621056
     atom    5 type  1   force =   -35.52041824   -6.81868237    0.93026647
     atom    6 type  2   force =     0.16389537    3.69229734   14.38912440
     atom    7 type  2   force =     0.70713767   -3.92310301  -14.44432878
     atom    8 type  3   force =    47.81979741   -0.00951356    0.17110772
     atom    9 type  3   force =   -45.34112545    1.05516902    2.14562312
     atom   10 type  3   force =    32.39708106    2.03846380   23.61331725
     atom   11 type  3   force =    31.49339697    0.80951004  -22.62120954
     atom   12 type  3   force =    31.57966660   -0.73742721   22.64548495
     atom   13 type  3   force =    32.40876672   -2.20514855  -23.62914339
     atom   14 type  3   force =   -32.33856285    2.07000478   23.66841359
     atom   15 type  3   force =   -31.37972547    0.91299596  -22.70614556
     atom   16 type  3   force =   -31.50554583   -0.79385325   22.73265286
     atom   17 type  3   force =   -32.23011064   -2.41684245  -23.81927689
     atom   18 type  4   force =     0.25058790   -4.44629396   14.38515929
     atom   19 type  4   force =    31.93856061   -0.95054124   25.68453293
     atom   20 type  4   force =    31.97601991    1.01340652  -25.75437600
     atom   21 type  4   force =   -31.83782234   -0.94118678   25.82481743
     atom   22 type  4   force =   -31.47215920    1.16942489  -26.51048138
     atom   23 type  5   force =    -5.31120222   -0.75222278   -1.60505800
     The core correction contribution to forces
     atom    1 type  1   force =     0.00133854    0.00119907   -0.00082900
     atom    2 type  1   force =    -0.01188049   -0.00177811    0.00027844
     atom    3 type  1   force =    -0.01261661    0.00229941   -0.00182098
     atom    4 type  1   force =     0.01175729   -0.00206583    0.00270856
     atom    5 type  1   force =     0.01279518    0.00147271   -0.00046423
     atom    6 type  2   force =    -0.00033436    0.00369442    0.00301211
     atom    7 type  2   force =     0.00070072   -0.00374248   -0.00215318
     atom    8 type  3   force =    -0.02933453    0.00078533    0.00063024
     atom    9 type  3   force =     0.01359513   -0.00516745   -0.01301420
     atom   10 type  3   force =    -0.02191855    0.00863051   -0.01557211
     atom   11 type  3   force =    -0.02550628    0.00926949    0.01866820
     atom   12 type  3   force =    -0.02177401   -0.01022060   -0.01478134
     atom   13 type  3   force =    -0.02244097   -0.00961059    0.01616771
     atom   14 type  3   force =     0.02216409    0.00818814   -0.01671872
     atom   15 type  3   force =     0.02475772    0.00943133    0.01453268
     atom   16 type  3   force =     0.02220471   -0.00956542   -0.01583435
     atom   17 type  3   force =     0.02343633   -0.00846211    0.01506918
     atom   18 type  4   force =     0.00031707   -0.00359771    0.00301600
     atom   19 type  4   force =    -0.00993350    0.00007087   -0.00972216
     atom   20 type  4   force =    -0.00957132    0.00050832    0.00891177
     atom   21 type  4   force =     0.00981531   -0.00026059   -0.00953840
     atom   22 type  4   force =     0.00988444    0.00048678    0.00908812
     atom   23 type  5   force =     0.00000000    0.00000000    0.00000000
     The Hubbard contrib.    to forces
     atom    1 type  1   force =     0.00000000    0.00000000    0.00000000
     atom    2 type  1   force =     0.00000000    0.00000000    0.00000000
     atom    3 type  1   force =     0.00000000    0.00000000    0.00000000
     atom    4 type  1   force =     0.00000000    0.00000000    0.00000000
     atom    5 type  1   force =     0.00000000    0.00000000    0.00000000
     atom    6 type  2   force =     0.00000000    0.00000000    0.00000000
     atom    7 type  2   force =     0.00000000    0.00000000    0.00000000
     atom    8 type  3   force =     0.00000000    0.00000000    0.00000000
     atom    9 type  3   force =     0.00000000    0.00000000    0.00000000
     atom   10 type  3   force =     0.00000000    0.00000000    0.00000000
     atom   11 type  3   force =     0.00000000    0.00000000    0.00000000
     atom   12 type  3   force =     0.00000000    0.00000000    0.00000000
     atom   13 type  3   force =     0.00000000    0.00000000    0.00000000
     atom   14 type  3   force =     0.00000000    0.00000000    0.00000000
     atom   15 type  3   force =     0.00000000    0.00000000    0.00000000
     atom   16 type  3   force =     0.00000000    0.00000000    0.00000000
     atom   17 type  3   force =     0.00000000    0.00000000    0.00000000
     atom   18 type  4   force =     0.00000000    0.00000000    0.00000000
     atom   19 type  4   force =     0.00000000    0.00000000    0.00000000
     atom   20 type  4   force =     0.00000000    0.00000000    0.00000000
     atom   21 type  4   force =     0.00000000    0.00000000    0.00000000
     atom   22 type  4   force =     0.00000000    0.00000000    0.00000000
     atom   23 type  5   force =     0.00000000    0.00000000    0.00000000
     The SCF correction term to forces
     atom    1 type  1   force =    -0.00000000   -0.00000000    0.00000000
     atom    2 type  1   force =     0.00000000   -0.00000000    0.00000000
     atom    3 type  1   force =     0.00000000    0.00000000    0.00000000
     atom    4 type  1   force =    -0.00000000   -0.00000000    0.00000000
     atom    5 type  1   force =     0.00000000    0.00000000    0.00000000
     atom    6 type  2   force =    -0.00000000   -0.00000000    0.00000000
     atom    7 type  2   force =     0.00000000    0.00000000    0.00000000
     atom    8 type  3   force =    -0.00000000   -0.00000000    0.00000000
     atom    9 type  3   force =     0.00000000    0.00000000    0.00000000
     atom   10 type  3   force =     0.00489317    0.01198958   -0.00614886
     atom   11 type  3   force =    -0.00087972   -0.00203739   -0.01295324
     atom   12 type  3   force =     0.00508086   -0.00725646   -0.00638092
     atom   13 type  3   force =     0.00110901    0.00363044   -0.01256245
     atom   14 type  3   force =    -0.00044094    0.00505633   -0.01005360
     atom   15 type  3   force =     0.00306617   -0.00774919   -0.00981243
     atom   16 type  3   force =     0.00299907   -0.00498694   -0.00984379
     atom   17 type  3   force =     0.00596326    0.00329183   -0.01061760
     atom   18 type  4   force =     0.00116325   -0.00142213    0.01340550
     atom   19 type  4   force =     0.00578698   -0.00271626   -0.00785127
     atom   20 type  4   force =    -0.00226640   -0.00110370   -0.00808631
     atom   21 type  4   force =    -0.00368732    0.00022991   -0.01300083
     atom   22 type  4   force =     0.00056399    0.00230515   -0.00102995
     atom   23 type  5   force =    -0.00078344    0.00026346    0.00183973

     Total force =     0.562988     Total SCF correction =     0.042460


     Computing stress (Cartesian axis) and pressure


     negative rho (up, down):  9.094E-01 9.094E-01
          total   stress  (Ry/bohr**3)                   (kbar)     P=       98.45
   0.00076427   0.00004022   0.00008806          112.43        5.92       12.95
   0.00004022   0.00075519   0.00003584            5.92      111.09        5.27
   0.00008806   0.00003584   0.00048826           12.95        5.27       71.83


     Entering Dynamics:    iteration =    20
                           time      =   0.0041 pico-seconds


ATOMIC_POSITIONS (angstrom)
Hf            2.6699999570        2.8271230292        6.6039642186    0   0   0
Hf            1.2529906802        1.2862841814        5.0584662261    0   0   0
Hf            1.2554868986        7.3898042948        5.0880677674    0   0   0
Hf            4.0870092338        1.2862841814        5.0584662261    0   0   0
Hf            4.0845130154        7.3898042948        5.0880677674    0   0   0
Nb            2.6699999570        2.7969306055        3.5155832167    0   0   0
Nb            2.6699999570        5.8763786763        6.6349979432    0   0   0
Ta            1.2093730560        4.3409278516        5.0711258323    0   0   0
Ta            4.1306268580        4.3409278516        5.0711258323    0   0   0
Ta            1.3069710211        1.3137687299        2.0581633814
Ta            1.3024987684        1.3080039771        8.0952335689
Ta            1.3037815499        7.3762183655        2.0455993083
Ta            1.3075394386        7.3654034576        8.0866995857
Ta            4.0330033625        1.3138473876        2.0581488259
Ta            4.0374665290        1.3079934373        8.0952224296
Ta            4.0362276191        7.3761924485        2.0456509126
Ta            4.0324439824        7.3654565112        8.0866427782
Zr            2.6700315219        5.8668713267        3.5271230750
Zr            1.2407904010        4.3219893252        1.9974079019
Zr            1.2373200936        4.3542111190        8.1522600719
Zr            4.0992013522        4.3219570779        1.9972102745
Zr            4.1028530527        4.3542495668        8.1522250962
H             5.1815098626        4.8651182383        6.0258376422


     kinetic energy (Ekin) =           1.75228915 Ry
     temperature           =       13174.50355413 K 
     Ekin + Etot (const)   =       -2941.22985796 Ry
     Ions kinetic stress =           33.85 (kbar)
                                     47.70          23.73          44.59
                                     23.73          11.86          22.26
                                     44.59          22.26          41.98



     The maximum number of steps has been reached.

     End of molecular dynamics calculation

     diffusion coefficients :
     atom     1   D =       0.00000000 cm^2/s
     atom     2   D =       0.00000000 cm^2/s
     atom     3   D =       0.00000000 cm^2/s
     atom     4   D =       0.00000000 cm^2/s
     atom     5   D =       0.00000000 cm^2/s
     atom     6   D =       0.00000000 cm^2/s
     atom     7   D =       0.00000000 cm^2/s
     atom     8   D =       0.00000000 cm^2/s
     atom     9   D =       0.00000000 cm^2/s
     atom    10   D =       0.00000000 cm^2/s
     atom    11   D =       0.00000000 cm^2/s
     atom    12   D =       0.00000000 cm^2/s
     atom    13   D =       0.00000000 cm^2/s
     atom    14   D =       0.00000000 cm^2/s
     atom    15   D =       0.00000000 cm^2/s
     atom    16   D =       0.00000000 cm^2/s
     atom    17   D =       0.00000000 cm^2/s
     atom    18   D =       0.00000000 cm^2/s
     atom    19   D =       0.00000007 cm^2/s
     atom    20   D =       0.00000006 cm^2/s
     atom    21   D =       0.00000007 cm^2/s
     atom    22   D =       0.00000007 cm^2/s
     atom    23   D =       0.00003612 cm^2/s

     < D > =       0.00000260 cm^2/s

     Writing all to output data dir outdir/pwscf.save/

     init_run     :      9.76s CPU     10.70s WALL (       1 calls)
     electrons    :   1423.16s CPU   1829.15s WALL (      20 calls)
     update_pot   :     17.88s CPU     20.28s WALL (      19 calls)
     forces       :    169.16s CPU    222.56s WALL (      20 calls)
     stress       :    277.70s CPU    339.33s WALL (      20 calls)

     Called by init_run:
     wfcinit      :      7.34s CPU      8.04s WALL (       1 calls)
     potinit      :      0.43s CPU      0.45s WALL (       1 calls)
     hinit0       :      0.94s CPU      1.01s WALL (       1 calls)

     Called by electrons:
     c_bands      :   1131.33s CPU   1459.80s WALL (     100 calls)
     sum_band     :    192.55s CPU    238.47s WALL (     100 calls)
     v_of_rho     :      8.73s CPU     10.93s WALL (     120 calls)
     newd         :    113.90s CPU    146.76s WALL (     120 calls)
     mix_rho      :      0.72s CPU      1.07s WALL (     100 calls)

     Called by c_bands:
     init_us_2    :      3.24s CPU      3.40s WALL (     482 calls)
     init_us_2:cp :      3.24s CPU      3.39s WALL (     482 calls)
     regterg      :   1120.43s CPU   1446.25s WALL (     200 calls)

     Called by *egterg:
     rdiaghg      :     41.91s CPU     54.33s WALL (    1156 calls)
     h_psi        :    554.28s CPU    642.03s WALL (    1196 calls)
     s_psi        :    165.79s CPU    166.40s WALL (    1196 calls)
     g_psi        :      0.41s CPU      0.47s WALL (     994 calls)

     Called by h_psi:
     h_psi:calbec :    260.83s CPU    331.61s WALL (    1196 calls)
     vloc_psi     :     65.57s CPU     81.27s WALL (    1196 calls)
     add_vuspsi   :    226.92s CPU    228.14s WALL (    1196 calls)

     General routines
     calbec       :    483.89s CPU    643.05s WALL (    1596 calls)
     fft          :      8.04s CPU     24.13s WALL (    2499 calls)
     ffts         :      0.18s CPU      0.24s WALL (     100 calls)
     fftw         :     70.98s CPU     88.55s WALL (  102598 calls)

     Parallel routines

     PWSCF        :  32m 1.92s CPU  40m51.30s WALL


   This run was terminated on:  22:28:53  11Jun2023            

=------------------------------------------------------------------------------=
   JOB DONE.
=------------------------------------------------------------------------------=
