
     Program PWSCF v.7.2 starts on 11Jun2023 at 19:52:14 

     This program is part of the open-source Quantum ESPRESSO suite
     for quantum simulation of materials; please cite
         "P. Giannozzi et al., J. Phys.:Condens. Matter 21 395502 (2009);
         "P. Giannozzi et al., J. Phys.:Condens. Matter 29 465901 (2017);
         "P. Giannozzi et al., J. Chem. Phys. 152 154105 (2020);
          URL http://www.quantum-espresso.org", 
     in publications or presentations arising from this work. More details at
     http://www.quantum-espresso.org/quote

     Parallel version (MPI), running on    42 processors

     MPI processes distributed on     1 nodes
     185633 MiB available memory on the printing compute node when the environment starts

     Reading input from md_data/md_Hf5Nb2Ta10Zr5H_20steps_100eV_incident45_polar180.in
Warning: card &CELL ignored
Warning: card / ignored

     Current dimensions of program PWSCF are:
     Max number of different atomic species (ntypx) = 10
     Max number of k-points (npk) =  40000
     Max angular momentum in pseudopotentials (lmaxx) =  4

     File outdir/pwscf.md deleted, as requested

     gamma-point specific algorithms are used

     R & G space division:  proc/nbgrp/npool/nimage =      42
     Subspace diagonalization in iterative solution of the eigenvalue problem:
     one sub-group per band group will be used
     custom distributed-memory algorithm (size of sub-group:  2*  2 procs)


     Parallelization info
     --------------------
     sticks:   dense  smooth     PW     G-vecs:    dense   smooth      PW
     Min         239     239     59                21459    21459    2676
     Max         242     242     62                21470    21470    2688
     Sum       10131   10131   2529               901547   901547  112647

     Using Slab Decomposition



     bravais-lattice index     =            0
     lattice parameter (alat)  =      16.1383  a.u.
     unit-cell volume          =    5077.2634 (a.u.)^3
     number of atoms/cell      =           23
     number of atomic types    =            5
     number of electrons       =       277.00
     number of Kohn-Sham states=          167
     kinetic-energy cutoff     =     120.0000  Ry
     charge density cutoff     =     480.0000  Ry
     scf convergence threshold =      1.0E-03
     mixing beta               =       0.7000
     number of iterations used =            8  TF        mixing
     energy convergence thresh.=      0.0E+00
     force convergence thresh. =      0.0E+00
     Exchange-correlation=  SLA  PW   PBX  PBC
                           (   1   4   3   4   0   0   0)
     nstep                     =           20


     celldm(1)=  16.138261  celldm(2)=   0.000000  celldm(3)=   0.000000
     celldm(4)=   0.000000  celldm(5)=   0.000000  celldm(6)=   0.000000

     crystal axes: (cart. coord. in units of alat)
               a(1) = (   1.000000   0.000000   0.000000 )  
               a(2) = (   0.000000   1.016393   0.000000 )  
               a(3) = (   0.000000   0.000000   1.188496 )  

     reciprocal axes: (cart. coord. in units 2 pi/alat)
               b(1) = (  1.000000  0.000000  0.000000 )  
               b(2) = (  0.000000  0.983871  0.000000 )  
               b(3) = (  0.000000  0.000000  0.841400 )  


     PseudoPot. # 1 for Hf read from file:
     q-e/pseudo/hf_pbe_v1.uspp.F.UPF
     MD5 check sum: 8ee9378dfe14276e333edf04c5e4aa26
     Pseudo is Ultrasoft + core correction, Zval = 12.0
     Generated by new atomic code, or converted to UPF format
     Using radial grid of  921 points,  8 beta functions with: 
                l(1) =   0
                l(2) =   0
                l(3) =   0
                l(4) =   1
                l(5) =   1
                l(6) =   2
                l(7) =   2
                l(8) =   3
     Q(r) pseudized with  6 coefficients,  rinner =    1.200   1.200   1.200
                                                       1.200   1.200   1.200
                                                       1.200

     PseudoPot. # 2 for Nb read from file:
     q-e/pseudo/nb_pbe_v1.uspp.F.UPF
     MD5 check sum: 573aab8a2fa660278ed4a62cd769473f
     Pseudo is Ultrasoft + core correction, Zval = 13.0
     Generated by new atomic code, or converted to UPF format
     Using radial grid of  887 points,  6 beta functions with: 
                l(1) =   0
                l(2) =   0
                l(3) =   1
                l(4) =   1
                l(5) =   2
                l(6) =   2
     Q(r) pseudized with  6 coefficients,  rinner =    1.000   1.000   1.000
                                                       1.000   1.000

     PseudoPot. # 3 for Ta read from file:
     q-e/pseudo/ta_pbe_v1.uspp.F.UPF
     MD5 check sum: f8bbe9446314a3b8ea5d9f3e3836c939
     Pseudo is Ultrasoft + core correction, Zval = 13.0
     Generated by new atomic code, or converted to UPF format
     Using radial grid of  921 points,  7 beta functions with: 
                l(1) =   0
                l(2) =   0
                l(3) =   1
                l(4) =   1
                l(5) =   2
                l(6) =   2
                l(7) =   3
     Q(r) pseudized with  6 coefficients,  rinner =    1.300   1.300   1.300
                                                       1.300   1.300   1.300
                                                       1.300

     PseudoPot. # 4 for Zr read from file:
     q-e/pseudo/zr_pbe_v1.uspp.F.UPF
     MD5 check sum: 5db81b1e868ab7776c4564c113de050b
     Pseudo is Ultrasoft + core correction, Zval = 12.0
     Generated by new atomic code, or converted to UPF format
     Using radial grid of  887 points,  6 beta functions with: 
                l(1) =   0
                l(2) =   0
                l(3) =   1
                l(4) =   1
                l(5) =   2
                l(6) =   2
     Q(r) pseudized with  6 coefficients,  rinner =    1.200   1.200   1.200
                                                       1.200   1.200

     PseudoPot. # 5 for H  read from file:
     q-e/pseudo/h_pbe_v1.4.uspp.F.UPF
     MD5 check sum: 761ae9a214b05c3daf00ab9f6b793d6f
     Pseudo is Ultrasoft, Zval =  1.0
     Generated by new atomic code, or converted to UPF format
     Using radial grid of  615 points,  2 beta functions with: 
                l(1) =   0
                l(2) =   0
     Q(r) pseudized with  8 coefficients,  rinner =    0.700

     atomic species   valence    mass     pseudopotential
        Hf            12.00   178.49000     Hf( 1.00)
        Nb            13.00    92.90637     Nb( 1.00)
        Ta            13.00   180.94788     Ta( 1.00)
        Zr            12.00    91.22400     Zr( 1.00)
        H              1.00     2.01400     H ( 1.00)

     Starting magnetic structure 
     atomic species   magnetization
        Hf           0.000
        Nb           0.000
        Ta           0.000
        Zr           0.000
        H            0.000

     No symmetry found



   Cartesian axes

     site n.     atom                  positions (alat units)
         1           Hf  tau(   1) = (   0.3126464   0.3310449   0.7732979  )
         2           Hf  tau(   2) = (   0.1467202   0.1506188   0.5923263  )
         3           Hf  tau(   3) = (   0.1470125   0.8653167   0.5957925  )
         4           Hf  tau(   4) = (   0.4785725   0.1506188   0.5923263  )
         5           Hf  tau(   5) = (   0.4782802   0.8653167   0.5957925  )
         6           Nb  tau(   6) = (   0.3126464   0.3275094   0.4116608  )
         7           Nb  tau(   7) = (   0.3126464   0.6881006   0.7769319  )
         8           Ta  tau(   8) = (   0.1416128   0.5083054   0.5938087  )
         9           Ta  tau(   9) = (   0.4836800   0.5083054   0.5938087  )
        10           Ta  tau(  10) = (   0.1530741   0.1538785   0.2410748  )
        11           Ta  tau(  11) = (   0.1525513   0.1532074   0.9478430  )
        12           Ta  tau(  12) = (   0.1526943   0.8636799   0.2396062  )
        13           Ta  tau(  13) = (   0.1531277   0.8624219   0.9468387  )
        14           Ta  tau(  14) = (   0.4722187   0.1538785   0.2410748  )
        15           Ta  tau(  15) = (   0.4727414   0.1532074   0.9478430  )
        16           Ta  tau(  16) = (   0.4725984   0.8636799   0.2396062  )
        17           Ta  tau(  17) = (   0.4721650   0.8624219   0.9468387  )
        18           Zr  tau(  18) = (   0.3126464   0.6869187   0.4130426  )
        19           Zr  tau(  19) = (   0.1456481   0.5060981   0.2341920  )
        20           Zr  tau(  20) = (   0.1452442   0.5098505   0.9543040  )
        21           Zr  tau(  21) = (   0.4796447   0.5060981   0.2341920  )
        22           Zr  tau(  22) = (   0.4800486   0.5098505   0.9543040  )
        23           H   tau(  23) = (   0.6161590   0.3757177   0.5939321  )

     number of k points=     1  Gaussian smearing, width (Ry)=  0.0220
                       cart. coord. in units 2pi/alat
        k(    1) = (   0.0000000   0.0000000   0.0000000), wk =   1.0000000

     Dense  grid:   450774 G-vectors     FFT dimensions: ( 120, 120, 135)

     Estimated max dynamical RAM per process >     123.77 MB

     Estimated total dynamical RAM >       5.08 GB

     Check: negative core charge=   -0.000002
     Generating pointlists ...
     new r_m :   0.1088 (alat units)  1.7563 (a.u.) for type    1
     new r_m :   0.1201 (alat units)  1.9374 (a.u.) for type    2
     new r_m :   0.0773 (alat units)  1.2477 (a.u.) for type    3
     new r_m :   0.1216 (alat units)  1.9625 (a.u.) for type    4
     new r_m :   0.0773 (alat units)  1.2477 (a.u.) for type    5

     Initial potential from superposition of free atoms

     starting charge     266.9726, renormalised to     277.0000

     negative rho (up, down):  9.226E-01 9.226E-01
     Starting wfcs are  287 randomized atomic wfcs

     total cpu time spent up to now is       11.1 secs

     Self-consistent Calculation

     iteration #  1     ecut=   120.00 Ry     beta= 0.70
     Davidson diagonalization with overlap
     ethr =  1.00E-02,  avg # of iterations =  2.0

     negative rho (up, down):  9.845E-01 9.843E-01

     total cpu time spent up to now is       27.1 secs

     total energy              =   -2931.72617240 Ry
     estimated scf accuracy    <     288.28221221 Ry

     total magnetization       =    -0.00 Bohr mag/cell
     absolute magnetization    =     0.09 Bohr mag/cell

     iteration #  2     ecut=   120.00 Ry     beta= 0.70
     Davidson diagonalization with overlap
     ethr =  1.00E-02,  avg # of iterations =  5.0

     negative rho (up, down):  9.461E-01 9.465E-01

     total cpu time spent up to now is       43.7 secs

     total energy              =   -2942.30248846 Ry
     estimated scf accuracy    <      34.22195447 Ry

     total magnetization       =     0.01 Bohr mag/cell
     absolute magnetization    =     0.18 Bohr mag/cell

     iteration #  3     ecut=   120.00 Ry     beta= 0.70
     Davidson diagonalization with overlap
     ethr =  1.00E-02,  avg # of iterations =  3.0

     negative rho (up, down):  9.772E-01 9.767E-01

     total cpu time spent up to now is       58.4 secs

     total energy              =   -2942.71379592 Ry
     estimated scf accuracy    <      14.72277971 Ry

     total magnetization       =    -0.03 Bohr mag/cell
     absolute magnetization    =     0.20 Bohr mag/cell

     iteration #  4     ecut=   120.00 Ry     beta= 0.70
     Davidson diagonalization with overlap
     ethr =  5.32E-03,  avg # of iterations =  4.5

     negative rho (up, down):  9.733E-01 9.714E-01

     total cpu time spent up to now is       73.0 secs

     total energy              =   -2942.92049813 Ry
     estimated scf accuracy    <       3.44748715 Ry

     total magnetization       =     0.07 Bohr mag/cell
     absolute magnetization    =     0.30 Bohr mag/cell

     iteration #  5     ecut=   120.00 Ry     beta= 0.70
     Davidson diagonalization with overlap
     ethr =  1.24E-03,  avg # of iterations =  7.0

     negative rho (up, down):  9.459E-01 9.448E-01

     total cpu time spent up to now is      112.3 secs

     total energy              =   -2943.07214662 Ry
     estimated scf accuracy    <       1.54141165 Ry

     total magnetization       =     0.04 Bohr mag/cell
     absolute magnetization    =     0.17 Bohr mag/cell

     iteration #  6     ecut=   120.00 Ry     beta= 0.70
     Davidson diagonalization with overlap
     ethr =  5.56E-04,  avg # of iterations =  3.0

     negative rho (up, down):  9.333E-01 9.326E-01

     total cpu time spent up to now is      144.2 secs

     total energy              =   -2943.08731426 Ry
     estimated scf accuracy    <       1.12809227 Ry

     total magnetization       =     0.01 Bohr mag/cell
     absolute magnetization    =     0.13 Bohr mag/cell

     iteration #  7     ecut=   120.00 Ry     beta= 0.70
     Davidson diagonalization with overlap
     ethr =  4.07E-04,  avg # of iterations =  2.0

     negative rho (up, down):  9.130E-01 9.129E-01

     total cpu time spent up to now is      164.2 secs

     total energy              =   -2943.05357972 Ry
     estimated scf accuracy    <       0.31426571 Ry

     total magnetization       =     0.02 Bohr mag/cell
     absolute magnetization    =     0.13 Bohr mag/cell

     iteration #  8     ecut=   120.00 Ry     beta= 0.70
     Davidson diagonalization with overlap
     ethr =  1.13E-04,  avg # of iterations = 10.5

     negative rho (up, down):  9.069E-01 9.069E-01

     total cpu time spent up to now is      181.6 secs

     total energy              =   -2943.05692018 Ry
     estimated scf accuracy    <       0.26035943 Ry

     total magnetization       =     0.03 Bohr mag/cell
     absolute magnetization    =     0.11 Bohr mag/cell

     iteration #  9     ecut=   120.00 Ry     beta= 0.70
     Davidson diagonalization with overlap
     ethr =  9.40E-05,  avg # of iterations =  2.0

     negative rho (up, down):  9.080E-01 9.080E-01

     total cpu time spent up to now is      195.3 secs

     total energy              =   -2943.06576959 Ry
     estimated scf accuracy    <       0.05318986 Ry

     total magnetization       =     0.01 Bohr mag/cell
     absolute magnetization    =     0.08 Bohr mag/cell

     iteration # 10     ecut=   120.00 Ry     beta= 0.70
     Davidson diagonalization with overlap
     ethr =  1.92E-05,  avg # of iterations =  9.5

     negative rho (up, down):  9.091E-01 9.091E-01

     total cpu time spent up to now is      211.6 secs

     total energy              =   -2943.07002399 Ry
     estimated scf accuracy    <       0.03575607 Ry

     total magnetization       =     0.01 Bohr mag/cell
     absolute magnetization    =     0.07 Bohr mag/cell

     iteration # 11     ecut=   120.00 Ry     beta= 0.70
     Davidson diagonalization with overlap
     ethr =  1.29E-05,  avg # of iterations =  2.0

     negative rho (up, down):  9.099E-01 9.099E-01

     total cpu time spent up to now is      226.0 secs

     total energy              =   -2943.07288827 Ry
     estimated scf accuracy    <       0.00639703 Ry

     total magnetization       =     0.01 Bohr mag/cell
     absolute magnetization    =     0.06 Bohr mag/cell

     iteration # 12     ecut=   120.00 Ry     beta= 0.70
     Davidson diagonalization with overlap
     ethr =  2.31E-06,  avg # of iterations =  9.0

     negative rho (up, down):  9.098E-01 9.098E-01

     Magnetic moment per site  (integrated on atomic sphere of radius R)
     atom   1 (R=0.109)  charge=  8.5453  magn=  0.0000
     atom   2 (R=0.109)  charge=  8.2998  magn=  0.0000
     atom   3 (R=0.109)  charge=  8.2999  magn=  0.0004
     atom   4 (R=0.109)  charge=  8.2944  magn=  0.0001
     atom   5 (R=0.109)  charge=  8.3016  magn=  0.0001
     atom   6 (R=0.120)  charge= 10.3466  magn= -0.0005
     atom   7 (R=0.120)  charge= 10.3477  magn= -0.0000
     atom   8 (R=0.077)  charge=  5.9527  magn= -0.0000
     atom   9 (R=0.077)  charge=  5.9677  magn= -0.0001
     atom  10 (R=0.077)  charge=  5.9348  magn=  0.0001
     atom  11 (R=0.077)  charge=  5.9344  magn= -0.0002
     atom  12 (R=0.077)  charge=  5.9347  magn=  0.0005
     atom  13 (R=0.077)  charge=  5.9333  magn= -0.0004
     atom  14 (R=0.077)  charge=  5.9358  magn=  0.0001
     atom  15 (R=0.077)  charge=  5.9354  magn= -0.0001
     atom  16 (R=0.077)  charge=  5.9346  magn=  0.0006
     atom  17 (R=0.077)  charge=  5.9333  magn= -0.0002
     atom  18 (R=0.122)  charge=  9.4552  magn= -0.0003
     atom  19 (R=0.122)  charge=  8.9955  magn=  0.0031
     atom  20 (R=0.122)  charge=  8.9938  magn= -0.0019
     atom  21 (R=0.122)  charge=  8.9984  magn=  0.0028
     atom  22 (R=0.122)  charge=  8.9999  magn= -0.0018
     atom  23 (R=0.077)  charge=  0.9233  magn= -0.0000

     total cpu time spent up to now is      245.4 secs

     End of self-consistent calculation

 ------ SPIN UP ------------


          k = 0.0000 0.0000 0.0000 ( 56324 PWs)   bands (ev):

   -59.7643 -59.7567 -59.7198 -59.7117 -59.6870 -59.6794 -59.6434 -59.6357
   -59.5265 -59.1571 -53.3482 -53.2851 -53.2236 -53.1589 -51.6743 -45.2353
   -45.2071 -40.6220 -40.6065 -40.5233 -40.5208 -38.7775 -26.7679 -26.7596
   -26.6844 -26.6716 -26.5818 -26.5727 -26.4564 -26.4484 -26.3473 -26.3049
   -26.2780 -26.2433 -26.2344 -26.2113 -26.1970 -26.1597 -26.1393 -26.1263
   -26.0836 -25.9475 -25.9403 -25.9378 -25.9313 -25.8817 -25.8720 -25.8629
   -25.8455 -25.8382 -25.8252 -25.8039 -23.1323 -22.9105 -22.6197 -22.5230
   -22.2837 -22.1420 -22.1053 -22.0115 -21.8934 -21.8096 -21.7883 -21.5673
   -21.4691 -21.4150 -21.3542 -21.3095 -21.2474 -21.1902 -20.7308 -20.6751
   -20.6011 -19.1837 -18.9028 -18.8282 -18.8189 -18.5923 -18.5806 -18.5780
   -18.5656 -18.5541 -18.5181 -18.3549 -18.3348 -17.1276 -16.9173 -16.7956
     2.2759   3.3675   3.9446   4.1738   4.3572   4.4998   4.5623   4.6247
     4.7399   4.9263   4.9493   5.1526   5.2475   5.5109   5.5830   5.7140
     5.7752   5.8586   6.0576   6.1213   6.1601   6.2836   6.3100   6.3730
     6.4130   6.5741   6.6581   6.7360   6.7595   6.7845   6.7960   6.8624
     6.9959   7.1087   7.1933   7.2633   7.2875   7.3137   7.3863   7.3940
     7.4280   7.6173   7.7150   7.7561   7.8989   7.9703   8.0033   8.1118
     8.1484   8.2172   8.2911   8.3171   8.3304   8.4450   8.5441   8.5596
     8.6310   8.8189   8.9039   8.9608   9.0920   9.0971   9.2684   9.3105
     9.3293   9.3645   9.3840   9.4324   9.4646   9.6308   9.7009   9.7124
     9.9340   9.9873  10.0879  10.1289  10.1560  10.2658  10.3012

 ------ SPIN DOWN ----------


          k = 0.0000 0.0000 0.0000 ( 56324 PWs)   bands (ev):

   -59.7639 -59.7572 -59.7193 -59.7122 -59.6863 -59.6798 -59.6427 -59.6361
   -59.5264 -59.1570 -53.3480 -53.2850 -53.2234 -53.1588 -51.6742 -45.2358
   -45.2070 -40.6192 -40.6084 -40.5251 -40.5181 -38.7776 -26.7674 -26.7601
   -26.6837 -26.6722 -26.5814 -26.5733 -26.4566 -26.4478 -26.3472 -26.3049
   -26.2780 -26.2428 -26.2348 -26.2112 -26.1967 -26.1596 -26.1386 -26.1265
   -26.0835 -25.9469 -25.9406 -25.9386 -25.9308 -25.8816 -25.8718 -25.8628
   -25.8447 -25.8389 -25.8251 -25.8038 -23.1322 -22.9105 -22.6196 -22.5228
   -22.2836 -22.1418 -22.1049 -22.0113 -21.8933 -21.8094 -21.7882 -21.5671
   -21.4694 -21.4151 -21.3543 -21.3096 -21.2475 -21.1903 -20.7307 -20.6750
   -20.6010 -19.1807 -18.9059 -18.8253 -18.8163 -18.5903 -18.5819 -18.5767
   -18.5663 -18.5549 -18.5197 -18.3508 -18.3374 -17.1276 -16.9172 -16.7954
     2.2760   3.3676   3.9450   4.1739   4.3572   4.5001   4.5625   4.6247
     4.7400   4.9264   4.9497   5.1527   5.2478   5.5109   5.5832   5.7141
     5.7754   5.8591   6.0579   6.1218   6.1597   6.2837   6.3101   6.3732
     6.4133   6.5742   6.6581   6.7369   6.7597   6.7847   6.7961   6.8623
     6.9962   7.1090   7.1936   7.2633   7.2878   7.3139   7.3868   7.3943
     7.4281   7.6175   7.7152   7.7563   7.8993   7.9706   8.0039   8.1123
     8.1489   8.2187   8.2912   8.3176   8.3305   8.4473   8.5444   8.5603
     8.6315   8.8192   8.9042   8.9611   9.0926   9.0976   9.2688   9.3109
     9.3297   9.3648   9.3846   9.4328   9.4653   9.6314   9.7011   9.7127
     9.9342   9.9878  10.0884  10.1296  10.1566  10.2659  10.3021

     the Fermi energy is     8.2671 ev

!    total energy              =   -2943.07465936 Ry
     estimated scf accuracy    <       0.00084995 Ry
     smearing contrib. (-TS)   =      -0.10492236 Ry
     internal energy E=F+TS    =   -2942.96973700 Ry

     total magnetization       =     0.01 Bohr mag/cell
     absolute magnetization    =     0.05 Bohr mag/cell

     convergence has been achieved in  12 iterations

     negative rho (up, down):  9.098E-01 9.098E-01

     Forces acting on atoms (cartesian axes, Ry/au):

     atom    1 type  1   force =    -0.00936496   -0.02113315    0.00505237
     atom    2 type  1   force =    -0.12396622   -0.01830326   -0.00356206
     atom    3 type  1   force =    -0.12020348    0.01776859    0.00189189
     atom    4 type  1   force =     0.13412528    0.01934132   -0.00556323
     atom    5 type  1   force =     0.12981520    0.00837714    0.00148111
     atom    6 type  2   force =    -0.01152064   -0.01336719    0.01073717
     atom    7 type  2   force =    -0.00635567    0.01747026   -0.00511664
     atom    8 type  3   force =    -0.11936357    0.00027656   -0.00473002
     atom    9 type  3   force =     0.03979605    0.08661501   -0.00778350
     atom   10 type  3   force =    -0.02097822   -0.02925011   -0.06042650
     atom   11 type  3   force =    -0.01871470   -0.03478998    0.05865258
     atom   12 type  3   force =    -0.01928532    0.03207285   -0.05461940
     atom   13 type  3   force =    -0.02129727    0.02700184    0.06113565
     atom   14 type  3   force =     0.02202316   -0.03565981   -0.05976151
     atom   15 type  3   force =     0.01996916   -0.04011574    0.05855696
     atom   16 type  3   force =     0.01547769    0.03700114   -0.05809724
     atom   17 type  3   force =     0.01756511    0.03109469    0.06343151
     atom   18 type  4   force =    -0.00545217    0.02402636   -0.01343063
     atom   19 type  4   force =    -0.13576192   -0.00294071   -0.11604196
     atom   20 type  4   force =    -0.13847970    0.00669809    0.12088431
     atom   21 type  4   force =     0.12995017   -0.00025539   -0.11712095
     atom   22 type  4   force =     0.13223638    0.00976738    0.12267132
     atom   23 type  5   force =     0.10978563   -0.12169587    0.00175878
     The non-local contrib.  to forces
     atom    1 type  1   force =    -0.00128228   -0.01157076    0.02616549
     atom    2 type  1   force =    -0.24378173   -0.16070191    0.01582144
     atom    3 type  1   force =    -0.24317444    0.15874806   -0.02768654
     atom    4 type  1   force =     0.22945980   -0.15872999    0.01491155
     atom    5 type  1   force =     0.24141820    0.16940378   -0.02779940
     atom    6 type  2   force =    -0.00936706   -0.06334557   -0.06752792
     atom    7 type  2   force =     0.00903786    0.06947171    0.06928251
     atom    8 type  3   force =    -0.25381066   -0.00112171   -0.00634098
     atom    9 type  3   force =     0.09583104    0.11464765   -0.00415579
     atom   10 type  3   force =    -0.22416591    0.00592974   -0.21162369
     atom   11 type  3   force =    -0.23039467    0.00914871    0.20001156
     atom   12 type  3   force =    -0.21205514   -0.01881385   -0.18834043
     atom   13 type  3   force =    -0.22067690   -0.00363055    0.21605414
     atom   14 type  3   force =     0.23423548    0.01045801   -0.20632773
     atom   15 type  3   force =     0.24063146    0.01244411    0.19717128
     atom   16 type  3   force =     0.20442195   -0.01805608   -0.18952436
     atom   17 type  3   force =     0.21166261   -0.00032237    0.21948895
     atom   18 type  4   force =     0.00316443    0.06056432   -0.07221944
     atom   19 type  4   force =     0.06737247    0.01047694    0.07045595
     atom   20 type  4   force =     0.06162244   -0.01127044   -0.06340243
     atom   21 type  4   force =    -0.06531243    0.00770990    0.05765353
     atom   22 type  4   force =    -0.05865283   -0.01356377   -0.05625698
     atom   23 type  5   force =    -0.06158680    0.04091473    0.00021185
     The ionic contribution  to forces
     atom    1 type  1   force =    -0.48706605   -4.65495956   14.52106600
     atom    2 type  1   force =   -35.71260243   -6.27211160    0.77860859
     atom    3 type  1   force =   -35.65761503    6.12696601   -0.71280279
     atom    4 type  1   force =    35.01147491   -7.16584252    0.77211648
     atom    5 type  1   force =    35.52701532    6.15816458   -0.71196232
     atom    6 type  2   force =    -0.51748555   -3.62206239  -14.46103011
     atom    7 type  2   force =    -0.18900348    3.76173361   14.27998261
     atom    8 type  3   force =   -47.63704444    0.19728621   -0.06562103
     atom    9 type  3   force =    45.61375234    2.02923044   -0.06733267
     atom   10 type  3   force =   -32.21365914   -2.15927204  -23.54223611
     atom   11 type  3   force =   -31.28250695   -0.90827639   22.54459946
     atom   12 type  3   force =   -31.38372156    0.79012186  -22.54764656
     atom   13 type  3   force =   -32.17619502    2.17924321   23.47904251
     atom   14 type  3   force =    32.05390144   -2.27869386  -23.73609778
     atom   15 type  3   force =    31.12479293   -1.02687480   22.73709349
     atom   16 type  3   force =    31.31265933    0.79986095  -22.60381085
     atom   17 type  3   force =    32.10444927    2.18965988   23.53544269
     atom   18 type  4   force =    -0.17665177    4.52458936  -14.18244265
     atom   19 type  4   force =   -32.19026247    1.01264283  -25.99190170
     atom   20 type  4   force =   -32.16400214   -0.90383725   25.96946006
     atom   21 type  4   force =    32.01267137    1.10911916  -26.25529942
     atom   22 type  4   force =    31.98950257   -0.80630648   26.22879110
     atom   23 type  5   force =     5.03759656   -1.08038124    0.03198100
     The local contribution  to forces
     atom    1 type  1   force =     0.47711104    4.63659641  -14.54188537
     atom    2 type  1   force =    35.84259179    6.40836724   -0.80410899
     atom    3 type  1   force =    35.78820863   -6.26383904    0.73635212
     atom    4 type  1   force =   -35.10825006    7.33997517   -0.79946100
     atom    5 type  1   force =   -35.64732742   -6.31385733    0.73655478
     atom    6 type  2   force =     0.51308651    3.66757429   14.53331030
     atom    7 type  2   force =     0.17434465   -3.81448489  -14.35757277
     atom    8 type  3   force =    47.78088491   -0.19251029    0.05481731
     atom    9 type  3   force =   -45.66229542   -2.06784523    0.05245418
     atom   10 type  3   force =    32.43259592    2.11141786   23.70708856
     atom   11 type  3   force =    31.51481828    0.85330126  -22.69751523
     atom   12 type  3   force =    31.59691264   -0.72849316   22.69492718
     atom   13 type  3   force =    32.39150306   -2.13605700  -23.64394722
     atom   14 type  3   force =   -32.28000154    2.22075245   23.89399371
     atom   15 type  3   force =   -31.36510571    0.96503616  -22.88486764
     atom   16 type  3   force =   -31.51918222   -0.73237733   22.74641801
     atom   17 type  3   force =   -32.31194652   -2.14795232  -23.70151299
     atom   18 type  4   force =     0.16570857   -4.55770297   14.23264862
     atom   19 type  4   force =    31.99034629   -1.02504218   25.80985125
     atom   20 type  4   force =    31.96735561    0.92031709  -25.78029584
     atom   21 type  4   force =   -31.81860746   -1.11738072   26.08042929
     atom   22 type  4   force =   -31.79832139    0.82854271  -26.04222989
     atom   23 type  5   force =    -4.86429729    0.91787825   -0.03119347
     The core correction contribution to forces
     atom    1 type  1   force =     0.00195749    0.00371989   -0.00099092
     atom    2 type  1   force =    -0.01118793   -0.00202686    0.00073917
     atom    3 type  1   force =    -0.01041414    0.00208088   -0.00169241
     atom    4 type  1   force =     0.00314689   -0.00719282    0.00090039
     atom    5 type  1   force =     0.01112933    0.00373940   -0.00201291
     atom    6 type  2   force =     0.00039848    0.00305359    0.00285737
     atom    7 type  2   force =    -0.00035244   -0.00349802   -0.00282165
     atom    8 type  3   force =    -0.02925683   -0.00070761    0.00012462
     atom    9 type  3   force =     0.00911981    0.01483422    0.00002621
     atom   10 type  3   force =    -0.02305512    0.00925100   -0.01585333
     atom   11 type  3   force =    -0.02455099    0.00968466    0.01654046
     atom   12 type  3   force =    -0.02349833   -0.00889918   -0.01641059
     atom   13 type  3   force =    -0.02336912   -0.00812627    0.01767914
     atom   14 type  3   force =     0.02396773    0.00915582   -0.01446573
     atom   15 type  3   force =     0.02580745    0.01031711    0.01522421
     atom   16 type  3   force =     0.02199368   -0.00970677   -0.01599282
     atom   17 type  3   force =     0.02237580   -0.00855727    0.01717466
     atom   18 type  4   force =    -0.00005622   -0.00354081    0.00371123
     atom   19 type  4   force =    -0.01017785   -0.00000456   -0.00946990
     atom   20 type  4   force =    -0.00993223    0.00022892    0.00931424
     atom   21 type  4   force =     0.01013782    0.00007249   -0.00858026
     atom   22 type  4   force =     0.00992756    0.00023853    0.00876114
     atom   23 type  5   force =     0.00000000    0.00000000    0.00000000
     The Hubbard contrib.    to forces
     atom    1 type  1   force =     0.00000000    0.00000000    0.00000000
     atom    2 type  1   force =     0.00000000    0.00000000    0.00000000
     atom    3 type  1   force =     0.00000000    0.00000000    0.00000000
     atom    4 type  1   force =     0.00000000    0.00000000    0.00000000
     atom    5 type  1   force =     0.00000000    0.00000000    0.00000000
     atom    6 type  2   force =     0.00000000    0.00000000    0.00000000
     atom    7 type  2   force =     0.00000000    0.00000000    0.00000000
     atom    8 type  3   force =     0.00000000    0.00000000    0.00000000
     atom    9 type  3   force =     0.00000000    0.00000000    0.00000000
     atom   10 type  3   force =     0.00000000    0.00000000    0.00000000
     atom   11 type  3   force =     0.00000000    0.00000000    0.00000000
     atom   12 type  3   force =     0.00000000    0.00000000    0.00000000
     atom   13 type  3   force =     0.00000000    0.00000000    0.00000000
     atom   14 type  3   force =     0.00000000    0.00000000    0.00000000
     atom   15 type  3   force =     0.00000000    0.00000000    0.00000000
     atom   16 type  3   force =     0.00000000    0.00000000    0.00000000
     atom   17 type  3   force =     0.00000000    0.00000000    0.00000000
     atom   18 type  4   force =     0.00000000    0.00000000    0.00000000
     atom   19 type  4   force =     0.00000000    0.00000000    0.00000000
     atom   20 type  4   force =     0.00000000    0.00000000    0.00000000
     atom   21 type  4   force =     0.00000000    0.00000000    0.00000000
     atom   22 type  4   force =     0.00000000    0.00000000    0.00000000
     atom   23 type  5   force =     0.00000000    0.00000000    0.00000000
     The SCF correction term to forces
     atom    1 type  1   force =     0.00000000    0.00000000    0.00000000
     atom    2 type  1   force =     0.00000000    0.00000000    0.00000000
     atom    3 type  1   force =     0.00000000   -0.00000000    0.00000000
     atom    4 type  1   force =    -0.00000000    0.00000000    0.00000000
     atom    5 type  1   force =    -0.00000000   -0.00000000    0.00000000
     atom    6 type  2   force =     0.00000000    0.00000000    0.00000000
     atom    7 type  2   force =    -0.00000000    0.00000000    0.00000000
     atom    8 type  3   force =     0.00000000   -0.00000000    0.00000000
     atom    9 type  3   force =    -0.00000000   -0.00000000    0.00000000
     atom   10 type  3   force =     0.00741003    0.00333725    0.00199207
     atom   11 type  3   force =     0.00402362    0.00126569   -0.00518967
     atom   12 type  3   force =     0.00318106   -0.00192888    0.00264501
     atom   13 type  3   force =     0.00754471   -0.00451363   -0.00789892
     atom   14 type  3   force =    -0.00997596    0.00258169    0.00293001
     atom   15 type  3   force =    -0.00605298   -0.00112439   -0.00627039
     atom   16 type  3   force =    -0.00431106   -0.00280571    0.00460678
     atom   17 type  3   force =    -0.00887206   -0.00181931   -0.00736780
     atom   18 type  4   force =     0.00248681    0.00003038    0.00466561
     atom   19 type  4   force =     0.00706363   -0.00109983    0.00481645
     atom   20 type  4   force =     0.00658061    0.00117370   -0.01439772
     atom   21 type  4   force =    -0.00883514    0.00013770    0.00846991
     atom   22 type  4   force =    -0.01011553    0.00077030   -0.01660005
     atom   23 type  5   force =    -0.00182284   -0.00019369    0.00055340

     Total force =     0.443765     Total SCF correction =     0.039210


     Computing stress (Cartesian axis) and pressure


     negative rho (up, down):  9.098E-01 9.098E-01
          total   stress  (Ry/bohr**3)                   (kbar)     P=       93.26
   0.00070121  -0.00005280  -0.00000065          103.15       -7.77       -0.10
  -0.00005280   0.00077006  -0.00001285           -7.77      113.28       -1.89
  -0.00000065  -0.00001285   0.00043068           -0.10       -1.89       63.36


     Molecular Dynamics Calculation

     Starting temperature  =   300.00 K

     temperature is set once at start

     mass Hf               =   178.49
     mass Nb               =    92.91
     mass Ta               =   180.95
     mass Zr               =    91.22
     mass H                =     2.01
     Time step             =     4.20 a.u.,  0.2032 femto-seconds

     Entering Dynamics:    iteration =     1
                           time      =   0.0002 pico-seconds


ATOMIC_POSITIONS (angstrom)
Hf            2.6699999570        2.8271230292        6.6039642186    0   0   0
Hf            1.2529906802        1.2862841814        5.0584662261    0   0   0
Hf            1.2554868986        7.3898042948        5.0880677674    0   0   0
Hf            4.0870092338        1.2862841814        5.0584662261    0   0   0
Hf            4.0845130154        7.3898042948        5.0880677674    0   0   0
Nb            2.6699999570        2.7969306055        3.5155832167    0   0   0
Nb            2.6699999570        5.8763786763        6.6349979432    0   0   0
Ta            1.2093730560        4.3409278516        5.0711258323    0   0   0
Ta            4.1306268580        4.3409278516        5.0711258323    0   0   0
Ta            1.3072520904        1.3141217616        2.0587774000
Ta            1.3027877846        1.3083901514        8.0945808623
Ta            1.3040090763        7.3758270318        2.0462356341
Ta            1.3077101957        7.3650837126        8.0860039509
Ta            4.0327478532        1.3141215802        2.0587774189
Ta            4.0372121649        1.3083900007        8.0945808596
Ta            4.0359907299        7.3758271712        2.0462355356
Ta            4.0322896127        7.3650838284        8.0860040159
Zr            2.6699996509        5.8662871921        3.5273831765
Zr            1.2438269981        4.3220777994        1.9999934860
Zr            1.2403776392        4.3541236605        8.1497623351
Zr            4.0961725897        4.3220779502        1.9999934255
Zr            4.0996219243        4.3541238328        8.1497624354
H             5.1919555490        3.2786409761        5.0721842667


     kinetic energy (Ekin) =           1.83764883 Ry
     temperature           =       13816.27629488 K 
     Ekin + Etot (const)   =       -2941.23701053 Ry
     Ions kinetic stress =           35.50 (kbar)
                                     53.24         -53.24           0.00
                                    -53.24          53.24           0.00
                                      0.00           0.00           0.00



     File outdir/pwscf.msd.dat deleted, as requested

     Writing config-only to output data dir outdir/pwscf.save/
     NEW-OLD atomic charge density approx. for the potential

     Check: negative core charge=   -0.000002

     negative rho (up, down):  9.098E-01 9.098E-01
     Generating pointlists ...
     new r_m :   0.0725 (alat units)  1.1705 (a.u.) for type    3
     new r_m :   0.0725 (alat units)  1.1705 (a.u.) for type    5

     total cpu time spent up to now is      267.9 secs

     Self-consistent Calculation

     iteration #  1     ecut=   120.00 Ry     beta= 0.70
     Davidson diagonalization with overlap
     ethr =  1.00E-06,  avg # of iterations = 14.5

     negative rho (up, down):  9.100E-01 9.100E-01

     total cpu time spent up to now is      295.1 secs

     total energy              =   -2943.03212930 Ry
     estimated scf accuracy    <       0.03356751 Ry

     total magnetization       =     0.01 Bohr mag/cell
     absolute magnetization    =     0.04 Bohr mag/cell

     iteration #  2     ecut=   120.00 Ry     beta= 0.70
     Davidson diagonalization with overlap
     ethr =  1.21E-05,  avg # of iterations =  2.0

     negative rho (up, down):  9.099E-01 9.099E-01

     total cpu time spent up to now is      309.9 secs

     total energy              =   -2943.03484835 Ry
     estimated scf accuracy    <       0.01154325 Ry

     total magnetization       =     0.01 Bohr mag/cell
     absolute magnetization    =     0.04 Bohr mag/cell

     iteration #  3     ecut=   120.00 Ry     beta= 0.70
     Davidson diagonalization with overlap
     ethr =  4.17E-06,  avg # of iterations =  1.0

     negative rho (up, down):  9.098E-01 9.098E-01

     total cpu time spent up to now is      322.7 secs

     total energy              =   -2943.03556369 Ry
     estimated scf accuracy    <       0.00136030 Ry

     total magnetization       =     0.01 Bohr mag/cell
     absolute magnetization    =     0.04 Bohr mag/cell

     iteration #  4     ecut=   120.00 Ry     beta= 0.70
     Davidson diagonalization with overlap
     ethr =  4.91E-07,  avg # of iterations =  2.0

     negative rho (up, down):  9.097E-01 9.097E-01

     Magnetic moment per site  (integrated on atomic sphere of radius R)
     atom   1 (R=0.109)  charge=  8.5483  magn=  0.0001
     atom   2 (R=0.109)  charge=  8.2997  magn= -0.0000
     atom   3 (R=0.109)  charge=  8.3006  magn=  0.0001
     atom   4 (R=0.109)  charge=  8.2929  magn=  0.0000
     atom   5 (R=0.109)  charge=  8.3030  magn=  0.0001
     atom   6 (R=0.120)  charge= 10.3479  magn= -0.0001
     atom   7 (R=0.120)  charge= 10.3500  magn=  0.0001
     atom   8 (R=0.073)  charge=  5.2432  magn=  0.0000
     atom   9 (R=0.073)  charge=  5.2635  magn= -0.0000
     atom  10 (R=0.073)  charge=  5.2293  magn=  0.0001
     atom  11 (R=0.073)  charge=  5.2283  magn= -0.0001
     atom  12 (R=0.073)  charge=  5.2288  magn=  0.0004
     atom  13 (R=0.073)  charge=  5.2295  magn= -0.0001
     atom  14 (R=0.073)  charge=  5.2291  magn=  0.0001
     atom  15 (R=0.073)  charge=  5.2283  magn= -0.0001
     atom  16 (R=0.073)  charge=  5.2287  magn=  0.0004
     atom  17 (R=0.073)  charge=  5.2292  magn= -0.0001
     atom  18 (R=0.122)  charge=  9.4547  magn= -0.0001
     atom  19 (R=0.122)  charge=  8.9968  magn=  0.0020
     atom  20 (R=0.122)  charge=  8.9951  magn= -0.0013
     atom  21 (R=0.122)  charge=  8.9992  magn=  0.0021
     atom  22 (R=0.122)  charge=  8.9992  magn= -0.0012
     atom  23 (R=0.073)  charge=  0.8970  magn= -0.0000

     total cpu time spent up to now is      336.7 secs

     End of self-consistent calculation

 ------ SPIN UP ------------


          k = 0.0000 0.0000 0.0000 ( 56324 PWs)   bands (ev):

   -59.7645 -59.7644 -59.7202 -59.7194 -59.6866 -59.6819 -59.6433 -59.6381
   -59.5225 -59.0964 -53.3554 -53.2978 -53.2296 -53.1664 -51.6836 -45.2556
   -45.2135 -40.6345 -40.6118 -40.5338 -40.5287 -38.7933 -26.7715 -26.7667
   -26.6864 -26.6800 -26.5841 -26.5786 -26.4583 -26.4492 -26.3484 -26.3106
   -26.2817 -26.2466 -26.2426 -26.2137 -26.2008 -26.1600 -26.1420 -26.1281
   -26.0813 -25.9477 -25.9465 -25.9444 -25.9338 -25.8832 -25.8745 -25.8589
   -25.8467 -25.8401 -25.8090 -25.7684 -23.1417 -22.9196 -22.6307 -22.5335
   -22.2937 -22.1530 -22.1119 -22.0196 -21.9041 -21.8168 -21.7991 -21.5791
   -21.4860 -21.4274 -21.3649 -21.3211 -21.2593 -21.2004 -20.7412 -20.6834
   -20.6118 -19.1946 -18.9102 -18.8373 -18.8299 -18.6051 -18.5897 -18.5862
   -18.5739 -18.5596 -18.5234 -18.3654 -18.3414 -17.1451 -16.9312 -16.8100
     2.2257   3.2779   3.9360   4.1648   4.3481   4.4917   4.5516   4.6097
     4.7331   4.9198   4.9400   5.1520   5.2438   5.5034   5.5632   5.7049
     5.7630   5.8503   6.0491   6.1124   6.1444   6.2760   6.3029   6.3663
     6.4012   6.5648   6.6565   6.7299   6.7543   6.7758   6.7905   6.8586
     6.9931   7.1082   7.1873   7.2607   7.2801   7.3129   7.3798   7.3847
     7.4180   7.6114   7.7085   7.7551   7.8962   7.9683   7.9969   8.1068
     8.1403   8.2109   8.2757   8.3105   8.3231   8.4421   8.5381   8.5511
     8.6269   8.8156   8.8958   8.9541   9.0865   9.0950   9.2627   9.3079
     9.3234   9.3572   9.3797   9.4325   9.4615   9.6238   9.6949   9.7087
     9.9308   9.9902  10.0791  10.1234  10.1495  10.2614  10.2936

 ------ SPIN DOWN ----------


          k = 0.0000 0.0000 0.0000 ( 56324 PWs)   bands (ev):

   -59.7648 -59.7640 -59.7198 -59.7197 -59.6860 -59.6822 -59.6426 -59.6384
   -59.5225 -59.0964 -53.3554 -53.2977 -53.2295 -53.1664 -51.6835 -45.2557
   -45.2134 -40.6326 -40.6130 -40.5319 -40.5298 -38.7933 -26.7714 -26.7666
   -26.6857 -26.6803 -26.5842 -26.5784 -26.4585 -26.4484 -26.3484 -26.3105
   -26.2817 -26.2465 -26.2424 -26.2135 -26.2005 -26.1599 -26.1414 -26.1281
   -26.0813 -25.9474 -25.9466 -25.9447 -25.9332 -25.8834 -25.8739 -25.8589
   -25.8461 -25.8402 -25.8090 -25.7684 -23.1416 -22.9195 -22.6307 -22.5334
   -22.2936 -22.1530 -22.1118 -22.0195 -21.9041 -21.8168 -21.7990 -21.5790
   -21.4861 -21.4274 -21.3649 -21.3211 -21.2593 -21.2003 -20.7412 -20.6834
   -20.6117 -19.1925 -18.9123 -18.8350 -18.8280 -18.6034 -18.5890 -18.5864
   -18.5747 -18.5605 -18.5243 -18.3626 -18.3431 -17.1452 -16.9312 -16.8099
     2.2258   3.2780   3.9364   4.1649   4.3481   4.4919   4.5517   4.6098
     4.7333   4.9199   4.9403   5.1522   5.2439   5.5034   5.5635   5.7051
     5.7632   5.8508   6.0494   6.1129   6.1442   6.2763   6.3030   6.3665
     6.4014   6.5650   6.6566   6.7306   6.7546   6.7762   6.7905   6.8586
     6.9934   7.1085   7.1875   7.2609   7.2803   7.3131   7.3803   7.3849
     7.4182   7.6115   7.7086   7.7554   7.8965   7.9686   7.9976   8.1074
     8.1409   8.2124   8.2760   8.3112   8.3233   8.4443   8.5386   8.5517
     8.6273   8.8159   8.8961   8.9543   9.0870   9.0955   9.2632   9.3083
     9.3239   9.3575   9.3802   9.4328   9.4619   9.6243   9.6952   9.7090
     9.9311   9.9907  10.0796  10.1236  10.1500  10.2615  10.2941

     the Fermi energy is     8.2601 ev

!    total energy              =   -2943.03551789 Ry
     estimated scf accuracy    <       0.00019718 Ry
     smearing contrib. (-TS)   =      -0.10512496 Ry
     internal energy E=F+TS    =   -2942.93039293 Ry

     total magnetization       =     0.01 Bohr mag/cell
     absolute magnetization    =     0.03 Bohr mag/cell

     convergence has been achieved in   4 iterations

     negative rho (up, down):  9.097E-01 9.097E-01

     Forces acting on atoms (cartesian axes, Ry/au):

     atom    1 type  1   force =    -0.00858530   -0.02164814    0.00666586
     atom    2 type  1   force =    -0.12112534   -0.01828408    0.00110525
     atom    3 type  1   force =    -0.11695739    0.01802332    0.00790848
     atom    4 type  1   force =     0.12792642    0.01915118   -0.00064768
     atom    5 type  1   force =     0.12897878    0.00954458    0.00722133
     atom    6 type  2   force =    -0.01028676   -0.01346180    0.00903359
     atom    7 type  2   force =    -0.00613855    0.01882394   -0.00466572
     atom    8 type  3   force =    -0.11776932   -0.00089411   -0.00168787
     atom    9 type  3   force =    -0.03325113    0.15644573   -0.00666760
     atom   10 type  3   force =    -0.01975650   -0.02852288   -0.06238625
     atom   11 type  3   force =    -0.01776675   -0.03540801    0.05648560
     atom   12 type  3   force =    -0.01870835    0.03217458   -0.05574832
     atom   13 type  3   force =    -0.01918641    0.02629063    0.05836104
     atom   14 type  3   force =     0.02063723   -0.03487570   -0.06175083
     atom   15 type  3   force =     0.01868736   -0.04090900    0.05614309
     atom   16 type  3   force =     0.01435275    0.03686756   -0.05845169
     atom   17 type  3   force =     0.01496433    0.03111545    0.06085477
     atom   18 type  4   force =    -0.00404806    0.02510264   -0.01463088
     atom   19 type  4   force =    -0.13297982   -0.00333036   -0.11521140
     atom   20 type  4   force =    -0.13739798    0.00708463    0.11544362
     atom   21 type  4   force =     0.12692692   -0.00059785   -0.11519956
     atom   22 type  4   force =     0.13028425    0.00980595    0.11650799
     atom   23 type  5   force =     0.18119962   -0.19249824    0.00131720
     The non-local contrib.  to forces
     atom    1 type  1   force =    -0.00099305   -0.01184320    0.02795388
     atom    2 type  1   force =    -0.24568704   -0.15947911    0.01845654
     atom    3 type  1   force =    -0.24371328    0.15808146   -0.02455424
     atom    4 type  1   force =     0.23408424   -0.15130196    0.01791457
     atom    5 type  1   force =     0.24382626    0.16765344   -0.02491895
     atom    6 type  2   force =    -0.00770863   -0.06216381   -0.06579667
     atom    7 type  2   force =     0.00905208    0.06812887    0.06882059
     atom    8 type  3   force =    -0.25189242   -0.00070387   -0.00291089
     atom    9 type  3   force =     0.10411678    0.10435681   -0.00238715
     atom   10 type  3   force =    -0.22143222    0.00665381   -0.21412407
     atom   11 type  3   force =    -0.22781269    0.00953555    0.19988630
     atom   12 type  3   force =    -0.21149833   -0.01961315   -0.19073370
     atom   13 type  3   force =    -0.21794597   -0.00467410    0.21602801
     atom   14 type  3   force =     0.23029065    0.01101597   -0.20946236
     atom   15 type  3   force =     0.23669842    0.01200336    0.19758608
     atom   16 type  3   force =     0.20232461   -0.01929055   -0.19088437
     atom   17 type  3   force =     0.20748173   -0.00153369    0.21973222
     atom   18 type  4   force =     0.00317238    0.05987536   -0.06959842
     atom   19 type  4   force =     0.06967635    0.00996916    0.07265788
     atom   20 type  4   force =     0.06266030   -0.01117514   -0.06666300
     atom   21 type  4   force =    -0.06719930    0.00680828    0.06088898
     atom   22 type  4   force =    -0.05994457   -0.01369367   -0.06045846
     atom   23 type  5   force =    -0.07147180    0.05435026    0.00023845
     The ionic contribution  to forces
     atom    1 type  1   force =    -0.50648751   -4.67504523   14.53853641
     atom    2 type  1   force =   -35.72565453   -6.27438477    0.77862161
     atom    3 type  1   force =   -35.66371203    6.13355981   -0.71278637
     atom    4 type  1   force =    35.07001137   -7.16343326    0.77237628
     atom    5 type  1   force =    35.53012764    6.17991607   -0.71191516
     atom    6 type  2   force =    -0.53742536   -3.64362215  -14.47941245
     atom    7 type  2   force =    -0.20261327    3.77583581   14.29063046
     atom    8 type  3   force =   -47.66245240    0.19367883   -0.06562864
     atom    9 type  3   force =    45.33676913    2.30629317   -0.06774267
     atom   10 type  3   force =   -32.21906567   -2.16035561  -23.54117040
     atom   11 type  3   force =   -31.28789094   -0.90932907   22.54352073
     atom   12 type  3   force =   -31.38704688    0.79376743  -22.54824048
     atom   13 type  3   force =   -32.17952618    2.18290177   23.47964470
     atom   14 type  3   force =    32.06227098   -2.28182770  -23.73219786
     atom   15 type  3   force =    31.13310823   -1.02993305   22.73318249
     atom   16 type  3   force =    31.31451155    0.80775594  -22.60614626
     atom   17 type  3   force =    32.10626821    2.19761673   23.53783213
     atom   18 type  4   force =    -0.18944105    4.53771890  -14.19231813
     atom   19 type  4   force =   -32.19752847    1.01056878  -25.99427557
     atom   20 type  4   force =   -32.17119993   -0.90582777   25.97182819
     atom   21 type  4   force =    32.01471130    1.10640184  -26.27321299
     atom   22 type  4   force =    31.99149521   -0.80871877   26.24658271
     atom   23 type  5   force =     5.37077060   -1.37353769    0.03229128
     The local contribution  to forces
     atom    1 type  1   force =     0.49677253    4.65610844  -14.55412833
     atom    2 type  1   force =    35.86740880    6.41138182   -0.78713089
     atom    3 type  1   force =    35.80524853   -6.27129650    0.75905442
     atom    4 type  1   force =   -35.19287541    7.33124941   -0.78254815
     atom    5 type  1   force =   -35.66215932   -6.33601339    0.75732099
     atom    6 type  2   force =     0.53460163    3.68427532   14.55737723
     atom    7 type  2   force =     0.18631493   -3.81040715  -14.35043497
     atom    8 type  3   force =    47.83235264   -0.19218833    0.07706856
     atom    9 type  3   force =   -45.48689666   -2.27436237    0.07311871
     atom   10 type  3   force =    32.44636795    2.11403478   23.70903136
     atom   11 type  3   force =    31.52209817    0.84525304  -22.70755858
     atom   12 type  3   force =    31.60621038   -0.73021684   22.70048546
     atom   13 type  3   force =    32.40373497   -2.13809919  -23.66163971
     atom   14 type  3   force =   -32.30112129    2.22319499   23.89590067
     atom   15 type  3   force =   -31.37935643    0.95629874  -22.89500499
     atom   16 type  3   force =   -31.52818949   -0.73962957   22.75567936
     atom   17 type  3   force =   -32.32537948   -2.15031929  -23.72003224
     atom   18 type  4   force =     0.18206035   -4.56401658   14.24838609
     atom   19 type  4   force =    32.00844886   -1.02469587   25.81638342
     atom   20 type  4   force =    31.98072651    0.92633720  -25.80308063
     atom   21 type  4   force =   -31.83558511   -1.11356402   26.10888640
     atom   22 type  4   force =   -31.81256359    0.83466939  -26.08467890
     atom   23 type  5   force =    -5.12014982    1.12750677   -0.02973300
     The core correction contribution to forces
     atom    1 type  1   force =     0.00169660    0.00363584   -0.00073703
     atom    2 type  1   force =    -0.01148751   -0.00204947    0.00081119
     atom    3 type  1   force =    -0.01057980    0.00222305   -0.00169894
     atom    4 type  1   force =     0.00387875   -0.00645267    0.00103982
     atom    5 type  1   force =     0.01154342    0.00378137   -0.00200761
     atom    6 type  2   force =     0.00034316    0.00294742    0.00277724
     atom    7 type  2   force =    -0.00030855   -0.00343457   -0.00285583
     atom    8 type  3   force =    -0.02934057   -0.00070870    0.00018497
     atom    9 type  3   force =     0.00869602    0.01509415   -0.00013875
     atom   10 type  3   force =    -0.02304361    0.00921899   -0.01611624
     atom   11 type  3   force =    -0.02441399    0.00985972    0.01656218
     atom   12 type  3   force =    -0.02355034   -0.00898256   -0.01656910
     atom   13 type  3   force =    -0.02320000   -0.00830713    0.01771507
     atom   14 type  3   force =     0.02386374    0.00907983   -0.01498048
     atom   15 type  3   force =     0.02542542    0.01032134    0.01544337
     atom   16 type  3   force =     0.02206975   -0.00967500   -0.01629481
     atom   17 type  3   force =     0.02225617   -0.00868689    0.01742803
     atom   18 type  4   force =     0.00000549   -0.00345053    0.00366484
     atom   19 type  4   force =    -0.01017613    0.00001793   -0.00960470
     atom   20 type  4   force =    -0.00995231    0.00023502    0.00934384
     atom   21 type  4   force =     0.01008661    0.00015371   -0.00874582
     atom   22 type  4   force =     0.00989849    0.00027244    0.00882789
     atom   23 type  5   force =     0.00000000    0.00000000    0.00000000
     The Hubbard contrib.    to forces
     atom    1 type  1   force =     0.00000000    0.00000000    0.00000000
     atom    2 type  1   force =     0.00000000    0.00000000    0.00000000
     atom    3 type  1   force =     0.00000000    0.00000000    0.00000000
     atom    4 type  1   force =     0.00000000    0.00000000    0.00000000
     atom    5 type  1   force =     0.00000000    0.00000000    0.00000000
     atom    6 type  2   force =     0.00000000    0.00000000    0.00000000
     atom    7 type  2   force =     0.00000000    0.00000000    0.00000000
     atom    8 type  3   force =     0.00000000    0.00000000    0.00000000
     atom    9 type  3   force =     0.00000000    0.00000000    0.00000000
     atom   10 type  3   force =     0.00000000    0.00000000    0.00000000
     atom   11 type  3   force =     0.00000000    0.00000000    0.00000000
     atom   12 type  3   force =     0.00000000    0.00000000    0.00000000
     atom   13 type  3   force =     0.00000000    0.00000000    0.00000000
     atom   14 type  3   force =     0.00000000    0.00000000    0.00000000
     atom   15 type  3   force =     0.00000000    0.00000000    0.00000000
     atom   16 type  3   force =     0.00000000    0.00000000    0.00000000
     atom   17 type  3   force =     0.00000000    0.00000000    0.00000000
     atom   18 type  4   force =     0.00000000    0.00000000    0.00000000
     atom   19 type  4   force =     0.00000000    0.00000000    0.00000000
     atom   20 type  4   force =     0.00000000    0.00000000    0.00000000
     atom   21 type  4   force =     0.00000000    0.00000000    0.00000000
     atom   22 type  4   force =     0.00000000    0.00000000    0.00000000
     atom   23 type  5   force =     0.00000000    0.00000000    0.00000000
     The SCF correction term to forces
     atom    1 type  1   force =     0.00000000    0.00000000   -0.00000000
     atom    2 type  1   force =    -0.00000000    0.00000000   -0.00000000
     atom    3 type  1   force =    -0.00000000   -0.00000000   -0.00000000
     atom    4 type  1   force =     0.00000000    0.00000000   -0.00000000
     atom    5 type  1   force =     0.00000000   -0.00000000   -0.00000000
     atom    6 type  2   force =    -0.00000000    0.00000000   -0.00000000
     atom    7 type  2   force =     0.00000000   -0.00000000   -0.00000000
     atom    8 type  3   force =    -0.00000000   -0.00000000   -0.00000000
     atom    9 type  3   force =     0.00000000    0.00000000   -0.00000000
     atom   10 type  3   force =    -0.00276576    0.00182873    0.00060324
     atom   11 type  3   force =     0.00006990    0.00917633    0.00468510
     atom   12 type  3   force =    -0.00300600   -0.00287671   -0.00008036
     atom   13 type  3   force =    -0.00243203   -0.00562715    0.00722311
     atom   14 type  3   force =     0.00515035    0.00356479   -0.00040067
     atom   15 type  3   force =     0.00262891    0.01030420    0.00554627
     atom   16 type  3   force =     0.00345353   -0.00238969   -0.00019548
     atom   17 type  3   force =     0.00415489   -0.00605783    0.00650478
     atom   18 type  4   force =    -0.00002804   -0.00512092   -0.00415512
     atom   19 type  4   force =    -0.00358324    0.00071323    0.00023769
     atom   20 type  4   force =     0.00018464   -0.00258110    0.00462536
     atom   21 type  4   force =     0.00473060   -0.00049406   -0.00240600
     atom   22 type  4   force =     0.00121589   -0.00281985    0.00684489
     atom   23 type  5   force =     0.00186784   -0.00091399   -0.00086940

     Total force =     0.483035     Total SCF correction =     0.026392


     Computing stress (Cartesian axis) and pressure


     negative rho (up, down):  9.097E-01 9.097E-01
          total   stress  (Ry/bohr**3)                   (kbar)     P=       96.37
   0.00074109  -0.00007630  -0.00000073          109.02      -11.22       -0.11
  -0.00007630   0.00078782  -0.00001387          -11.22      115.89       -2.04
  -0.00000073  -0.00001387   0.00043633           -0.11       -2.04       64.19


     Entering Dynamics:    iteration =     2
                           time      =   0.0004 pico-seconds


ATOMIC_POSITIONS (angstrom)
Hf            2.6699999570        2.8271230292        6.6039642186    0   0   0
Hf            1.2529906802        1.2862841814        5.0584662261    0   0   0
Hf            1.2554868986        7.3898042948        5.0880677674    0   0   0
Hf            4.0870092338        1.2862841814        5.0584662261    0   0   0
Hf            4.0845130154        7.3898042948        5.0880677674    0   0   0
Nb            2.6699999570        2.7969306055        3.5155832167    0   0   0
Nb            2.6699999570        5.8763786763        6.6349979432    0   0   0
Ta            1.2093730560        4.3409278516        5.0711258323    0   0   0
Ta            4.1306268580        4.3409278516        5.0711258323    0   0   0
Ta            1.3072503785        1.3141193195        2.0587721589
Ta            1.3027862494        1.3083871628        8.0945857192
Ta            1.3040074717        7.3758297605        2.0462309330
Ta            1.3077085070        7.3650859648        8.0860089843
Ta            4.0327496445        1.3141185971        2.0587722325
Ta            4.0372137878        1.3083865500        8.0945856944
Ta            4.0359919803        7.3758303051        2.0462305831
Ta            4.0322909568        7.3650864695        8.0860092554
Zr            2.6699988904        5.8662913591        3.5273807800
Zr            1.2438044476        4.3220772605        1.9999740374
Zr            1.2403544401        4.3541248319        8.1497820816
Zr            4.0961941344        4.3220778687        1.9999739176
Zr            4.0996439743        4.3541254820        8.1497824018
H             5.1228348309        3.3476739551        5.0721954368


     kinetic energy (Ekin) =           1.79767418 Ry
     temperature           =       13515.72880529 K 
     Ekin + Etot (const)   =       -2941.23784371 Ry
     Ions kinetic stress =           34.72 (kbar)
                                     52.13         -52.08          -0.01
                                    -52.08          52.04           0.01
                                     -0.01           0.01           0.00



     Writing config-only to output data dir outdir/pwscf.save/
     NEW-OLD atomic charge density approx. for the potential

     Check: negative core charge=   -0.000002

     negative rho (up, down):  9.096E-01 9.096E-01
     Generating pointlists ...
     new r_m :   0.0678 (alat units)  1.0944 (a.u.) for type    3
     new r_m :   0.0678 (alat units)  1.0944 (a.u.) for type    5

     total cpu time spent up to now is      359.1 secs

     Self-consistent Calculation

     iteration #  1     ecut=   120.00 Ry     beta= 0.70
     Davidson diagonalization with overlap
     ethr =  1.00E-06,  avg # of iterations = 12.0

     negative rho (up, down):  9.096E-01 9.096E-01

     total cpu time spent up to now is      385.5 secs

     total energy              =   -2942.96939771 Ry
     estimated scf accuracy    <       0.04894331 Ry

     total magnetization       =     0.01 Bohr mag/cell
     absolute magnetization    =     0.03 Bohr mag/cell

     iteration #  2     ecut=   120.00 Ry     beta= 0.70
     Davidson diagonalization with overlap
     ethr =  1.77E-05,  avg # of iterations =  2.0

     negative rho (up, down):  9.096E-01 9.096E-01

     total cpu time spent up to now is      402.2 secs

     total energy              =   -2942.97308638 Ry
     estimated scf accuracy    <       0.02046784 Ry

     total magnetization       =     0.01 Bohr mag/cell
     absolute magnetization    =     0.03 Bohr mag/cell

     iteration #  3     ecut=   120.00 Ry     beta= 0.70
     Davidson diagonalization with overlap
     ethr =  7.39E-06,  avg # of iterations =  1.0

     negative rho (up, down):  9.096E-01 9.096E-01

     total cpu time spent up to now is      432.1 secs

     total energy              =   -2942.97428613 Ry
     estimated scf accuracy    <       0.00144617 Ry

     total magnetization       =     0.01 Bohr mag/cell
     absolute magnetization    =     0.03 Bohr mag/cell

     iteration #  4     ecut=   120.00 Ry     beta= 0.70
     Davidson diagonalization with overlap
     ethr =  5.22E-07,  avg # of iterations =  2.0

     negative rho (up, down):  9.096E-01 9.096E-01

     Magnetic moment per site  (integrated on atomic sphere of radius R)
     atom   1 (R=0.109)  charge=  8.5480  magn=  0.0001
     atom   2 (R=0.109)  charge=  8.2993  magn=  0.0000
     atom   3 (R=0.109)  charge=  8.3000  magn=  0.0001
     atom   4 (R=0.109)  charge=  8.2924  magn=  0.0000
     atom   5 (R=0.109)  charge=  8.3030  magn=  0.0001
     atom   6 (R=0.120)  charge= 10.3476  magn= -0.0001
     atom   7 (R=0.120)  charge= 10.3505  magn=  0.0001
     atom   8 (R=0.068)  charge=  4.4939  magn=  0.0000
     atom   9 (R=0.068)  charge=  4.5160  magn=  0.0000
     atom  10 (R=0.068)  charge=  4.4773  magn=  0.0000
     atom  11 (R=0.068)  charge=  4.4757  magn= -0.0001
     atom  12 (R=0.068)  charge=  4.4747  magn=  0.0002
     atom  13 (R=0.068)  charge=  4.4769  magn= -0.0000
     atom  14 (R=0.068)  charge=  4.4775  magn=  0.0001
     atom  15 (R=0.068)  charge=  4.4762  magn= -0.0000
     atom  16 (R=0.068)  charge=  4.4747  magn=  0.0002
     atom  17 (R=0.068)  charge=  4.4768  magn= -0.0000
     atom  18 (R=0.122)  charge=  9.4547  magn= -0.0001
     atom  19 (R=0.122)  charge=  8.9985  magn=  0.0015
     atom  20 (R=0.122)  charge=  8.9940  magn= -0.0008
     atom  21 (R=0.122)  charge=  9.0016  magn=  0.0016
     atom  22 (R=0.122)  charge=  8.9984  magn= -0.0008
     atom  23 (R=0.068)  charge=  0.8738  magn=  0.0000

     total cpu time spent up to now is      464.0 secs

     End of self-consistent calculation

 ------ SPIN UP ------------


          k = 0.0000 0.0000 0.0000 ( 56324 PWs)   bands (ev):

   -59.7591 -59.7546 -59.7148 -59.7096 -59.6816 -59.6724 -59.6382 -59.6286
   -59.5135 -59.0192 -53.3531 -53.2994 -53.2259 -53.1648 -51.6944 -45.2490
   -45.2211 -40.6281 -40.6034 -40.5272 -40.5201 -38.7930 -26.7657 -26.7584
   -26.6818 -26.6702 -26.5766 -26.5703 -26.4499 -26.4427 -26.3430 -26.3026
   -26.2746 -26.2396 -26.2329 -26.2063 -26.1927 -26.1518 -26.1356 -26.1189
   -26.0723 -25.9462 -25.9421 -25.9339 -25.9294 -25.9068 -25.8683 -25.8671
   -25.8426 -25.8352 -25.7416 -25.6936 -23.1393 -22.9173 -22.6299 -22.5337
   -22.2916 -22.1507 -22.1088 -22.0178 -21.9024 -21.8149 -21.7982 -21.5797
   -21.4838 -21.4290 -21.3647 -21.3186 -21.2574 -21.1987 -20.7468 -20.6880
   -20.6184 -19.1901 -18.9033 -18.8315 -18.8242 -18.5988 -18.5828 -18.5776
   -18.5645 -18.5520 -18.5173 -18.3611 -18.3340 -17.1456 -16.9296 -16.8088
     2.1885   3.2100   3.9426   4.1725   4.3527   4.4984   4.5559   4.6104
     4.7412   4.9269   4.9469   5.1649   5.2531   5.5084   5.5548   5.7105
     5.7658   5.8523   6.0546   6.1150   6.1441   6.2812   6.3110   6.3720
     6.4018   6.5688   6.6713   6.7351   6.7607   6.7812   6.7988   6.8699
     7.0015   7.1187   7.1935   7.2730   7.2864   7.3235   7.3835   7.3896
     7.4223   7.6180   7.7156   7.7646   7.9016   7.9717   7.9996   8.1090
     8.1408   8.2165   8.2739   8.3173   8.3289   8.4437   8.5416   8.5528
     8.6348   8.8228   8.9009   8.9603   9.0915   9.1008   9.2655   9.3143
     9.3279   9.3634   9.3850   9.4403   9.4661   9.6266   9.6992   9.7158
     9.9350   9.9952  10.0847  10.1299  10.1535  10.2695  10.3002

 ------ SPIN DOWN ----------


          k = 0.0000 0.0000 0.0000 ( 56324 PWs)   bands (ev):

   -59.7588 -59.7548 -59.7144 -59.7097 -59.6810 -59.6725 -59.6377 -59.6288
   -59.5134 -59.0192 -53.3531 -53.2994 -53.2259 -53.1648 -51.6943 -45.2491
   -45.2210 -40.6266 -40.6041 -40.5258 -40.5208 -38.7931 -26.7652 -26.7584
   -26.6812 -26.6704 -26.5763 -26.5703 -26.4497 -26.4423 -26.3430 -26.3024
   -26.2745 -26.2392 -26.2330 -26.2061 -26.1925 -26.1517 -26.1351 -26.1189
   -26.0723 -25.9462 -25.9416 -25.9341 -25.9290 -25.9066 -25.8682 -25.8668
   -25.8418 -25.8355 -25.7415 -25.6936 -23.1393 -22.9172 -22.6298 -22.5336
   -22.2916 -22.1506 -22.1087 -22.0177 -21.9024 -21.8148 -21.7982 -21.5797
   -21.4838 -21.4290 -21.3647 -21.3185 -21.2573 -21.1987 -20.7468 -20.6879
   -20.6183 -19.1886 -18.9047 -18.8298 -18.8229 -18.5974 -18.5821 -18.5779
   -18.5650 -18.5526 -18.5179 -18.3590 -18.3351 -17.1456 -16.9295 -16.8086
     2.1886   3.2102   3.9430   4.1726   4.3528   4.4987   4.5561   4.6105
     4.7414   4.9270   4.9473   5.1651   5.2532   5.5084   5.5550   5.7108
     5.7660   5.8527   6.0549   6.1155   6.1440   6.2815   6.3112   6.3723
     6.4021   6.5690   6.6714   6.7359   6.7609   6.7816   6.7989   6.8700
     7.0018   7.1191   7.1937   7.2732   7.2867   7.3238   7.3839   7.3898
     7.4226   7.6182   7.7157   7.7649   7.9019   7.9721   8.0003   8.1095
     8.1415   8.2180   8.2744   8.3178   8.3292   8.4456   8.5420   8.5535
     8.6352   8.8232   8.9012   8.9606   9.0919   9.1013   9.2659   9.3147
     9.3285   9.3639   9.3855   9.4406   9.4665   9.6271   9.6996   9.7161
     9.9353   9.9958  10.0852  10.1301  10.1539  10.2697  10.3006

     the Fermi energy is     8.2634 ev

!    total energy              =   -2942.97408851 Ry
     estimated scf accuracy    <       0.00033700 Ry
     smearing contrib. (-TS)   =      -0.10506149 Ry
     internal energy E=F+TS    =   -2942.86902702 Ry

     total magnetization       =     0.01 Bohr mag/cell
     absolute magnetization    =     0.03 Bohr mag/cell

     convergence has been achieved in   4 iterations

     negative rho (up, down):  9.096E-01 9.096E-01

     Forces acting on atoms (cartesian axes, Ry/au):

     atom    1 type  1   force =    -0.00743247   -0.01980314    0.00524110
     atom    2 type  1   force =    -0.12425009   -0.01520428   -0.00745338
     atom    3 type  1   force =    -0.11973212    0.01536059   -0.00189158
     atom    4 type  1   force =     0.12955760    0.01960694   -0.00869736
     atom    5 type  1   force =     0.13321836    0.00965464   -0.00191011
     atom    6 type  2   force =    -0.00926186   -0.01408161    0.01087623
     atom    7 type  2   force =    -0.00547025    0.01871452   -0.00263403
     atom    8 type  3   force =    -0.12319692   -0.00216994   -0.00454416
     atom    9 type  3   force =    -0.13135561    0.25856567   -0.01055432
     atom   10 type  3   force =    -0.02173071   -0.02751030   -0.05973822
     atom   11 type  3   force =    -0.01890189   -0.03190149    0.06052526
     atom   12 type  3   force =    -0.01995791    0.03077253   -0.05304567
     atom   13 type  3   force =    -0.02072485    0.02336109    0.06310526
     atom   14 type  3   force =     0.02249326   -0.03275854   -0.05913962
     atom   15 type  3   force =     0.01988776   -0.03650085    0.05996069
     atom   16 type  3   force =     0.01508770    0.03526979   -0.05571725
     atom   17 type  3   force =     0.01611826    0.02821470    0.06522478
     atom   18 type  4   force =    -0.00365460    0.02427270   -0.01584664
     atom   19 type  4   force =    -0.13500318   -0.00317890   -0.11334563
     atom   20 type  4   force =    -0.13786927    0.00619326    0.11908503
     atom   21 type  4   force =     0.12850701   -0.00142885   -0.11425509
     atom   22 type  4   force =     0.13057953    0.00835302    0.12110136
     atom   23 type  5   force =     0.28309226   -0.29380157    0.00365335
     The non-local contrib.  to forces
     atom    1 type  1   force =    -0.00035684   -0.01117138    0.02619768
     atom    2 type  1   force =    -0.24727057   -0.15828102    0.01287958
     atom    3 type  1   force =    -0.24432555    0.15746079   -0.03063500
     atom    4 type  1   force =     0.24144470   -0.14434708    0.01293772
     atom    5 type  1   force =     0.24614033    0.16604988   -0.03072783
     atom    6 type  2   force =    -0.00587258   -0.06203801   -0.06677800
     atom    7 type  2   force =     0.00880662    0.06776473    0.06863046
     atom    8 type  3   force =    -0.25341797   -0.00001772   -0.00706369
     atom    9 type  3   force =     0.13980229    0.07290164   -0.00749368
     atom   10 type  3   force =    -0.22221069    0.00668610   -0.21339962
     atom   11 type  3   force =    -0.22890176    0.01238719    0.20253304
     atom   12 type  3   force =    -0.21233073   -0.01955962   -0.19047778
     atom   13 type  3   force =    -0.22092530   -0.00612115    0.21986409
     atom   14 type  3   force =     0.22970659    0.01103391   -0.20954201
     atom   15 type  3   force =     0.23696829    0.01477181    0.20051134
     atom   16 type  3   force =     0.20246120   -0.01941216   -0.19024918
     atom   17 type  3   force =     0.20975417   -0.00343001    0.22251479
     atom   18 type  4   force =     0.00240908    0.05869764   -0.07202422
     atom   19 type  4   force =     0.06888281    0.00986848    0.07284427
     atom   20 type  4   force =     0.06323489   -0.01260247   -0.06513059
     atom   21 type  4   force =    -0.06508730    0.00566032    0.05972619
     atom   22 type  4   force =    -0.05929850   -0.01546620   -0.05743679
     atom   23 type  5   force =    -0.08358937    0.07084798    0.00043812
     The ionic contribution  to forces
     atom    1 type  1   force =    -0.52430326   -4.69625848   14.55622811
     atom    2 type  1   force =   -35.73751443   -6.27662989    0.77863236
     atom    3 type  1   force =   -35.66978832    6.14017389   -0.71275462
     atom    4 type  1   force =    35.12717305   -7.15423589    0.77265564
     atom    5 type  1   force =    35.53312729    6.20228964   -0.71185302
     atom    6 type  2   force =    -0.55559405   -3.66629963  -14.49795866
     atom    7 type  2   force =    -0.21676824    3.79027420   14.30234326
     atom    8 type  3   force =   -47.68852090    0.19010427   -0.06565029
     atom    9 type  3   force =    45.00473333    2.63851258   -0.06830214
     atom   10 type  3   force =   -32.22395772   -2.16123392  -23.54005245
     atom   11 type  3   force =   -31.29276790   -0.91017582   22.54239348
     atom   12 type  3   force =   -31.39026612    0.79731337  -22.54882273
     atom   13 type  3   force =   -32.18272455    2.18645093   23.48021353
     atom   14 type  3   force =    32.07054916   -2.28402742  -23.72754704
     atom   15 type  3   force =    31.14133098   -1.03206468   22.72853458
     atom   16 type  3   force =    31.31632105    0.81561498  -22.60853817
     atom   17 type  3   force =    32.10801771    2.20553289   23.54026288
     atom   18 type  4   force =    -0.20275409    4.55111339  -14.20316685
     atom   19 type  4   force =   -32.20453044    1.00842097  -25.99640632
     atom   20 type  4   force =   -32.17814074   -0.90787798   25.97395321
     atom   21 type  4   force =    32.01729577    1.10283155  -26.29045248
     atom   22 type  4   force =    31.99401642   -0.81196398   26.26373378
     atom   23 type  5   force =     5.75506600   -1.72786498    0.03255391
     The local contribution  to forces
     atom    1 type  1   force =     0.51623274    4.68623591  -14.58276986
     atom    2 type  1   force =    35.86841495    6.42466265   -0.81985064
     atom    3 type  1   force =    35.80143325   -6.28697909    0.72062037
     atom    4 type  1   force =   -35.24391159    7.32107913   -0.81466758
     atom    5 type  1   force =   -35.65460842   -6.36009095    0.72120263
     atom    6 type  2   force =     0.55216866    3.71030209   14.55413938
     atom    7 type  2   force =     0.20120166   -3.84158086  -14.37991156
     atom    8 type  3   force =    47.83810955   -0.19302949    0.04671525
     atom    9 type  3   force =   -45.27646831   -2.47376135    0.04480856
     atom   10 type  3   force =    32.44399238    2.12311756   23.71505024
     atom   11 type  3   force =    31.52555191    0.87006945  -22.69550215
     atom   12 type  3   force =    31.60302832   -0.74320329   22.71038319
     atom   13 type  3   force =    32.40382387   -2.15865992  -23.64965098
     atom   14 type  3   force =   -32.29482536    2.23720241   23.89679000
     atom   15 type  3   force =   -31.37797180    0.98455637  -22.87828908
     atom   16 type  3   force =   -31.52141543   -0.75463000   22.76468185
     atom   17 type  3   force =   -32.31924267   -2.17309926  -23.70837098
     atom   18 type  4   force =     0.19435153   -4.58074086   14.23714369
     atom   19 type  4   force =    32.00779652   -1.02147057   25.82045653
     atom   20 type  4   force =    31.98764109    0.92324287  -25.79085578
     atom   21 type  4   force =   -31.82937789   -1.11209273   26.12245491
     atom   22 type  4   force =   -31.81279287    0.83064514  -26.08284844
     atom   23 type  5   force =    -5.38863945    1.36389656   -0.03205535
     The core correction contribution to forces
     atom    1 type  1   force =     0.00144628    0.00345333   -0.00063352
     atom    2 type  1   force =    -0.01154032   -0.00204807    0.00069248
     atom    3 type  1   force =    -0.01058937    0.00225755   -0.00175271
     atom    4 type  1   force =     0.00474699   -0.00573590    0.00093894
     atom    5 type  1   force =     0.01173462    0.00364184   -0.00207945
     atom    6 type  2   force =     0.00027355    0.00295641    0.00283013
     atom    7 type  2   force =    -0.00025468   -0.00345684   -0.00292985
     atom    8 type  3   force =    -0.02926795   -0.00064918    0.00012780
     atom    9 type  3   force =     0.00926658    0.01430076   -0.00043665
     atom   10 type  3   force =    -0.02305955    0.00917773   -0.01613610
     atom   11 type  3   force =    -0.02457643    0.00984790    0.01671051
     atom   12 type  3   force =    -0.02342532   -0.00899340   -0.01653610
     atom   13 type  3   force =    -0.02346519   -0.00830122    0.01788066
     atom   14 type  3   force =     0.02360293    0.00883917   -0.01509643
     atom   15 type  3   force =     0.02526464    0.01009071    0.01569155
     atom   16 type  3   force =     0.02206953   -0.00964216   -0.01639839
     atom   17 type  3   force =     0.02249225   -0.00868658    0.01768081
     atom   18 type  4   force =     0.00007535   -0.00346044    0.00371370
     atom   19 type  4   force =    -0.01016979    0.00002301   -0.00960375
     atom   20 type  4   force =    -0.00996376    0.00027603    0.00935320
     atom   21 type  4   force =     0.01000263    0.00022219   -0.00871317
     atom   22 type  4   force =     0.00983824    0.00033679    0.00880956
     atom   23 type  5   force =     0.00000000    0.00000000    0.00000000
     The Hubbard contrib.    to forces
     atom    1 type  1   force =     0.00000000    0.00000000    0.00000000
     atom    2 type  1   force =     0.00000000    0.00000000    0.00000000
     atom    3 type  1   force =     0.00000000    0.00000000    0.00000000
     atom    4 type  1   force =     0.00000000    0.00000000    0.00000000
     atom    5 type  1   force =     0.00000000    0.00000000    0.00000000
     atom    6 type  2   force =     0.00000000    0.00000000    0.00000000
     atom    7 type  2   force =     0.00000000    0.00000000    0.00000000
     atom    8 type  3   force =     0.00000000    0.00000000    0.00000000
     atom    9 type  3   force =     0.00000000    0.00000000    0.00000000
     atom   10 type  3   force =     0.00000000    0.00000000    0.00000000
     atom   11 type  3   force =     0.00000000    0.00000000    0.00000000
     atom   12 type  3   force =     0.00000000    0.00000000    0.00000000
     atom   13 type  3   force =     0.00000000    0.00000000    0.00000000
     atom   14 type  3   force =     0.00000000    0.00000000    0.00000000
     atom   15 type  3   force =     0.00000000    0.00000000    0.00000000
     atom   16 type  3   force =     0.00000000    0.00000000    0.00000000
     atom   17 type  3   force =     0.00000000    0.00000000    0.00000000
     atom   18 type  4   force =     0.00000000    0.00000000    0.00000000
     atom   19 type  4   force =     0.00000000    0.00000000    0.00000000
     atom   20 type  4   force =     0.00000000    0.00000000    0.00000000
     atom   21 type  4   force =     0.00000000    0.00000000    0.00000000
     atom   22 type  4   force =     0.00000000    0.00000000    0.00000000
     atom   23 type  5   force =     0.00000000    0.00000000    0.00000000
     The SCF correction term to forces
     atom    1 type  1   force =    -0.00000000   -0.00000000    0.00000000
     atom    2 type  1   force =     0.00000000   -0.00000000    0.00000000
     atom    3 type  1   force =     0.00000000    0.00000000    0.00000000
     atom    4 type  1   force =     0.00000000    0.00000000    0.00000000
     atom    5 type  1   force =    -0.00000000   -0.00000000    0.00000000
     atom    6 type  2   force =    -0.00000000    0.00000000    0.00000000
     atom    7 type  2   force =     0.00000000    0.00000000    0.00000000
     atom    8 type  3   force =     0.00000000    0.00000000    0.00000000
     atom    9 type  3   force =    -0.00000000    0.00000000    0.00000000
     atom   10 type  3   force =     0.00350249   -0.00522541   -0.00630352
     atom   11 type  3   force =     0.00178991   -0.01399785   -0.00671284
     atom   12 type  3   force =     0.00303356    0.00524782   -0.00869547
     atom   13 type  3   force =     0.00256395    0.01002480   -0.00630527
     atom   14 type  3   force =    -0.00654244   -0.00577427   -0.00484736
     atom   15 type  3   force =    -0.00570674   -0.01382270   -0.00759092
     atom   16 type  3   force =    -0.00435102    0.00337148   -0.00631657
     atom   17 type  3   force =    -0.00490557    0.00793002   -0.00796593
     atom   18 type  4   force =     0.00226115   -0.00130466    0.01738382
     atom   19 type  4   force =     0.00301535    0.00001157   -0.00173958
     atom   20 type  4   force =    -0.00064314    0.00318717   -0.00933823
     atom   21 type  4   force =    -0.00432859    0.00198219    0.00162625
     atom   22 type  4   force =    -0.00118614    0.00483363   -0.01225997
     atom   23 type  5   force =     0.00025270   -0.00064879    0.00161345

     Total force =     0.576397     Total SCF correction =     0.042504


     Computing stress (Cartesian axis) and pressure


     negative rho (up, down):  9.096E-01 9.096E-01
          total   stress  (Ry/bohr**3)                   (kbar)     P=      100.35
   0.00077132  -0.00010710  -0.00000100          113.47      -15.76       -0.15
  -0.00010710   0.00083749  -0.00001302          -15.76      123.20       -1.92
  -0.00000100  -0.00001302   0.00043771           -0.15       -1.92       64.39


     Entering Dynamics:    iteration =     3
                           time      =   0.0006 pico-seconds


ATOMIC_POSITIONS (angstrom)
Hf            2.6699999570        2.8271230292        6.6039642186    0   0   0
Hf            1.2529906802        1.2862841814        5.0584662261    0   0   0
Hf            1.2554868986        7.3898042948        5.0880677674    0   0   0
Hf            4.0870092338        1.2862841814        5.0584662261    0   0   0
Hf            4.0845130154        7.3898042948        5.0880677674    0   0   0
[...]
     4.7372   4.9284   4.9484   5.1614   5.2479   5.5066   5.5554   5.7115
     5.7680   5.8522   6.0562   6.1202   6.1456   6.2820   6.3078   6.3726
     6.4044   6.5683   6.6664   6.7375   6.7609   6.7829   6.7944   6.8705
     7.0023   7.1155   7.1917   7.2695   7.2893   7.3237   7.3832   7.3917
     7.4233   7.6182   7.7121   7.7649   7.9002   7.9713   8.0002   8.1117
     8.1417   8.2171   8.2738   8.3137   8.3302   8.4441   8.5434   8.5544
     8.6347   8.8220   8.9027   8.9588   9.0947   9.1060   9.2669   9.3110
     9.3294   9.3643   9.3859   9.4393   9.4667   9.6256   9.6980   9.7149
     9.9322   9.9922  10.0840  10.1290  10.1496  10.2636  10.3010

     the Fermi energy is     8.2633 ev

!    total energy              =   -2942.98914428 Ry
     estimated scf accuracy    <       0.00059085 Ry
     smearing contrib. (-TS)   =      -0.10506573 Ry
     internal energy E=F+TS    =   -2942.88407856 Ry

     total magnetization       =     0.00 Bohr mag/cell
     absolute magnetization    =     0.00 Bohr mag/cell

     convergence has been achieved in   4 iterations

     negative rho (up, down):  9.095E-01 9.095E-01

     Forces acting on atoms (cartesian axes, Ry/au):

     atom    1 type  1   force =    -0.00767352   -0.01879034    0.00784893
     atom    2 type  1   force =    -0.12468177   -0.01444316    0.00633244
     atom    3 type  1   force =    -0.12015100    0.01445598    0.01304814
     atom    4 type  1   force =     0.13140883    0.02350270    0.00553765
     atom    5 type  1   force =     0.13376619    0.00587937    0.01311741
     atom    6 type  2   force =    -0.00949067   -0.01199652    0.00764394
     atom    7 type  2   force =    -0.00569472    0.01767042   -0.00519801
     atom    8 type  3   force =    -0.11981601   -0.00147052   -0.00065506
     atom    9 type  3   force =    -0.11544667    0.24649153   -0.00883732
     atom   10 type  3   force =    -0.02168339   -0.02668864   -0.06435853
     atom   11 type  3   force =    -0.01889898   -0.03499968    0.05442568
     atom   12 type  3   force =    -0.02019953    0.03012919   -0.05858454
     atom   13 type  3   force =    -0.02069396    0.02572636    0.05706064
     atom   14 type  3   force =     0.02160747   -0.03221473   -0.06394492
     atom   15 type  3   force =     0.01927381   -0.03978187    0.05385676
     atom   16 type  3   force =     0.01477652    0.03446616   -0.06103109
     atom   17 type  3   force =     0.01556676    0.03070912    0.05909282
     atom   18 type  4   force =    -0.00330671    0.02057802   -0.01308935
     atom   19 type  4   force =    -0.13249042   -0.00311041   -0.11496769
     atom   20 type  4   force =    -0.13787401    0.00697886    0.11184275
     atom   21 type  4   force =     0.12561708   -0.00090545   -0.11490764
     atom   22 type  4   force =     0.12996550    0.00933556    0.11313902
     atom   23 type  5   force =     0.26611919   -0.28152193    0.00262796
     The non-local contrib.  to forces
     atom    1 type  1   force =     0.00019600   -0.01143658    0.02636405
     atom    2 type  1   force =    -0.24697753   -0.15789559    0.02186908
     atom    3 type  1   force =    -0.24454833    0.15702579   -0.02125801
     atom    4 type  1   force =     0.24281014   -0.14026331    0.02187015
     atom    5 type  1   force =     0.24660138    0.16379701   -0.02141882
     atom    6 type  2   force =    -0.00576933   -0.06298931   -0.06494293
     atom    7 type  2   force =     0.00865941    0.06828472    0.06805844
     atom    8 type  3   force =    -0.25020571    0.00022930   -0.00104710
     atom    9 type  3   force =     0.13247589    0.08129047   -0.00164658
     atom   10 type  3   force =    -0.22325584    0.00742768   -0.21552876
     atom   11 type  3   force =    -0.22776017    0.00943903    0.19893370
     atom   12 type  3   force =    -0.21348056   -0.02021248   -0.19272796
     atom   13 type  3   force =    -0.21932766   -0.00399563    0.21580181
     atom   14 type  3   force =     0.23063848    0.01156721   -0.21162314
     atom   15 type  3   force =     0.23561288    0.01165955    0.19731538
     atom   16 type  3   force =     0.20401759   -0.02039298   -0.19203446
     atom   17 type  3   force =     0.20831201   -0.00112862    0.21856937
     atom   18 type  4   force =     0.00286692    0.05834647   -0.06585161
     atom   19 type  4   force =     0.06892844    0.00997843    0.07263857
     atom   20 type  4   force =     0.06147339   -0.01189430   -0.06800754
     atom   21 type  4   force =    -0.06587399    0.00621672    0.05990149
     atom   22 type  4   force =    -0.05792454   -0.01461575   -0.06062354
     atom   23 type  5   force =    -0.08023833    0.06813938   -0.00051721
     The ionic contribution  to forces
     atom    1 type  1   force =    -0.52993471   -4.65272300   14.57773394
     atom    2 type  1   force =   -35.72613024   -6.26710411    0.77814483
     atom    3 type  1   force =   -35.65785060    6.12847919   -0.71197078
     atom    4 type  1   force =    35.10166629   -7.16268619    0.76838950
     atom    5 type  1   force =    35.52205516    6.18715075   -0.71053950
     atom    6 type  2   force =    -0.55625171   -3.61690565  -14.51864293
     atom    7 type  2   force =    -0.21555705    3.74525514   14.31630247
     atom    8 type  3   force =   -47.65603173    0.19340908   -0.06902082
     atom    9 type  3   force =    45.04857367    2.61983201   -0.08981079
     atom   10 type  3   force =   -32.20234408   -2.13938108  -23.50367621
     atom   11 type  3   force =   -31.27207715   -0.88862077   22.50694675
     atom   12 type  3   force =   -31.37327685    0.77710131  -22.51414622
     atom   13 type  3   force =   -32.16163102    2.16626740   23.44323870
     atom   14 type  3   force =    32.04877102   -2.26083289  -23.69287896
     atom   15 type  3   force =    31.11904154   -1.01092956   22.69688971
     atom   16 type  3   force =    31.29923758    0.79506174  -22.57530160
     atom   17 type  3   force =    32.08623118    2.18392681   23.50384987
     atom   18 type  4   force =    -0.19905836    4.50074207  -14.21421131
     atom   19 type  4   force =   -32.14935377    1.00698320  -25.91000733
     atom   20 type  4   force =   -32.12310880   -0.90759707   25.88844958
     atom   21 type  4   force =    31.96500830    1.10017201  -26.20306577
     atom   22 type  4   force =    31.93907236   -0.81047398   26.18044658
     atom   23 type  5   force =     5.69294896   -1.68712639    0.05288029
     The local contribution  to forces
     atom    1 type  1   force =     0.52224748    4.64268375  -14.58633305
     atom    2 type  1   force =    35.85668341    6.41781216   -0.76523260
     atom    3 type  1   force =    35.79052568   -6.27829843    0.77791891
     atom    4 type  1   force =   -35.20845002    7.34221760   -0.75530882
     atom    5 type  1   force =   -35.64214493   -6.35662203    0.77781782
     atom    6 type  2   force =     0.55259514    3.67816796   14.61614768
     atom    7 type  2   force =     0.20392011   -3.79257397  -14.37606718
     atom    8 type  3   force =    47.81514285   -0.19399276    0.09684119
     atom    9 type  3   force =   -45.30193884   -2.46522426    0.11057036
     atom   10 type  3   force =    32.42502304    2.10459628   23.66673534
     atom   11 type  3   force =    31.50368208    0.82844424  -22.67882351
     atom   12 type  3   force =    31.58742295   -0.72676429   22.65893252
     atom   13 type  3   force =    32.38155720   -2.12418300  -23.62983596
     atom   14 type  3   force =   -32.27883746    2.21724088   23.85152388
     atom   15 type  3   force =   -31.35513185    0.94273350  -22.86699142
     atom   16 type  3   force =   -31.50755910   -0.74013207   22.71776795
     atom   17 type  3   force =   -32.29600274   -2.13793167  -23.69192575
     atom   18 type  4   force =     0.19416304   -4.54707670   14.28996616
     atom   19 type  4   force =    31.95839326   -1.01951738   25.73322205
     atom   20 type  4   force =    31.92715862    0.92763920  -25.73035834
     atom   21 type  4   force =   -31.78334624   -1.10659208   26.03852114
     atom   22 type  4   force =   -31.75301005    0.83542263  -26.02793762
     atom   23 type  5   force =    -5.34498938    1.33681810   -0.04576522
     The core correction contribution to forces
     atom    1 type  1   force =     0.00151018    0.00355550   -0.00088909
     atom    2 type  1   force =    -0.01145820   -0.00210007    0.00079026
     atom    3 type  1   force =    -0.01057300    0.00229186   -0.00166205
     atom    4 type  1   force =     0.00454443   -0.00565044    0.00106469
     atom    5 type  1   force =     0.01173611    0.00352476   -0.00194913
     atom    6 type  2   force =     0.00026473    0.00298983    0.00278021
     atom    7 type  2   force =    -0.00026092   -0.00348932   -0.00288037
     atom    8 type  3   force =    -0.02911258   -0.00060216    0.00014537
     atom    9 type  3   force =     0.00916217    0.01453556   -0.00046798
     atom   10 type  3   force =    -0.02315580    0.00922208   -0.01617713
     atom   11 type  3   force =    -0.02441325    0.00983746    0.01653334
     atom   12 type  3   force =    -0.02355801   -0.00902388   -0.01653640
     atom   13 type  3   force =    -0.02325109   -0.00832303    0.01766274
     atom   14 type  3   force =     0.02374529    0.00890407   -0.01517352
     atom   15 type  3   force =     0.02510466    0.01010962    0.01554215
     atom   16 type  3   force =     0.02220041   -0.00969452   -0.01644674
     atom   17 type  3   force =     0.02222033   -0.00868632    0.01747771
     atom   18 type  4   force =     0.00005594   -0.00350625    0.00365470
     atom   19 type  4   force =    -0.01014949    0.00001745   -0.00959236
     atom   20 type  4   force =    -0.00992446    0.00026879    0.00935035
     atom   21 type  4   force =     0.01001245    0.00020895   -0.00869651
     atom   22 type  4   force =     0.00981550    0.00032823    0.00879441
     atom   23 type  5   force =     0.00000000    0.00000000    0.00000000
     The Hubbard contrib.    to forces
     atom    1 type  1   force =     0.00000000    0.00000000    0.00000000
     atom    2 type  1   force =     0.00000000    0.00000000    0.00000000
     atom    3 type  1   force =     0.00000000    0.00000000    0.00000000
     atom    4 type  1   force =     0.00000000    0.00000000    0.00000000
     atom    5 type  1   force =     0.00000000    0.00000000    0.00000000
     atom    6 type  2   force =     0.00000000    0.00000000    0.00000000
     atom    7 type  2   force =     0.00000000    0.00000000    0.00000000
     atom    8 type  3   force =     0.00000000    0.00000000    0.00000000
     atom    9 type  3   force =     0.00000000    0.00000000    0.00000000
     atom   10 type  3   force =     0.00000000    0.00000000    0.00000000
     atom   11 type  3   force =     0.00000000    0.00000000    0.00000000
     atom   12 type  3   force =     0.00000000    0.00000000    0.00000000
     atom   13 type  3   force =     0.00000000    0.00000000    0.00000000
     atom   14 type  3   force =     0.00000000    0.00000000    0.00000000
     atom   15 type  3   force =     0.00000000    0.00000000    0.00000000
     atom   16 type  3   force =     0.00000000    0.00000000    0.00000000
     atom   17 type  3   force =     0.00000000    0.00000000    0.00000000
     atom   18 type  4   force =     0.00000000    0.00000000    0.00000000
     atom   19 type  4   force =     0.00000000    0.00000000    0.00000000
     atom   20 type  4   force =     0.00000000    0.00000000    0.00000000
     atom   21 type  4   force =     0.00000000    0.00000000    0.00000000
     atom   22 type  4   force =     0.00000000    0.00000000    0.00000000
     atom   23 type  5   force =     0.00000000    0.00000000    0.00000000
     The SCF correction term to forces
     atom    1 type  1   force =    -0.00000000   -0.00000000   -0.00000000
     atom    2 type  1   force =     0.00000000   -0.00000000   -0.00000000
     atom    3 type  1   force =     0.00000000    0.00000000   -0.00000000
     atom    4 type  1   force =    -0.00000000   -0.00000000   -0.00000000
     atom    5 type  1   force =    -0.00000000    0.00000000   -0.00000000
     atom    6 type  2   force =    -0.00000000   -0.00000000   -0.00000000
     atom    7 type  2   force =    -0.00000000    0.00000000   -0.00000000
     atom    8 type  3   force =     0.00000000   -0.00000000   -0.00000000
     atom    9 type  3   force =    -0.00000000   -0.00000000   -0.00000000
     atom   10 type  3   force =     0.00229515   -0.00856209    0.00592085
     atom   11 type  3   force =     0.00191536    0.00589187    0.01246802
     atom   12 type  3   force =     0.00293879    0.00902006    0.00752614
     atom   13 type  3   force =     0.00220446   -0.00404788    0.01182597
     atom   14 type  3   force =    -0.00246401   -0.00910249    0.00583944
     atom   15 type  3   force =    -0.00510756    0.00663652    0.01273356
     atom   16 type  3   force =    -0.00287411    0.00961550    0.00661638
     atom   17 type  3   force =    -0.00494816   -0.00547958    0.01275424
     atom   18 type  4   force =    -0.00108840    0.01206393   -0.02501469
     atom   19 type  4   force =    -0.00006300   -0.00058060    0.00040399
     atom   20 type  4   force =     0.00677309   -0.00144626    0.01404131
     atom   21 type  4   force =     0.00006241   -0.00091954    0.00006464
     atom   22 type  4   force =    -0.00774192   -0.00133407    0.01409181
     atom   23 type  5   force =    -0.00135622    0.00063848   -0.00233728

     Total force =     0.557689     Total SCF correction =     0.051177


     Computing stress (Cartesian axis) and pressure


     negative rho (up, down):  9.095E-01 9.095E-01
          total   stress  (Ry/bohr**3)                   (kbar)     P=       98.49
   0.00075362  -0.00010463  -0.00000131          110.86      -15.39       -0.19
  -0.00010463   0.00082414  -0.00001400          -15.39      121.23       -2.06
  -0.00000131  -0.00001400   0.00043083           -0.19       -2.06       63.38


     Entering Dynamics:    iteration =    20
                           time      =   0.0041 pico-seconds


ATOMIC_POSITIONS (angstrom)
Hf            2.6699999570        2.8271230292        6.6039642186    0   0   0
Hf            1.2529906802        1.2862841814        5.0584662261    0   0   0
Hf            1.2554868986        7.3898042948        5.0880677674    0   0   0
Hf            4.0870092338        1.2862841814        5.0584662261    0   0   0
Hf            4.0845130154        7.3898042948        5.0880677674    0   0   0
Nb            2.6699999570        2.7969306055        3.5155832167    0   0   0
Nb            2.6699999570        5.8763786763        6.6349979432    0   0   0
Ta            1.2093730560        4.3409278516        5.0711258323    0   0   0
Ta            4.1306268580        4.3409278516        5.0711258323    0   0   0
Ta            1.3069954180        1.3138098932        2.0580764505
Ta            1.3025589283        1.3080066712        8.0952390213
Ta            1.3037798532        7.3762025702        2.0455966287
Ta            1.3074709603        7.3653678510        8.0867064465
Ta            4.0329842587        1.3137619002        2.0581006468
Ta            4.0374231919        1.3079726699        8.0952060907
Ta            4.0361391164        7.3762126837        2.0455947174
Ta            4.0324483950        7.3654069488        8.0867032803
Zr            2.6701279562        5.8667053308        3.5271135807
Zr            1.2407735304        4.3220038935        1.9974284129
Zr            1.2372392691        4.3542823415        8.1523684820
Zr            4.0990613900        4.3220475895        1.9974745499
Zr            4.1025716110        4.3543503173        8.1523434604
H             5.1881811741        3.2566956421        5.0813182025


     kinetic energy (Ekin) =           1.75234681 Ry
     temperature           =       13174.93708804 K 
     Ekin + Etot (const)   =       -2941.23679747 Ry
     Ions kinetic stress =           33.85 (kbar)
                                     48.69         -50.56           0.74
                                    -50.56          52.69          -0.77
                                      0.74          -0.77           0.16



     The maximum number of steps has been reached.

     End of molecular dynamics calculation

     diffusion coefficients :
     atom     1   D =       0.00000000 cm^2/s
     atom     2   D =       0.00000000 cm^2/s
     atom     3   D =       0.00000000 cm^2/s
     atom     4   D =       0.00000000 cm^2/s
     atom     5   D =       0.00000000 cm^2/s
     atom     6   D =       0.00000000 cm^2/s
     atom     7   D =       0.00000000 cm^2/s
     atom     8   D =       0.00000000 cm^2/s
     atom     9   D =       0.00000000 cm^2/s
     atom    10   D =       0.00000000 cm^2/s
     atom    11   D =       0.00000000 cm^2/s
     atom    12   D =       0.00000000 cm^2/s
     atom    13   D =       0.00000000 cm^2/s
     atom    14   D =       0.00000000 cm^2/s
     atom    15   D =       0.00000000 cm^2/s
     atom    16   D =       0.00000000 cm^2/s
     atom    17   D =       0.00000000 cm^2/s
     atom    18   D =       0.00000000 cm^2/s
     atom    19   D =       0.00000007 cm^2/s
     atom    20   D =       0.00000007 cm^2/s
     atom    21   D =       0.00000006 cm^2/s
     atom    22   D =       0.00000006 cm^2/s
     atom    23   D =       0.00003217 cm^2/s

     < D > =       0.00000232 cm^2/s

     Writing all to output data dir outdir/pwscf.save/

     init_run     :      8.01s CPU     10.28s WALL (       1 calls)
     electrons    :   1505.75s CPU   1884.89s WALL (      20 calls)
     update_pot   :     18.08s CPU     18.54s WALL (      19 calls)
     forces       :    206.85s CPU    250.80s WALL (      20 calls)
     stress       :    317.96s CPU    361.73s WALL (      20 calls)

     Called by init_run:
     wfcinit      :      5.95s CPU      7.59s WALL (       1 calls)
     potinit      :      0.29s CPU      0.46s WALL (       1 calls)
     hinit0       :      0.79s CPU      1.01s WALL (       1 calls)

     Called by electrons:
     c_bands      :   1189.06s CPU   1500.85s WALL (      98 calls)
     sum_band     :    206.45s CPU    245.85s WALL (      98 calls)
     v_of_rho     :      9.08s CPU     10.92s WALL (     118 calls)
     newd         :    125.52s CPU    154.28s WALL (     118 calls)
     mix_rho      :      0.74s CPU      1.03s WALL (      98 calls)

     Called by c_bands:
     init_us_2    :      3.28s CPU      3.38s WALL (     474 calls)
     init_us_2:cp :      3.27s CPU      3.38s WALL (     474 calls)
     regterg      :   1177.45s CPU   1486.73s WALL (     196 calls)

     Called by *egterg:
     rdiaghg      :     47.66s CPU     58.82s WALL (    1274 calls)
     h_psi        :    582.32s CPU    665.59s WALL (    1314 calls)
     s_psi        :    173.05s CPU    173.38s WALL (    1314 calls)
     g_psi        :      0.48s CPU      0.53s WALL (    1116 calls)

     Called by h_psi:
     h_psi:calbec :    278.35s CPU    349.91s WALL (    1314 calls)
     vloc_psi     :     66.51s CPU     77.48s WALL (    1314 calls)
     add_vuspsi   :    236.45s CPU    237.13s WALL (    1314 calls)

     General routines
     calbec       :    533.32s CPU    683.17s WALL (    1710 calls)
     fft          :      6.51s CPU     15.61s WALL (    2469 calls)
     ffts         :      0.16s CPU      0.21s WALL (      98 calls)
     fftw         :     70.60s CPU     83.09s WALL (  100110 calls)

     Parallel routines

     PWSCF        :  34m42.09s CPU  42m35.75s WALL


   This run was terminated on:  20:34:50  11Jun2023            

=------------------------------------------------------------------------------=
   JOB DONE.
=------------------------------------------------------------------------------=
