
     Program PWSCF v.7.2 starts on 13Jun2023 at 17:14: 1 

     This program is part of the open-source Quantum ESPRESSO suite
     for quantum simulation of materials; please cite
         "P. Giannozzi et al., J. Phys.:Condens. Matter 21 395502 (2009);
         "P. Giannozzi et al., J. Phys.:Condens. Matter 29 465901 (2017);
         "P. Giannozzi et al., J. Chem. Phys. 152 154105 (2020);
          URL http://www.quantum-espresso.org", 
     in publications or presentations arising from this work. More details at
     http://www.quantum-espresso.org/quote

     Parallel version (MPI), running on    42 processors

     MPI processes distributed on     1 nodes
     179390 MiB available memory on the printing compute node when the environment starts

     Reading input from md_data/md_Hf5Nb2Ta10Zr5H_20steps_100eV_incident60_polar90.in
Warning: card &CELL ignored
Warning: card / ignored

     Current dimensions of program PWSCF are:
     Max number of different atomic species (ntypx) = 10
     Max number of k-points (npk) =  40000
     Max angular momentum in pseudopotentials (lmaxx) =  4

     File outdir/pwscf.md deleted, as requested

     gamma-point specific algorithms are used

     R & G space division:  proc/nbgrp/npool/nimage =      42
     Subspace diagonalization in iterative solution of the eigenvalue problem:
     one sub-group per band group will be used
     custom distributed-memory algorithm (size of sub-group:  2*  2 procs)


     Parallelization info
     --------------------
     sticks:   dense  smooth     PW     G-vecs:    dense   smooth      PW
     Min         262     262     63                23470    23470    2920
     Max         265     265     66                23484    23484    2942
     Sum       11057   11057   2753               986005   986005  123175

     Using Slab Decomposition



     bravais-lattice index     =            0
     lattice parameter (alat)  =      17.6500  a.u.
     unit-cell volume          =    5552.8853 (a.u.)^3
     number of atoms/cell      =           23
     number of atomic types    =            5
     number of electrons       =       277.00
     number of Kohn-Sham states=          167
     kinetic-energy cutoff     =     120.0000  Ry
     charge density cutoff     =     480.0000  Ry
     scf convergence threshold =      1.0E-03
     mixing beta               =       0.7000
     number of iterations used =            8  TF        mixing
     energy convergence thresh.=      0.0E+00
     force convergence thresh. =      0.0E+00
     Exchange-correlation=  SLA  PW   PBX  PBC
                           (   1   4   3   4   0   0   0)
     nstep                     =           20


     celldm(1)=  17.650041  celldm(2)=   0.000000  celldm(3)=   0.000000
     celldm(4)=   0.000000  celldm(5)=   0.000000  celldm(6)=   0.000000

     crystal axes: (cart. coord. in units of alat)
               a(1) = (   1.000000   0.000000   0.000000 )  
               a(2) = (   0.000000   0.929336   0.000000 )  
               a(3) = (   0.000000   0.000000   1.086698 )  

     reciprocal axes: (cart. coord. in units 2 pi/alat)
               b(1) = (  1.000000  0.000000  0.000000 )  
               b(2) = (  0.000000  1.076037  0.000000 )  
               b(3) = (  0.000000  0.000000  0.920219 )  


     PseudoPot. # 1 for Hf read from file:
     q-e/pseudo/hf_pbe_v1.uspp.F.UPF
     MD5 check sum: 8ee9378dfe14276e333edf04c5e4aa26
     Pseudo is Ultrasoft + core correction, Zval = 12.0
     Generated by new atomic code, or converted to UPF format
     Using radial grid of  921 points,  8 beta functions with: 
                l(1) =   0
                l(2) =   0
                l(3) =   0
                l(4) =   1
                l(5) =   1
                l(6) =   2
                l(7) =   2
                l(8) =   3
     Q(r) pseudized with  6 coefficients,  rinner =    1.200   1.200   1.200
                                                       1.200   1.200   1.200
                                                       1.200

     PseudoPot. # 2 for Nb read from file:
     q-e/pseudo/nb_pbe_v1.uspp.F.UPF
     MD5 check sum: 573aab8a2fa660278ed4a62cd769473f
     Pseudo is Ultrasoft + core correction, Zval = 13.0
     Generated by new atomic code, or converted to UPF format
     Using radial grid of  887 points,  6 beta functions with: 
                l(1) =   0
                l(2) =   0
                l(3) =   1
                l(4) =   1
                l(5) =   2
                l(6) =   2
     Q(r) pseudized with  6 coefficients,  rinner =    1.000   1.000   1.000
                                                       1.000   1.000

     PseudoPot. # 3 for Ta read from file:
     q-e/pseudo/ta_pbe_v1.uspp.F.UPF
     MD5 check sum: f8bbe9446314a3b8ea5d9f3e3836c939
     Pseudo is Ultrasoft + core correction, Zval = 13.0
     Generated by new atomic code, or converted to UPF format
     Using radial grid of  921 points,  7 beta functions with: 
                l(1) =   0
                l(2) =   0
                l(3) =   1
                l(4) =   1
                l(5) =   2
                l(6) =   2
                l(7) =   3
     Q(r) pseudized with  6 coefficients,  rinner =    1.300   1.300   1.300
                                                       1.300   1.300   1.300
                                                       1.300

     PseudoPot. # 4 for Zr read from file:
     q-e/pseudo/zr_pbe_v1.uspp.F.UPF
     MD5 check sum: 5db81b1e868ab7776c4564c113de050b
     Pseudo is Ultrasoft + core correction, Zval = 12.0
     Generated by new atomic code, or converted to UPF format
     Using radial grid of  887 points,  6 beta functions with: 
                l(1) =   0
                l(2) =   0
                l(3) =   1
                l(4) =   1
                l(5) =   2
                l(6) =   2
     Q(r) pseudized with  6 coefficients,  rinner =    1.200   1.200   1.200
                                                       1.200   1.200

     PseudoPot. # 5 for H  read from file:
     q-e/pseudo/h_pbe_v1.4.uspp.F.UPF
     MD5 check sum: 761ae9a214b05c3daf00ab9f6b793d6f
     Pseudo is Ultrasoft, Zval =  1.0
     Generated by new atomic code, or converted to UPF format
     Using radial grid of  615 points,  2 beta functions with: 
                l(1) =   0
                l(2) =   0
     Q(r) pseudized with  8 coefficients,  rinner =    0.700

     atomic species   valence    mass     pseudopotential
        Hf            12.00   178.49000     Hf( 1.00)
        Nb            13.00    92.90637     Nb( 1.00)
        Ta            13.00   180.94788     Ta( 1.00)
        Zr            12.00    91.22400     Zr( 1.00)
        H              1.00     2.01400     H ( 1.00)

     Starting magnetic structure 
     atomic species   magnetization
        Hf           0.000
        Nb           0.000
        Ta           0.000
        Zr           0.000
        H            0.000

     No symmetry found



   Cartesian axes

     site n.     atom                  positions (alat units)
         1           Hf  tau(   1) = (   0.2858672   0.3026898   0.7070626  )
         2           Hf  tau(   2) = (   0.1341532   0.1377178   0.5415917  )
         3           Hf  tau(   3) = (   0.1344204   0.7911996   0.5447610  )
         4           Hf  tau(   4) = (   0.4375813   0.1377178   0.5415917  )
         5           Hf  tau(   5) = (   0.4373140   0.7911996   0.5447610  )
         6           Nb  tau(   6) = (   0.2858672   0.2994572   0.3764008  )
         7           Nb  tau(   7) = (   0.2858672   0.6291626   0.7103852  )
         8           Ta  tau(   8) = (   0.1294832   0.4647675   0.5429471  )
         9           Ta  tau(   9) = (   0.4422513   0.4647675   0.5429471  )
        10           Ta  tau(  10) = (   0.1399628   0.1406984   0.2204260  )
        11           Ta  tau(  11) = (   0.1394848   0.1400847   0.8666573  )
        12           Ta  tau(  12) = (   0.1396156   0.7897030   0.2190832  )
        13           Ta  tau(  13) = (   0.1400119   0.7885528   0.8657390  )
        14           Ta  tau(  14) = (   0.4317717   0.1406984   0.2204260  )
        15           Ta  tau(  15) = (   0.4322496   0.1400847   0.8666573  )
        16           Ta  tau(  16) = (   0.4321189   0.7897030   0.2190832  )
        17           Ta  tau(  17) = (   0.4317226   0.7885528   0.8657390  )
        18           Zr  tau(  18) = (   0.2858672   0.6280820   0.3776642  )
        19           Zr  tau(  19) = (   0.1331729   0.4627493   0.2141328  )
        20           Zr  tau(  20) = (   0.1328036   0.4661802   0.8725649  )
        21           Zr  tau(  21) = (   0.4385616   0.4627493   0.2141328  )
        22           Zr  tau(  22) = (   0.4389309   0.4661802   0.8725649  )
        23           H   tau(  23) = (   0.5493177   0.4646681   0.7285044  )

     number of k points=     1  Gaussian smearing, width (Ry)=  0.0220
                       cart. coord. in units 2pi/alat
        k(    1) = (   0.0000000   0.0000000   0.0000000), wk =   1.0000000

     Dense  grid:   493003 G-vectors     FFT dimensions: ( 125, 120, 135)

     Estimated max dynamical RAM per process >     133.03 MB

     Estimated total dynamical RAM >       5.46 GB

     Check: negative core charge=   -0.000002
     Generating pointlists ...
     new r_m :   0.1117 (alat units)  1.9717 (a.u.) for type    1
     new r_m :   0.1098 (alat units)  1.9374 (a.u.) for type    2
     new r_m :   0.0884 (alat units)  1.5597 (a.u.) for type    3
     new r_m :   0.0749 (alat units)  1.3214 (a.u.) for type    4
     new r_m :   0.0749 (alat units)  1.3214 (a.u.) for type    5

     Initial potential from superposition of free atoms

     starting charge     266.9726, renormalised to     277.0000

     negative rho (up, down):  9.216E-01 9.216E-01
     Starting wfcs are  287 randomized atomic wfcs

     total cpu time spent up to now is       12.7 secs

     Self-consistent Calculation

     iteration #  1     ecut=   120.00 Ry     beta= 0.70
     Davidson diagonalization with overlap
     ethr =  1.00E-02,  avg # of iterations =  2.0

     negative rho (up, down):  9.973E-01 9.968E-01

     total cpu time spent up to now is       33.0 secs

     total energy              =   -2930.56885715 Ry
     estimated scf accuracy    <     276.33954164 Ry

     total magnetization       =    -0.00 Bohr mag/cell
     absolute magnetization    =     0.09 Bohr mag/cell

     iteration #  2     ecut=   120.00 Ry     beta= 0.70
     Davidson diagonalization with overlap
     ethr =  1.00E-02,  avg # of iterations =  5.0

     negative rho (up, down):  9.670E-01 9.691E-01

     total cpu time spent up to now is       76.1 secs

     total energy              =   -2942.26739736 Ry
     estimated scf accuracy    <      29.80125270 Ry

     total magnetization       =    -0.12 Bohr mag/cell
     absolute magnetization    =     0.52 Bohr mag/cell

     iteration #  3     ecut=   120.00 Ry     beta= 0.70
     Davidson diagonalization with overlap
     ethr =  1.00E-02,  avg # of iterations =  2.0

     negative rho (up, down):  9.996E-01 1.004E+00

     total cpu time spent up to now is      115.3 secs

     total energy              =   -2942.69255299 Ry
     estimated scf accuracy    <      12.94947958 Ry

     total magnetization       =    -0.15 Bohr mag/cell
     absolute magnetization    =     0.62 Bohr mag/cell

     iteration #  4     ecut=   120.00 Ry     beta= 0.70
     Davidson diagonalization with overlap
     ethr =  4.67E-03,  avg # of iterations =  3.0

     negative rho (up, down):  1.003E+00 1.015E+00

     total cpu time spent up to now is      132.9 secs

     total energy              =   -2942.89440845 Ry
     estimated scf accuracy    <       3.32864640 Ry

     total magnetization       =    -0.16 Bohr mag/cell
     absolute magnetization    =     0.79 Bohr mag/cell

     iteration #  5     ecut=   120.00 Ry     beta= 0.70
     Davidson diagonalization with overlap
     ethr =  1.20E-03,  avg # of iterations =  8.0

     negative rho (up, down):  9.812E-01 9.892E-01

     total cpu time spent up to now is      156.0 secs

     total energy              =   -2943.06246245 Ry
     estimated scf accuracy    <       1.86874597 Ry

     total magnetization       =    -0.18 Bohr mag/cell
     absolute magnetization    =     0.46 Bohr mag/cell

     iteration #  6     ecut=   120.00 Ry     beta= 0.70
     Davidson diagonalization with overlap
     ethr =  6.75E-04,  avg # of iterations =  2.0

     negative rho (up, down):  9.672E-01 9.723E-01

     total cpu time spent up to now is      173.2 secs

     total energy              =   -2943.11242242 Ry
     estimated scf accuracy    <       0.90308425 Ry

     total magnetization       =    -0.10 Bohr mag/cell
     absolute magnetization    =     0.35 Bohr mag/cell

     iteration #  7     ecut=   120.00 Ry     beta= 0.70
     Davidson diagonalization with overlap
     ethr =  3.26E-04,  avg # of iterations =  2.0

     negative rho (up, down):  9.419E-01 9.433E-01

     total cpu time spent up to now is      190.9 secs

     total energy              =   -2943.06431372 Ry
     estimated scf accuracy    <       0.39045684 Ry

     total magnetization       =    -0.10 Bohr mag/cell
     absolute magnetization    =     0.30 Bohr mag/cell

     iteration #  8     ecut=   120.00 Ry     beta= 0.70
     Davidson diagonalization with overlap
     ethr =  1.41E-04,  avg # of iterations =  7.0

     negative rho (up, down):  9.188E-01 9.184E-01

     total cpu time spent up to now is      222.8 secs

     total energy              =   -2943.06564875 Ry
     estimated scf accuracy    <       0.17274867 Ry

     total magnetization       =    -0.10 Bohr mag/cell
     absolute magnetization    =     0.23 Bohr mag/cell

     iteration #  9     ecut=   120.00 Ry     beta= 0.70
     Davidson diagonalization with overlap
     ethr =  6.24E-05,  avg # of iterations =  9.0

     negative rho (up, down):  9.074E-01 9.072E-01

     total cpu time spent up to now is      262.7 secs

     total energy              =   -2943.06008470 Ry
     estimated scf accuracy    <       0.05702928 Ry

     total magnetization       =    -0.08 Bohr mag/cell
     absolute magnetization    =     0.16 Bohr mag/cell

     iteration # 10     ecut=   120.00 Ry     beta= 0.70
     Davidson diagonalization with overlap
     ethr =  2.06E-05,  avg # of iterations = 11.0

     negative rho (up, down):  9.086E-01 9.086E-01

     total cpu time spent up to now is      291.3 secs

     total energy              =   -2943.06338886 Ry
     estimated scf accuracy    <       0.03607727 Ry

     total magnetization       =    -0.06 Bohr mag/cell
     absolute magnetization    =     0.11 Bohr mag/cell

     iteration # 11     ecut=   120.00 Ry     beta= 0.70
     Davidson diagonalization with overlap
     ethr =  1.30E-05,  avg # of iterations =  3.5

     negative rho (up, down):  9.090E-01 9.090E-01

     total cpu time spent up to now is      308.6 secs

     total energy              =   -2943.06819184 Ry
     estimated scf accuracy    <       0.00665640 Ry

     total magnetization       =    -0.05 Bohr mag/cell
     absolute magnetization    =     0.08 Bohr mag/cell

     iteration # 12     ecut=   120.00 Ry     beta= 0.70
     Davidson diagonalization with overlap
     ethr =  2.40E-06,  avg # of iterations = 14.5

     negative rho (up, down):  9.090E-01 9.090E-01

     total cpu time spent up to now is      332.0 secs

     total energy              =   -2943.07051972 Ry
     estimated scf accuracy    <       0.00170693 Ry

     total magnetization       =    -0.04 Bohr mag/cell
     absolute magnetization    =     0.07 Bohr mag/cell

     iteration # 13     ecut=   120.00 Ry     beta= 0.70
     Davidson diagonalization with overlap
     ethr =  6.16E-07,  avg # of iterations =  5.0

     negative rho (up, down):  9.087E-01 9.087E-01

     Magnetic moment per site  (integrated on atomic sphere of radius R)
     atom   1 (R=0.112)  charge=  9.4654   -0.0002
     atom   2 (R=0.112)  charge=  9.0575   -0.0001
     atom   3 (R=0.112)  charge=  9.0571   -0.0000
     atom   4 (R=0.112)  charge=  9.0619   -0.0003
     atom   5 (R=0.112)  charge=  9.0607   -0.0002
     atom   6 (R=0.110)  charge= 10.3472    0.0005
     atom   7 (R=0.110)  charge= 10.3524   -0.0001
     atom   8 (R=0.088)  charge=  8.1326   -0.0001
     atom   9 (R=0.088)  charge=  8.1278    0.0002
     atom  10 (R=0.088)  charge=  8.1104   -0.0007
     atom  11 (R=0.088)  charge=  8.1069   -0.0001
     atom  12 (R=0.088)  charge=  8.1100   -0.0025
     atom  13 (R=0.088)  charge=  8.1083   -0.0006
     atom  14 (R=0.088)  charge=  8.1078   -0.0007
     atom  15 (R=0.088)  charge=  8.1086    0.0002
     atom  16 (R=0.088)  charge=  8.1073   -0.0007
     atom  17 (R=0.088)  charge=  8.1123   -0.0004
     atom  18 (R=0.075)  charge=  5.8238    0.0000
     atom  19 (R=0.075)  charge=  5.7436   -0.0012
     atom  20 (R=0.075)  charge=  5.7431   -0.0001
     atom  21 (R=0.075)  charge=  5.7422   -0.0007
     atom  22 (R=0.075)  charge=  5.7565    0.0001
     atom  23 (R=0.075)  charge=  0.9831   -0.0000

     total cpu time spent up to now is      351.8 secs

     End of self-consistent calculation

 ------ SPIN UP ------------


          k = 0.0000 0.0000 0.0000 ( 61588 PWs)   bands (ev):

   -60.7735 -60.7694 -60.7256 -60.7240 -60.6909 -60.6902 -60.6471 -60.6409
   -60.5543 -60.5010 -54.3781 -54.3324 -54.2533 -54.2079 -52.7094 -46.2580
   -46.2305 -41.5975 -41.5927 -41.4918 -41.2319 -39.7675 -27.7745 -27.7661
   -27.6836 -27.6828 -27.5893 -27.5776 -27.4597 -27.4464 -27.4255 -27.3302
   -27.3136 -27.2606 -27.2552 -27.2424 -27.2183 -27.1778 -27.1652 -27.1527
   -27.1294 -27.1170 -27.0604 -27.0367 -26.9469 -26.9454 -26.9390 -26.9257
   -26.8795 -26.8702 -26.8445 -26.8433 -24.1628 -23.9552 -23.6482 -23.5682
   -23.3080 -23.1768 -23.1506 -23.0558 -22.9241 -22.8531 -22.8398 -22.6210
   -22.4914 -22.4356 -22.3792 -22.3427 -22.2607 -22.2205 -21.7500 -21.7087
   -21.6297 -20.1660 -19.8369 -19.8076 -19.7789 -19.5866 -19.5700 -19.5468
   -19.5310 -19.3494 -19.3396 -19.3167 -19.1580 -18.1170 -17.9143 -17.7788
     1.3636   2.3334   2.9543   3.1528   3.3233   3.4202   3.4888   3.6466
     3.7002   3.7503   3.9357   4.0084   4.2831   4.4342   4.5644   4.7101
     4.7396   4.9745   5.0244   5.0762   5.1356   5.2717   5.3042   5.3109
     5.3950   5.5689   5.5807   5.7277   5.7393   5.7550   5.7920   5.8707
     5.9410   6.0721   6.1473   6.2360   6.2904   6.3415   6.3835   6.3983
     6.4578   6.6504   6.6606   6.6808   6.8621   6.9991   7.0435   7.0606
     7.1193   7.1522   7.2779   7.3230   7.3700   7.4370   7.5168   7.6147
     7.6615   7.7266   7.9065   8.0029   8.0780   8.1119   8.1414   8.1494
     8.2645   8.3252   8.3321   8.3709   8.5101   8.5254   8.6315   8.7756
     8.8268   8.9264   9.0000   9.0720   9.2182   9.2612   9.2930

 ------ SPIN DOWN ----------


          k = 0.0000 0.0000 0.0000 ( 61588 PWs)   bands (ev):

   -60.7740 -60.7704 -60.7261 -60.7251 -60.6922 -60.6904 -60.6485 -60.6409
   -60.5540 -60.5010 -54.3782 -54.3325 -54.2533 -54.2080 -52.7095 -46.2580
   -46.2299 -41.6000 -41.5926 -41.4940 -41.2316 -39.7674 -27.7752 -27.7677
   -27.6856 -27.6833 -27.5901 -27.5788 -27.4601 -27.4482 -27.4256 -27.3308
   -27.3143 -27.2613 -27.2562 -27.2426 -27.2192 -27.1779 -27.1655 -27.1540
   -27.1291 -27.1170 -27.0606 -27.0365 -26.9477 -26.9466 -26.9395 -26.9275
   -26.8799 -26.8723 -26.8463 -26.8436 -24.1629 -23.9552 -23.6484 -23.5682
   -23.3081 -23.1769 -23.1507 -23.0558 -22.9242 -22.8533 -22.8397 -22.6210
   -22.4911 -22.4352 -22.3792 -22.3426 -22.2606 -22.2203 -21.7503 -21.7090
   -21.6298 -20.1684 -19.8367 -19.8103 -19.7811 -19.5868 -19.5723 -19.5473
   -19.5330 -19.3491 -19.3423 -19.3164 -19.1578 -18.1169 -17.9146 -17.7790
     1.3631   2.3331   2.9526   3.1523   3.3227   3.4200   3.4873   3.6461
     3.6999   3.7497   3.9339   4.0076   4.2825   4.4333   4.5638   4.7089
     4.7390   4.9739   5.0233   5.0751   5.1348   5.2708   5.3033   5.3101
     5.3935   5.5685   5.5800   5.7272   5.7390   5.7535   5.7913   5.8700
     5.9406   6.0710   6.1459   6.2351   6.2896   6.3405   6.3824   6.3974
     6.4566   6.6496   6.6595   6.6798   6.8611   6.9982   7.0404   7.0585
     7.1154   7.1503   7.2746   7.3218   7.3676   7.4325   7.5133   7.6136
     7.6599   7.7257   7.9052   8.0015   8.0759   8.1096   8.1398   8.1470
     8.2609   8.3238   8.3308   8.3680   8.5087   8.5238   8.6299   8.7741
     8.8256   8.9233   8.9990   9.0713   9.2177   9.2596   9.2914

     the Fermi energy is     7.2571 ev

!    total energy              =   -2943.07158714 Ry
     estimated scf accuracy    <       0.00042830 Ry
     smearing contrib. (-TS)   =      -0.10103092 Ry
     internal energy E=F+TS    =   -2942.97055622 Ry

     total magnetization       =    -0.04 Bohr mag/cell
     absolute magnetization    =     0.06 Bohr mag/cell

     convergence has been achieved in  13 iterations

     negative rho (up, down):  9.087E-01 9.087E-01

     Forces acting on atoms (cartesian axes, Ry/au):

     atom    1 type  1   force =    -0.01293900   -0.02396578   -0.00017388
     atom    2 type  1   force =    -0.11311450   -0.01355169   -0.00367788
     atom    3 type  1   force =    -0.11099274    0.01067263    0.00235132
     atom    4 type  1   force =     0.11091946   -0.02500693   -0.00725250
     atom    5 type  1   force =     0.11183315    0.02224804   -0.00012697
     atom    6 type  2   force =    -0.00305790   -0.01596652    0.00850185
     atom    7 type  2   force =    -0.01291577    0.01603994   -0.00946389
     atom    8 type  3   force =    -0.10416167    0.00272298   -0.00565567
     atom    9 type  3   force =     0.12590986    0.00204601    0.02437111
     atom   10 type  3   force =    -0.02499004   -0.03264346   -0.05967565
     atom   11 type  3   force =    -0.01659111   -0.03456936    0.05685094
     atom   12 type  3   force =    -0.01952800    0.03845455   -0.05416210
     atom   13 type  3   force =    -0.01645688    0.02927180    0.06069015
     atom   14 type  3   force =     0.02335163   -0.02986559   -0.05541434
     atom   15 type  3   force =     0.01438373   -0.04417106    0.05452709
     atom   16 type  3   force =     0.01923466    0.03593861   -0.05020527
     atom   17 type  3   force =     0.01280643    0.03690456    0.05702406
     atom   18 type  4   force =    -0.00757579    0.02415907   -0.01137568
     atom   19 type  4   force =    -0.12980969   -0.00564907   -0.11407807
     atom   20 type  4   force =    -0.12948803    0.00557304    0.11447047
     atom   21 type  4   force =     0.13062387   -0.00575447   -0.11083302
     atom   22 type  4   force =     0.07948896    0.00969341    0.18853367
     atom   23 type  5   force =     0.07306935   -0.00258071   -0.08522574
     The non-local contrib.  to forces
     atom    1 type  1   force =     0.00689991   -0.00845908    0.02711547
     atom    2 type  1   force =    -0.24458167   -0.16379360    0.01689176
     atom    3 type  1   force =    -0.23826483    0.15876483   -0.02553953
     atom    4 type  1   force =     0.25420342   -0.16570207    0.03390325
     atom    5 type  1   force =     0.24612337    0.15991362   -0.00891812
     atom    6 type  2   force =     0.00674681   -0.04127784   -0.05818660
     atom    7 type  2   force =    -0.00539405    0.06165903    0.05223292
     atom    8 type  3   force =    -0.26282610    0.00035640    0.00155879
     atom    9 type  3   force =     0.25075929   -0.00318832    0.01608887
     atom   10 type  3   force =    -0.21411681    0.00582484   -0.20511402
     atom   11 type  3   force =    -0.21970541    0.00703300    0.19593943
     atom   12 type  3   force =    -0.20387672   -0.02004025   -0.17557244
     atom   13 type  3   force =    -0.20824118   -0.00312754    0.20727056
     atom   14 type  3   force =     0.21277545    0.00792172   -0.21725169
     atom   15 type  3   force =     0.23450430    0.01141186    0.17527812
     atom   16 type  3   force =     0.20218205   -0.02299498   -0.18657375
     atom   17 type  3   force =     0.22100688   -0.00869785    0.18295339
     atom   18 type  4   force =     0.00805017    0.05033522   -0.05532514
     atom   19 type  4   force =     0.05954003    0.00843941    0.07900222
     atom   20 type  4   force =     0.04526248   -0.01405264   -0.06303742
     atom   21 type  4   force =    -0.05762801    0.00716587    0.07585753
     atom   22 type  4   force =    -0.04663366   -0.00958136   -0.07691031
     atom   23 type  5   force =    -0.04739427   -0.00005004    0.01736074
     The ionic contribution  to forces
     atom    1 type  1   force =    -0.59155748   -4.92877962   13.89673837
     atom    2 type  1   force =   -39.72622737   -6.18392171    0.69122491
     atom    3 type  1   force =   -39.69953250    6.17129128   -0.80313856
     atom    4 type  1   force =    39.52592293   -6.37741369    0.55159817
     atom    5 type  1   force =    39.49616371    6.36865937   -0.94291824
     atom    6 type  2   force =    -0.15297840   -3.61495218  -14.04786268
     atom    7 type  2   force =    -0.63335400    3.95219790   13.82592028
     atom    8 type  3   force =   -52.23731661    0.07188856   -0.22880201
     atom    9 type  3   force =    51.19842319    0.07261683   -1.59530055
     atom   10 type  3   force =   -36.07104284   -2.11191071  -23.03639722
     atom   11 type  3   force =   -35.20374765   -0.92192344   22.10293730
     atom   12 type  3   force =   -35.25506649    0.81430311  -22.08934498
     atom   13 type  3   force =   -36.10433760    2.25605817   23.08114390
     atom   14 type  3   force =    35.99382972   -2.13935862  -23.05304997
     atom   15 type  3   force =    34.93655339   -1.18815188   22.24205371
     atom   16 type  3   force =    35.17832046    0.84154502  -22.10531670
     atom   17 type  3   force =    35.83437154    2.52426116   23.22029131
     atom   18 type  4   force =    -0.14282079    4.41954989  -14.00020660
     atom   19 type  4   force =   -35.91910460    0.95672503  -25.49279200
     atom   20 type  4   force =   -36.04327911   -0.95227781   25.58432871
     atom   21 type  4   force =    35.81544650    0.95623006  -25.52588275
     atom   22 type  4   force =    34.47204303   -0.93458780   27.27536576
     atom   23 type  5   force =     5.32929094   -0.05204892    0.44940985
     The local contribution  to forces
     atom    1 type  1   force =     0.56785994    4.91245319  -13.93260720
     atom    2 type  1   force =    39.87886184    6.33454509   -0.71228614
     atom    3 type  1   force =    39.84860846   -6.32031528    0.83254151
     atom    4 type  1   force =   -39.69377244    6.51970673   -0.59679729
     atom    5 type  1   force =   -39.65476513   -6.50852053    0.95303505
     atom    6 type  2   force =     0.14087218    3.63811598   14.12005261
     atom    7 type  2   force =     0.62767413   -3.99488287  -13.89554057
     atom    8 type  3   force =    52.43204711   -0.07008575    0.22134399
     atom    9 type  3   force =   -51.35370845   -0.06670118    1.60932008
     atom   10 type  3   force =    36.27963952    2.06484895   23.20511364
     atom   11 type  3   force =    35.43322963    0.87034147  -22.26815049
     atom   12 type  3   force =    35.45854082   -0.74250410   22.23429414
     atom   13 type  3   force =    36.32247066   -2.21262098  -23.25315437
     atom   14 type  3   force =   -36.20976816    2.09563586   23.23992481
     atom   15 type  3   force =   -35.19076978    1.11863580  -22.38550898
     atom   16 type  3   force =   -35.38687846   -0.77210225   22.26587929
     atom   17 type  3   force =   -36.07043887   -2.47079863  -23.37064154
     atom   18 type  4   force =     0.12510673   -4.44565740   14.05199310
     atom   19 type  4   force =    35.73528478   -0.97417613   25.32042567
     atom   20 type  4   force =    35.87609977    0.96972486  -25.42629461
     atom   21 type  4   force =   -35.63634961   -0.97251594   25.36122833
     atom   22 type  4   force =   -34.35291564    0.95585958  -27.03526667
     atom   23 type  5   force =    -5.20944906    0.04972996   -0.55301451
     The core correction contribution to forces
     atom    1 type  1   force =     0.00179385    0.00213487   -0.00028613
     atom    2 type  1   force =    -0.01229982   -0.00195179    0.00035770
     atom    3 type  1   force =    -0.01243234    0.00282160   -0.00180945
     atom    4 type  1   force =     0.01428959   -0.00322237    0.00329876
     atom    5 type  1   force =     0.01461062    0.00322094    0.00124810
     atom    6 type  2   force =    -0.00044296    0.00178921    0.00224046
     atom    7 type  2   force =     0.00042377   -0.00303193   -0.00191380
     atom    8 type  3   force =    -0.03298256    0.00023445   -0.00068423
     atom    9 type  3   force =     0.02710777   -0.00009521   -0.00395887
     atom   10 type  3   force =    -0.02166726    0.00918157   -0.01592107
     atom   11 type  3   force =    -0.02368414    0.00980159    0.01734942
     atom   12 type  3   force =    -0.02162547   -0.00965892   -0.01528445
     atom   13 type  3   force =    -0.02209752   -0.00925962    0.01688993
     atom   14 type  3   force =     0.02190806    0.00870754   -0.01669563
     atom   15 type  3   force =     0.02649508    0.01094181    0.01454915
     atom   16 type  3   force =     0.02164357   -0.00894931   -0.01614089
     atom   17 type  3   force =     0.02391576   -0.00972043    0.01482453
     atom   18 type  4   force =    -0.00056798   -0.00261580    0.00258645
     atom   19 type  4   force =    -0.00962016    0.00004544   -0.00981789
     atom   20 type  4   force =    -0.00872127    0.00036701    0.00908617
     atom   21 type  4   force =     0.00950885    0.00011927   -0.00979237
     atom   22 type  4   force =     0.00619966    0.00019005    0.01250736
     atom   23 type  5   force =     0.00000000    0.00000000    0.00000000
     The Hubbard contrib.    to forces
     atom    1 type  1   force =     0.00000000    0.00000000    0.00000000
     atom    2 type  1   force =     0.00000000    0.00000000    0.00000000
     atom    3 type  1   force =     0.00000000    0.00000000    0.00000000
     atom    4 type  1   force =     0.00000000    0.00000000    0.00000000
     atom    5 type  1   force =     0.00000000    0.00000000    0.00000000
     atom    6 type  2   force =     0.00000000    0.00000000    0.00000000
     atom    7 type  2   force =     0.00000000    0.00000000    0.00000000
     atom    8 type  3   force =     0.00000000    0.00000000    0.00000000
     atom    9 type  3   force =     0.00000000    0.00000000    0.00000000
     atom   10 type  3   force =     0.00000000    0.00000000    0.00000000
     atom   11 type  3   force =     0.00000000    0.00000000    0.00000000
     atom   12 type  3   force =     0.00000000    0.00000000    0.00000000
     atom   13 type  3   force =     0.00000000    0.00000000    0.00000000
     atom   14 type  3   force =     0.00000000    0.00000000    0.00000000
     atom   15 type  3   force =     0.00000000    0.00000000    0.00000000
     atom   16 type  3   force =     0.00000000    0.00000000    0.00000000
     atom   17 type  3   force =     0.00000000    0.00000000    0.00000000
     atom   18 type  4   force =     0.00000000    0.00000000    0.00000000
     atom   19 type  4   force =     0.00000000    0.00000000    0.00000000
     atom   20 type  4   force =     0.00000000    0.00000000    0.00000000
     atom   21 type  4   force =     0.00000000    0.00000000    0.00000000
     atom   22 type  4   force =     0.00000000    0.00000000    0.00000000
     atom   23 type  5   force =     0.00000000    0.00000000    0.00000000
     The SCF correction term to forces
     atom    1 type  1   force =     0.00192549   -0.00133813    0.00876995
     atom    2 type  1   force =    -0.00900677    0.00154733    0.00003824
     atom    3 type  1   force =    -0.00951081   -0.00191280    0.00020171
     atom    4 type  1   force =     0.01013667    0.00160149    0.00064898
     atom    5 type  1   force =     0.00956130   -0.00104834   -0.00266940
     atom    6 type  2   force =     0.00260519    0.00033533   -0.00783759
     atom    7 type  2   force =    -0.00240490    0.00007483    0.00974164
     atom    8 type  3   force =    -0.00322280    0.00030632    0.00083215
     atom    9 type  3   force =     0.00318878   -0.00060909   -0.00187406
     atom   10 type  3   force =     0.00205808   -0.00061111   -0.00745262
     atom   11 type  3   force =    -0.00282283    0.00015503    0.00867963
     atom   12 type  3   force =     0.00236058   -0.00366828   -0.00835001
     atom   13 type  3   force =    -0.00439053   -0.00180122    0.00844449
     atom   14 type  3   force =     0.00446728   -0.00279509   -0.00843751
     atom   15 type  3   force =     0.00746145    0.00296837    0.00805945
     atom   16 type  3   force =     0.00382777   -0.00158287   -0.00814887
     atom   17 type  3   force =     0.00381184    0.00183732    0.00950073
     atom   18 type  4   force =     0.00251681    0.00252417   -0.01051914
     atom   19 type  4   force =     0.00395098    0.00329419   -0.01099172
     atom   20 type  4   force =     0.00101081    0.00178863    0.01029198
     atom   21 type  4   force =    -0.00049314    0.00322328   -0.01233941
     atom   22 type  4   force =     0.00065629   -0.00221005    0.01274188
     atom   23 type  5   force =     0.00048246   -0.00023471    0.00092254

     Total force =     0.512853     Total SCF correction =     0.046026


     Computing stress (Cartesian axis) and pressure


     negative rho (up, down):  9.087E-01 9.087E-01
          total   stress  (Ry/bohr**3)                   (kbar)     P=       87.11
   0.00067933  -0.00000164  -0.00002287           99.93       -0.24       -3.36
  -0.00000164   0.00067522  -0.00001094           -0.24       99.33       -1.61
  -0.00002287  -0.00001094   0.00042201           -3.36       -1.61       62.08


     Molecular Dynamics Calculation

     Starting temperature  =   300.00 K

     temperature is set once at start

     mass Hf               =   178.49
     mass Nb               =    92.91
     mass Ta               =   180.95
     mass Zr               =    91.22
     mass H                =     2.01
     Time step             =     4.20 a.u.,  0.2032 femto-seconds

     Entering Dynamics:    iteration =     1
                           time      =   0.0002 pico-seconds


ATOMIC_POSITIONS (angstrom)
Hf            2.6700624369        2.8271223416        6.6040730726
Hf            1.2530502861        1.2862837926        5.0585749796
Hf            1.2555465654        7.3898046010        5.0881766939
Hf            4.0870752672        1.2862834640        5.0585748770
Hf            4.0845790750        7.3898049331        5.0881766228
Nb            2.6700626396        2.7969297255        3.5156925443
Nb            2.6700620962        5.8763795604        6.6351062806
Ta            1.2094329594        4.3409279287        5.0712345313
Ta            4.1306932724        4.3409279095        5.0712353810
Ta            1.3073148280        1.3141216656        2.0588862803
Ta            1.3028506958        1.3083901577        8.0946896703
Ta            1.3040719206        7.3758272124        2.0463445060
Ta            1.3077731838        7.3650837768        8.0861127974
Ta            4.0328107419        1.3141217442        2.0588864009
Ta            4.0372748580        1.3083898860        8.0946896045
Ta            4.0360536874        7.3758271412        2.0463446180
Ta            4.0323523292        7.3650839928        8.0861126936
Zr            2.6700623829        5.8662871996        3.5274921509
Zr            1.2438901833        4.3220776474        2.0001024553
Zr            1.2404409951        4.3541235973        8.1498708341
Zr            4.0962354787        4.3220776415        2.0001026375
Zr            4.0996818145        4.3541238286        8.1498749916
H             5.0264603656        4.3399933884        6.6232743369


     kinetic energy (Ekin) =           8.09785715 Ry
     temperature           =       38743.95520174 K 
     Ekin + Etot (const)   =       -2934.97372999 Ry
     Ions kinetic stress =          143.02 (kbar)
                                    107.27           0.00         185.79
                                      0.00           0.00           0.00
                                    185.79           0.00         321.78



     Linear momentum :   -0.0000000000    0.0000000000    0.0000000000

     File outdir/pwscf.msd.dat deleted, as requested

     Writing config-only to output data dir outdir/pwscf.save/
     NEW-OLD atomic charge density approx. for the potential

     Check: negative core charge=   -0.000002

     negative rho (up, down):  9.087E-01 9.087E-01
     Generating pointlists ...
     new r_m :   0.0791 (alat units)  1.3969 (a.u.) for type    3

     total cpu time spent up to now is      403.3 secs

     Self-consistent Calculation

     iteration #  1     ecut=   120.00 Ry     beta= 0.70
     Davidson diagonalization with overlap
     ethr =  1.00E-06,  avg # of iterations =  7.0

     negative rho (up, down):  9.087E-01 9.087E-01

     total cpu time spent up to now is      455.1 secs

     total energy              =   -2943.07315163 Ry
     estimated scf accuracy    <       0.03275657 Ry

     total magnetization       =    -0.04 Bohr mag/cell
     absolute magnetization    =     0.05 Bohr mag/cell

     iteration #  2     ecut=   120.00 Ry     beta= 0.70
     Davidson diagonalization with overlap
     ethr =  1.18E-05,  avg # of iterations =  2.0

     negative rho (up, down):  9.087E-01 9.087E-01

     total cpu time spent up to now is      474.3 secs

     total energy              =   -2943.07596278 Ry
     estimated scf accuracy    <       0.00666043 Ry

     total magnetization       =    -0.03 Bohr mag/cell
     absolute magnetization    =     0.04 Bohr mag/cell

     iteration #  3     ecut=   120.00 Ry     beta= 0.70
     Davidson diagonalization with overlap
     ethr =  2.40E-06,  avg # of iterations =  2.0

     negative rho (up, down):  9.087E-01 9.087E-01

     total cpu time spent up to now is      492.1 secs

     total energy              =   -2943.07625442 Ry
     estimated scf accuracy    <       0.00113473 Ry

     total magnetization       =    -0.03 Bohr mag/cell
     absolute magnetization    =     0.04 Bohr mag/cell

     iteration #  4     ecut=   120.00 Ry     beta= 0.70
     Davidson diagonalization with overlap
     ethr =  4.10E-07,  avg # of iterations =  2.0

     negative rho (up, down):  9.088E-01 9.088E-01

     Magnetic moment per site  (integrated on atomic sphere of radius R)
     atom   1 (R=0.112)  charge=  9.4642   -0.0001
     atom   2 (R=0.112)  charge=  9.0561   -0.0000
     atom   3 (R=0.112)  charge=  9.0560   -0.0001
     atom   4 (R=0.112)  charge=  9.0600   -0.0001
     atom   5 (R=0.112)  charge=  9.0592   -0.0002
     atom   6 (R=0.110)  charge= 10.3464    0.0000
     atom   7 (R=0.110)  charge= 10.3504   -0.0002
     atom   8 (R=0.079)  charge=  7.1202   -0.0000
     atom   9 (R=0.079)  charge=  7.1288    0.0000
     atom  10 (R=0.079)  charge=  7.1029   -0.0005
     atom  11 (R=0.079)  charge=  7.1010   -0.0001
     atom  12 (R=0.079)  charge=  7.1033   -0.0014
     atom  13 (R=0.079)  charge=  7.1024   -0.0003
     atom  14 (R=0.079)  charge=  7.1018   -0.0004
     atom  15 (R=0.079)  charge=  7.1024    0.0001
     atom  16 (R=0.079)  charge=  7.1017   -0.0005
     atom  17 (R=0.079)  charge=  7.1039   -0.0002
     atom  18 (R=0.075)  charge=  5.8228   -0.0000
     atom  19 (R=0.075)  charge=  5.7443   -0.0008
     atom  20 (R=0.075)  charge=  5.7446   -0.0001
     atom  21 (R=0.075)  charge=  5.7430   -0.0004
     atom  22 (R=0.075)  charge=  5.7489    0.0001
     atom  23 (R=0.075)  charge=  1.0056   -0.0000

     total cpu time spent up to now is      510.9 secs

     End of self-consistent calculation

 ------ SPIN UP ------------


          k = 0.0000 0.0000 0.0000 ( 61588 PWs)   bands (ev):

   -60.7569 -60.7522 -60.7089 -60.7057 -60.6744 -60.6741 -60.6299 -60.6278
   -60.4891 -60.4579 -54.3655 -54.3195 -54.2405 -54.1948 -52.7005 -46.2463
   -46.2109 -41.5847 -41.5770 -41.4714 -41.3210 -39.7550 -27.7580 -27.7500
   -27.6673 -27.6669 -27.5708 -27.5602 -27.4423 -27.4300 -27.3862 -27.3146
   -27.2941 -27.2451 -27.2370 -27.2219 -27.2022 -27.1511 -27.1393 -27.1278
   -27.0939 -27.0765 -27.0350 -26.9942 -26.9308 -26.9279 -26.9241 -26.9093
   -26.8651 -26.8535 -26.8282 -26.8272 -24.1477 -23.9396 -23.6347 -23.5554
   -23.2953 -23.1640 -23.1394 -23.0434 -22.9099 -22.8420 -22.8254 -22.6085
   -22.4788 -22.4219 -22.3669 -22.3305 -22.2446 -22.2046 -21.7393 -21.7022
   -21.6220 -20.1498 -19.8366 -19.7987 -19.7547 -19.5736 -19.5597 -19.5352
   -19.5052 -19.4083 -19.3805 -19.3235 -19.2073 -18.1078 -17.8996 -17.7657
     1.2367   2.0996   2.9632   3.1690   3.3309   3.4386   3.4995   3.6539
     3.7137   3.7649   3.9487   4.0199   4.2885   4.4663   4.5903   4.7202
     4.7539   5.0075   5.0577   5.0984   5.1568   5.2822   5.3152   5.3240
     5.4090   5.5842   5.5926   5.7414   5.7527   5.7684   5.8027   5.8823
     5.9521   6.0827   6.1618   6.2482   6.3019   6.3584   6.3932   6.4047
     6.4819   6.6578   6.6814   6.6940   6.8799   7.0141   7.0551   7.0825
     7.1333   7.1642   7.2856   7.3375   7.4047   7.4452   7.5291   7.6160
     7.6713   7.7038   7.9192   8.0152   8.0732   8.1229   8.1540   8.1627
     8.2745   8.3400   8.3482   8.3827   8.5275   8.5403   8.6344   8.7882
     8.8422   8.9325   9.0014   9.0821   9.2307   9.2840   9.3101

 ------ SPIN DOWN ----------


          k = 0.0000 0.0000 0.0000 ( 61588 PWs)   bands (ev):

   -60.7573 -60.7530 -60.7092 -60.7067 -60.6754 -60.6742 -60.6311 -60.6278
   -60.4892 -60.4578 -54.3656 -54.3196 -54.2406 -54.1948 -52.7006 -46.2464
   -46.2108 -41.5863 -41.5772 -41.4725 -41.3208 -39.7550 -27.7585 -27.7512
   -27.6685 -27.6674 -27.5713 -27.5612 -27.4426 -27.4314 -27.3863 -27.3151
   -27.2947 -27.2454 -27.2380 -27.2221 -27.2030 -27.1514 -27.1402 -27.1280
   -27.0940 -27.0766 -27.0352 -26.9941 -26.9311 -26.9290 -26.9243 -26.9106
   -26.8654 -26.8551 -26.8293 -26.8276 -24.1478 -23.9397 -23.6349 -23.5555
   -23.2954 -23.1642 -23.1395 -23.0436 -22.9100 -22.8421 -22.8254 -22.6085
   -22.4789 -22.4220 -22.3671 -22.3306 -22.2448 -22.2047 -21.7394 -21.7023
   -21.6221 -20.1513 -19.8366 -19.8004 -19.7558 -19.5740 -19.5613 -19.5358
   -19.5062 -19.4081 -19.3804 -19.3253 -19.2072 -18.1078 -17.8997 -17.7659
     1.2364   2.0991   2.9619   3.1686   3.3306   3.4384   3.4983   3.6534
     3.7134   3.7644   3.9473   4.0193   4.2881   4.4656   4.5896   4.7193
     4.7533   5.0071   5.0568   5.0973   5.1562   5.2815   5.3145   5.3234
     5.4080   5.5838   5.5921   5.7411   5.7522   5.7671   5.8021   5.8817
     5.9517   6.0818   6.1607   6.2476   6.3012   6.3575   6.3924   6.4041
     6.4810   6.6571   6.6805   6.6932   6.8790   7.0132   7.0526   7.0800
     7.1307   7.1628   7.2829   7.3366   7.4031   7.4415   7.5262   7.6151
     7.6700   7.7027   7.9183   8.0141   8.0718   8.1211   8.1532   8.1614
     8.2717   8.3389   8.3475   8.3804   8.5266   8.5393   8.6332   8.7874
     8.8412   8.9301   9.0005   9.0813   9.2302   9.2835   9.3087

     the Fermi energy is     7.2716 ev

!    total energy              =   -2943.07623171 Ry
     estimated scf accuracy    <       0.00024776 Ry
     smearing contrib. (-TS)   =      -0.10181998 Ry
     internal energy E=F+TS    =   -2942.97441174 Ry

     total magnetization       =    -0.03 Bohr mag/cell
     absolute magnetization    =     0.04 Bohr mag/cell

     convergence has been achieved in   4 iterations

     negative rho (up, down):  9.088E-01 9.088E-01

     Forces acting on atoms (cartesian axes, Ry/au):

     atom    1 type  1   force =    -0.01529512   -0.02500324    0.00283509
     atom    2 type  1   force =    -0.11728218   -0.01308156   -0.00313850
     atom    3 type  1   force =    -0.11557844    0.00990021    0.00222819
     atom    4 type  1   force =     0.11550685   -0.02189130   -0.00822499
     atom    5 type  1   force =     0.11612279    0.01883966   -0.00212071
     atom    6 type  2   force =    -0.00368185   -0.01729915    0.00664002
     atom    7 type  2   force =    -0.01450584    0.01841544   -0.00859287
     atom    8 type  3   force =    -0.10668048    0.00249933   -0.00366363
     atom    9 type  3   force =     0.10507844    0.00258342   -0.01261305
     atom   10 type  3   force =    -0.02514650   -0.03201907   -0.06219893
     atom   11 type  3   force =    -0.01705141   -0.03343396    0.05960630
     atom   12 type  3   force =    -0.01958876    0.03664240   -0.05671099
     atom   13 type  3   force =    -0.01674869    0.02706944    0.06309616
     atom   14 type  3   force =     0.02403175   -0.02954748   -0.05757735
     atom   15 type  3   force =     0.01607402   -0.04411317    0.05724886
     atom   16 type  3   force =     0.01977231    0.03519715   -0.05262905
     atom   17 type  3   force =     0.01389973    0.03760418    0.06048649
     atom   18 type  4   force =    -0.00736110    0.02545410   -0.01374724
     atom   19 type  4   force =    -0.12902932   -0.00461278   -0.11754512
     atom   20 type  4   force =    -0.13104784    0.00585225    0.11685909
     atom   21 type  4   force =     0.13169702   -0.00533003   -0.11679648
     atom   22 type  4   force =     0.10940851    0.00907180    0.15881854
     atom   23 type  5   force =     0.06740611   -0.00279766   -0.01225983
     The non-local contrib.  to forces
     atom    1 type  1   force =     0.00780251   -0.00862796    0.02818256
     atom    2 type  1   force =    -0.24630719   -0.16252875    0.01783830
     atom    3 type  1   force =    -0.24077448    0.15746487   -0.02459138
     atom    4 type  1   force =     0.25700178   -0.16192058    0.03448227
     atom    5 type  1   force =     0.24874625    0.15512860   -0.00930660
     atom    6 type  2   force =     0.00834731   -0.04572103   -0.06071164
     atom    7 type  2   force =    -0.00422580    0.06627920    0.05310862
     atom    8 type  3   force =    -0.26037509    0.00026128    0.00381681
     atom    9 type  3   force =     0.21914828   -0.00285099   -0.01259423
     atom   10 type  3   force =    -0.21198538    0.00476951   -0.20616590
     atom   11 type  3   force =    -0.21732974    0.00791361    0.19678934
     atom   12 type  3   force =    -0.20219685   -0.01967548   -0.17733068
     atom   13 type  3   force =    -0.20554889   -0.00496873    0.20829985
     atom   14 type  3   force =     0.21159681    0.00885498   -0.21980312
     atom   15 type  3   force =     0.23188413    0.00905252    0.17469304
     atom   16 type  3   force =     0.20122112   -0.02457461   -0.18895493
     atom   17 type  3   force =     0.21780264   -0.00695089    0.18210130
     atom   18 type  4   force =     0.00817960    0.05334532   -0.06013789
     atom   19 type  4   force =     0.05802685    0.00892065    0.07397361
     atom   20 type  4   force =     0.04516439   -0.01326380   -0.06399870
     atom   21 type  4   force =    -0.06025110    0.00772718    0.07115707
     atom   22 type  4   force =    -0.04524899   -0.00974093   -0.07274555
     atom   23 type  5   force =    -0.04598151   -0.00032951   -0.00354689
     The ionic contribution  to forces
     atom    1 type  1   force =    -0.63657899   -4.97102107   13.94457112
     atom    2 type  1   force =   -39.73890204   -6.19037008    0.69417871
     atom    3 type  1   force =   -39.71229267    6.17779120   -0.79997163
     atom    4 type  1   force =    39.52615471   -6.41146379    0.55294298
     atom    5 type  1   force =    39.49642555    6.40309550   -0.94095621
     atom    6 type  2   force =    -0.17348155   -3.63076460  -14.07705783
     atom    7 type  2   force =    -0.67947860    3.99673307   13.87811681
     atom    8 type  3   force =   -52.27540494    0.07189567   -0.22871723
     atom    9 type  3   force =    50.97088074    0.07295663   -1.98912030
     atom   10 type  3   force =   -36.07539807   -2.11324138  -23.04744036
     atom   11 type  3   force =   -35.21011135   -0.92185871   22.11282670
     atom   12 type  3   force =   -35.25939525    0.81560516  -22.10037008
     atom   13 type  3   force =   -36.11071599    2.25603446   23.09112966
     atom   14 type  3   force =    35.99599680   -2.14274934  -23.07362755
     atom   15 type  3   force =    34.95867678   -1.17237600   22.26258436
     atom   16 type  3   force =    35.18053935    0.84483616  -22.12583028
     atom   17 type  3   force =    35.85659294    2.50854851   23.24111164
     atom   18 type  4   force =    -0.16208232    4.43423464  -14.02737367
     atom   19 type  4   force =   -35.92543411    0.95669669  -25.50792822
     atom   20 type  4   force =   -36.05606889   -0.95227185   25.60124158
     atom   21 type  4   force =    35.81782103    0.95616069  -25.56493893
     atom   22 type  4   force =    34.79654442   -0.93739290   27.21443939
     atom   23 type  5   force =     5.41571246   -0.05107865    0.89018934
     The local contribution  to forces
     atom    1 type  1   force =     0.60484519    4.95239271  -13.97014051
     atom    2 type  1   force =    39.87478140    6.34019232   -0.71442876
     atom    3 type  1   force =    39.84414932   -6.32676992    0.82878327
     atom    4 type  1   force =   -39.68015250    6.55776132   -0.59945837
     atom    5 type  1   force =   -39.64170733   -6.54563166    0.94766919
     atom    6 type  2   force =     0.16417450    3.66345486   14.13794481
     atom    7 type  2   force =     0.66035369   -4.04003179  -13.93673658
     atom    8 type  3   force =    52.46111489   -0.06980341    0.22393926
     atom    9 type  3   force =   -51.10323572   -0.06752138    1.99040099
     atom   10 type  3   force =    36.27576330    2.06524470   23.19698753
     atom   11 type  3   force =    35.42560138    0.87265412  -22.25866597
     atom   12 type  3   force =    35.45396097   -0.75027548   22.22628950
     atom   13 type  3   force =    36.31368960   -2.21830822  -23.24296516
     atom   14 type  3   force =   -36.20337788    2.09852485   23.24496036
     atom   15 type  3   force =   -35.20059609    1.10046991  -22.38554528
     atom   16 type  3   force =   -35.38246588   -0.77770765   22.27010545
     atom   17 type  3   force =   -36.08552056   -2.44784421  -23.36889750
     atom   18 type  4   force =     0.14717601   -4.46514090   14.06675202
     atom   19 type  4   force =    35.74500346   -0.96845463   25.31513097
     atom   20 type  4   force =    35.88154843    0.97200109  -25.41918449
     atom   21 type  4   force =   -35.63631907   -0.96962931   25.38403696
     atom   22 type  4   force =   -34.66509056    0.95670356  -26.97921349
     atom   23 type  5   force =    -5.30355787    0.04857445   -0.90254575
     The core correction contribution to forces
     atom    1 type  1   force =     0.00168614    0.00260610   -0.00045385
     atom    2 type  1   force =    -0.01213587   -0.00176150    0.00057475
     atom    3 type  1   force =    -0.01238063    0.00260288   -0.00156106
     atom    4 type  1   force =     0.01429586   -0.00271894    0.00291061
     atom    5 type  1   force =     0.01455674    0.00245675    0.00096087
     atom    6 type  2   force =    -0.00049754    0.00203566    0.00240153
     atom    7 type  2   force =     0.00042740   -0.00325063   -0.00196098
     atom    8 type  3   force =    -0.03209631    0.00019617   -0.00034482
     atom    9 type  3   force =     0.02330065    0.00004646   -0.00685779
     atom   10 type  3   force =    -0.02154879    0.00937256   -0.01573388
     atom   11 type  3   force =    -0.02340786    0.00981273    0.01733944
     atom   12 type  3   force =    -0.02148903   -0.00973933   -0.01516959
     atom   13 type  3   force =    -0.02173818   -0.00927078    0.01682428
     atom   14 type  3   force =     0.02170911    0.00845482   -0.01692383
     atom   15 type  3   force =     0.02631750    0.01074998    0.01440740
     atom   16 type  3   force =     0.02142767   -0.00881390   -0.01626943
     atom   17 type  3   force =     0.02363787   -0.00944576    0.01470664
     atom   18 type  4   force =    -0.00050120   -0.00283934    0.00282062
     atom   19 type  4   force =    -0.00951252    0.00005668   -0.00974277
     atom   20 type  4   force =    -0.00881465    0.00035388    0.00922585
     atom   21 type  4   force =     0.00963711    0.00011343   -0.00969818
     atom   22 type  4   force =     0.00710598    0.00018843    0.01165925
     atom   23 type  5   force =     0.00000000    0.00000000    0.00000000
     The Hubbard contrib.    to forces
     atom    1 type  1   force =     0.00000000    0.00000000    0.00000000
     atom    2 type  1   force =     0.00000000    0.00000000    0.00000000
     atom    3 type  1   force =     0.00000000    0.00000000    0.00000000
     atom    4 type  1   force =     0.00000000    0.00000000    0.00000000
     atom    5 type  1   force =     0.00000000    0.00000000    0.00000000
     atom    6 type  2   force =     0.00000000    0.00000000    0.00000000
     atom    7 type  2   force =     0.00000000    0.00000000    0.00000000
     atom    8 type  3   force =     0.00000000    0.00000000    0.00000000
     atom    9 type  3   force =     0.00000000    0.00000000    0.00000000
     atom   10 type  3   force =     0.00000000    0.00000000    0.00000000
     atom   11 type  3   force =     0.00000000    0.00000000    0.00000000
     atom   12 type  3   force =     0.00000000    0.00000000    0.00000000
     atom   13 type  3   force =     0.00000000    0.00000000    0.00000000
     atom   14 type  3   force =     0.00000000    0.00000000    0.00000000
     atom   15 type  3   force =     0.00000000    0.00000000    0.00000000
     atom   16 type  3   force =     0.00000000    0.00000000    0.00000000
     atom   17 type  3   force =     0.00000000    0.00000000    0.00000000
     atom   18 type  4   force =     0.00000000    0.00000000    0.00000000
     atom   19 type  4   force =     0.00000000    0.00000000    0.00000000
     atom   20 type  4   force =     0.00000000    0.00000000    0.00000000
     atom   21 type  4   force =     0.00000000    0.00000000    0.00000000
     atom   22 type  4   force =     0.00000000    0.00000000    0.00000000
     atom   23 type  5   force =     0.00000000    0.00000000    0.00000000
     The SCF correction term to forces
     atom    1 type  1   force =     0.00656647   -0.00038753    0.00071218
     atom    2 type  1   force =     0.00489795    0.00135194   -0.00126509
     atom    3 type  1   force =     0.00533646   -0.00122333   -0.00039461
     atom    4 type  1   force =    -0.00217656   -0.00358382    0.00093393
     atom    5 type  1   force =    -0.00228199    0.00375596   -0.00045155
     atom    6 type  2   force =    -0.00260813   -0.00633855    0.00409957
     atom    7 type  2   force =     0.00803391   -0.00134894   -0.00108433
     atom    8 type  3   force =    -0.00030259   -0.00008489   -0.00232123
     atom    9 type  3   force =    -0.00539908   -0.00008182    0.00559470
     atom   10 type  3   force =     0.00763888    0.00180104    0.01019008
     atom   11 type  3   force =     0.00781259   -0.00199022   -0.00864682
     atom   12 type  3   force =     0.00914783    0.00069302    0.00990626
     atom   13 type  3   force =     0.00718121    0.00354819   -0.01015606
     atom   14 type  3   force =    -0.00227665   -0.00266729    0.00785320
     atom   15 type  3   force =    -0.00059188    0.00795589   -0.00885426
     atom   16 type  3   force =    -0.00133351    0.00142263    0.00835654
     atom   17 type  3   force =     0.00100328   -0.00673799   -0.00849918
     atom   18 type  4   force =    -0.00051674    0.00581986    0.00422809
     atom   19 type  4   force =     0.00250345   -0.00186668    0.01105770
     atom   20 type  4   force =     0.00673932   -0.00100158   -0.01038875
     atom   21 type  4   force =     0.00042549    0.00026346    0.00268301
     atom   22 type  4   force =     0.01571409   -0.00072087   -0.01528466
     atom   23 type  5   force =     0.00084945    0.00000153    0.00367988

     Total force =     0.505130     Total SCF correction =     0.047337


     Computing stress (Cartesian axis) and pressure


     negative rho (up, down):  9.088E-01 9.088E-01
          total   stress  (Ry/bohr**3)                   (kbar)     P=       86.92
   0.00066694  -0.00000081   0.00000374           98.11       -0.12        0.55
  -0.00000081   0.00068205  -0.00001106           -0.12      100.33       -1.63
   0.00000374  -0.00001106   0.00042360            0.55       -1.63       62.31


     Entering Dynamics:    iteration =     2
                           time      =   0.0004 pico-seconds


ATOMIC_POSITIONS (angstrom)
Hf            2.6701240392        2.8271202194        6.6041820893
Hf            1.2531031625        1.2862826532        5.0586835530
Hf            1.2555996004        7.3898054753        5.0882857482
Hf            4.0871479283        1.2862814904        5.0586830561
Hf            4.0846517976        7.3898066524        5.0882853565
Nb            2.6701249163        2.7969269384        3.5158026039
Nb            2.6701226364        5.8763824745        6.6352136707
Ta            1.2094868246        4.3409281472        5.0713430229
Ta            4.1307656342        4.3409281136        5.0713442158
Ta            1.3073755486        1.3141189295        2.0589899300
Ta            1.3029121123        1.3083872870        8.0948035119
Ta            1.3041331104        7.3758303746        2.0464486224
Ta            1.3078346212        7.3650861373        8.0862269451
Ta            4.0328756141        1.3141192266        2.0589904328
Ta            4.0373390260        1.3083861391        8.0948032470
Ta            4.0361182020        7.3758301504        2.0464490774
Ta            4.0324163294        7.3650871656        8.0862265899
Zr            2.6701239823        5.8662914134        3.5275988279
Zr            1.2439312616        4.3220768124        2.0001917139
Zr            1.2404818648        4.3541245672        8.1499992385
Zr            4.0963204478        4.3220767201        2.0001921623
Zr            4.0997614109        4.3541253913        8.1500122643
H             4.9226366484        4.3399726000        6.4422557274


     kinetic energy (Ekin) =           8.10071163 Ry
     temperature           =       38757.61233811 K 
     Ekin + Etot (const)   =       -2934.97552009 Ry
     Ions kinetic stress =          143.07 (kbar)
                                    106.53           0.01         185.40
                                      0.01           0.00           0.02
                                    185.40           0.02         322.67



     Linear momentum :   -0.0000000000    0.0000000000   -0.0000000000

     Writing config-only to output data dir outdir/pwscf.save/
     NEW-OLD atomic charge density approx. for the potential

     Check: negative core charge=   -0.000002

     negative rho (up, down):  9.087E-01 9.087E-01
     Generating pointlists ...
     new r_m :   0.0699 (alat units)  1.2341 (a.u.) for type    3
     new r_m :   0.0699 (alat units)  1.2341 (a.u.) for type    5

     total cpu time spent up to now is      536.6 secs

     Self-consistent Calculation

     iteration #  1     ecut=   120.00 Ry     beta= 0.70
     Davidson diagonalization with overlap
     c_bands:  1 eigenvalues not converged
     ethr =  1.00E-06,  avg # of iterations = 14.0

     negative rho (up, down):  9.090E-01 9.090E-01

     total cpu time spent up to now is      570.6 secs

     total energy              =   -2943.03842360 Ry
     estimated scf accuracy    <       0.04231567 Ry

     total magnetization       =    -0.03 Bohr mag/cell
     absolute magnetization    =     0.04 Bohr mag/cell

     iteration #  2     ecut=   120.00 Ry     beta= 0.70
     Davidson diagonalization with overlap
     ethr =  1.53E-05,  avg # of iterations =  3.0

     negative rho (up, down):  9.088E-01 9.088E-01

     total cpu time spent up to now is      588.8 secs

     total energy              =   -2943.04180514 Ry
     estimated scf accuracy    <       0.00754343 Ry

     total magnetization       =    -0.03 Bohr mag/cell
     absolute magnetization    =     0.03 Bohr mag/cell

     iteration #  3     ecut=   120.00 Ry     beta= 0.70
     Davidson diagonalization with overlap
     ethr =  2.72E-06,  avg # of iterations =  2.0

     negative rho (up, down):  9.087E-01 9.087E-01

     Magnetic moment per site  (integrated on atomic sphere of radius R)
     atom   1 (R=0.112)  charge=  9.4636   -0.0001
     atom   2 (R=0.112)  charge=  9.0564   -0.0000
     atom   3 (R=0.112)  charge=  9.0563   -0.0001
     atom   4 (R=0.112)  charge=  9.0620   -0.0001
     atom   5 (R=0.112)  charge=  9.0613   -0.0001
     atom   6 (R=0.110)  charge= 10.3493   -0.0000
     atom   7 (R=0.110)  charge= 10.3501   -0.0001
     atom   8 (R=0.070)  charge=  5.8308   -0.0000
     atom   9 (R=0.070)  charge=  5.8449    0.0000
     atom  10 (R=0.070)  charge=  5.8172   -0.0003
     atom  11 (R=0.070)  charge=  5.8160   -0.0001
     atom  12 (R=0.070)  charge=  5.8155   -0.0008
     atom  13 (R=0.070)  charge=  5.8180   -0.0002
     atom  14 (R=0.070)  charge=  5.8152   -0.0002
     atom  15 (R=0.070)  charge=  5.8152    0.0000
     atom  16 (R=0.070)  charge=  5.8153   -0.0003
     atom  17 (R=0.070)  charge=  5.8153   -0.0001
     atom  18 (R=0.075)  charge=  5.8232   -0.0000
     atom  19 (R=0.075)  charge=  5.7443   -0.0007
     atom  20 (R=0.075)  charge=  5.7430   -0.0002
     atom  21 (R=0.075)  charge=  5.7445   -0.0003
     atom  22 (R=0.075)  charge=  5.7493    0.0001
     atom  23 (R=0.070)  charge=  0.9737   -0.0000

     total cpu time spent up to now is      612.1 secs

     End of self-consistent calculation

 ------ SPIN UP ------------


          k = 0.0000 0.0000 0.0000 ( 61588 PWs)   bands (ev):

   -60.7682 -60.7672 -60.7207 -60.7165 -60.6921 -60.6860 -60.6415 -60.6395
   -60.4836 -60.2963 -54.3683 -54.3206 -54.2432 -54.1956 -52.7027 -46.2554
   -46.2281 -41.5913 -41.5774 -41.4741 -41.4648 -39.7796 -27.7686 -27.7638
   -27.6782 -27.6774 -27.5789 -27.5725 -27.4523 -27.4427 -27.3593 -27.3267
   -27.2932 -27.2560 -27.2479 -27.2303 -27.2184 -27.1601 -27.1478 -27.1177
   -27.0634 -27.0238 -26.9740 -26.9442 -26.9396 -26.9342 -26.9201 -26.9055
   -26.8764 -26.8636 -26.8394 -26.8367 -24.1513 -23.9418 -23.6411 -23.5600
   -23.3001 -23.1690 -23.1447 -23.0484 -22.9136 -22.8461 -22.8285 -22.6117
   -22.4894 -22.4368 -22.3783 -22.3398 -22.2541 -22.2136 -21.7467 -21.7069
   -21.6251 -20.1569 -19.8732 -19.8074 -19.7584 -19.5742 -19.5634 -19.5443
   -19.5214 -19.5079 -19.4910 -19.3281 -19.2929 -18.1329 -17.9192 -17.7864
     1.0328   1.9312   2.9496   3.1639   3.3207   3.4366   3.4894   3.6424
     3.7115   3.7619   3.9366   4.0081   4.2742   4.4717   4.5879   4.7059
     4.7398   4.9983   5.0605   5.1098   5.1649   5.2717   5.3056   5.3170
     5.4032   5.5740   5.5889   5.7371   5.7443   5.7652   5.7893   5.8779
     5.9424   6.0786   6.1551   6.2366   6.2894   6.3478   6.3804   6.3877
     6.4852   6.6429   6.6832   6.6890   6.8776   7.0069   7.0452   7.0830
     7.1337   7.1624   7.2732   7.3302   7.4183   7.4376   7.5267   7.5899
     7.6522   7.6771   7.9116   8.0076   8.0626   8.1097   8.1472   8.1600
     8.2634   8.3388   8.3486   8.3720   8.5204   8.5407   8.6204   8.7798
     8.8410   8.9269   8.9849   9.0726   9.2228   9.2823   9.3077

 ------ SPIN DOWN ----------


          k = 0.0000 0.0000 0.0000 ( 61588 PWs)   bands (ev):

   -60.7688 -60.7675 -60.7209 -60.7173 -60.6929 -60.6861 -60.6416 -60.6407
   -60.4836 -60.2963 -54.3683 -54.3207 -54.2433 -54.1956 -52.7027 -46.2555
   -46.2281 -41.5926 -41.5776 -41.4750 -41.4648 -39.7796 -27.7692 -27.7644
   -27.6795 -27.6777 -27.5795 -27.5733 -27.4527 -27.4438 -27.3595 -27.3271
   -27.2935 -27.2563 -27.2487 -27.2306 -27.2190 -27.1603 -27.1490 -27.1178
   -27.0635 -27.0238 -26.9742 -26.9446 -26.9405 -26.9347 -26.9207 -26.9055
   -26.8767 -26.8651 -26.8403 -26.8372 -24.1513 -23.9419 -23.6412 -23.5601
   -23.3002 -23.1691 -23.1448 -23.0485 -22.9136 -22.8462 -22.8286 -22.6117
   -22.4895 -22.4368 -22.3784 -22.3398 -22.2542 -22.2137 -21.7468 -21.7070
   -21.6252 -20.1581 -19.8732 -19.8087 -19.7592 -19.5754 -19.5641 -19.5445
   -19.5216 -19.5085 -19.4914 -19.3296 -19.2929 -18.1329 -17.9193 -17.7865
     1.0326   1.9308   2.9485   3.1636   3.3204   3.4363   3.4883   3.6420
     3.7113   3.7615   3.9354   4.0076   4.2739   4.4711   4.5873   4.7052
     4.7393   4.9978   5.0597   5.1091   5.1642   5.2711   5.3049   5.3165
     5.4023   5.5736   5.5885   5.7369   5.7438   5.7643   5.7888   5.8774
     5.9421   6.0779   6.1542   6.2361   6.2889   6.3470   6.3798   6.3871
     6.4845   6.6423   6.6824   6.6884   6.8768   7.0060   7.0430   7.0806
     7.1318   7.1613   7.2709   7.3294   7.4171   7.4343   7.5243   7.5891
     7.6510   7.6762   7.9108   8.0067   8.0615   8.1082   8.1466   8.1589
     8.2610   8.3378   8.3481   8.3698   8.5196   8.5398   8.6194   8.7791
     8.8401   8.9249   8.9841   9.0720   9.2224   9.2809   9.3053

     the Fermi energy is     7.2668 ev

!    total energy              =   -2943.04188101 Ry
     estimated scf accuracy    <       0.00096879 Ry
     smearing contrib. (-TS)   =      -0.10273929 Ry
     internal energy E=F+TS    =   -2942.93914171 Ry

     total magnetization       =    -0.03 Bohr mag/cell
     absolute magnetization    =     0.03 Bohr mag/cell

     convergence has been achieved in   3 iterations

     negative rho (up, down):  9.087E-01 9.087E-01

     Forces acting on atoms (cartesian axes, Ry/au):

     atom    1 type  1   force =    -0.01260426   -0.02949797    0.00688199
     atom    2 type  1   force =    -0.11326843   -0.01403848   -0.00419538
     atom    3 type  1   force =    -0.11164843    0.01113810    0.00134237
     atom    4 type  1   force =     0.11242176   -0.02594538   -0.00746831
     atom    5 type  1   force =     0.11324032    0.02260275   -0.00324899
     atom    6 type  2   force =    -0.00698238   -0.02009907    0.00508525
     atom    7 type  2   force =    -0.01621470    0.02012968   -0.00824914
     atom    8 type  3   force =    -0.11390778    0.00253248   -0.00311804
     atom    9 type  3   force =     0.04658946    0.00393455   -0.10908481
     atom   10 type  3   force =    -0.02230607   -0.03045620   -0.05807054
     atom   11 type  3   force =    -0.01416907   -0.03445031    0.05638155
     atom   12 type  3   force =    -0.01668671    0.03613387   -0.05325831
     atom   13 type  3   force =    -0.01401300    0.02823339    0.05911006
     atom   14 type  3   force =     0.02156059   -0.03127882   -0.05631858
     atom   15 type  3   force =     0.01489122   -0.04122734    0.05450099
     atom   16 type  3   force =     0.01692446    0.03597460   -0.05056355
     atom   17 type  3   force =     0.01327371    0.03580851    0.05856088
     atom   18 type  4   force =    -0.00916494    0.03102630   -0.01504961
     atom   19 type  4   force =    -0.12838453   -0.00543840   -0.11379666
     atom   20 type  4   force =    -0.12790447    0.00503231    0.11279131
     atom   21 type  4   force =     0.13166328   -0.00523949   -0.12619831
     atom   22 type  4   force =     0.12824298    0.00809641    0.12845537
     atom   23 type  5   force =     0.10844701   -0.00297152    0.12551047
     The non-local contrib.  to forces
     atom    1 type  1   force =     0.00956202   -0.00994452    0.03119233
     atom    2 type  1   force =    -0.24345627   -0.16308343    0.01826077
     atom    3 type  1   force =    -0.23800026    0.15800402   -0.02392280
     atom    4 type  1   force =     0.25640126   -0.16397376    0.03413284
     atom    5 type  1   force =     0.24784939    0.15620971   -0.01117666
     atom    6 type  2   force =     0.00938275   -0.04893589   -0.06236870
     atom    7 type  2   force =    -0.00186896    0.06878145    0.05422714
     atom    8 type  3   force =    -0.25996441    0.00023088    0.00321416
     atom    9 type  3   force =     0.20651361   -0.00115360   -0.01501613
     atom   10 type  3   force =    -0.21010234    0.00523603   -0.20392426
     atom   11 type  3   force =    -0.21412017    0.00869444    0.19387639
     atom   12 type  3   force =    -0.20075351   -0.01941922   -0.17597924
     atom   13 type  3   force =    -0.20266095   -0.00556677    0.20462781
     atom   14 type  3   force =     0.21193860    0.00822155   -0.22039021
     atom   15 type  3   force =     0.22885518    0.00873826    0.17329697
     atom   16 type  3   force =     0.20074388   -0.02444424   -0.18830376
     atom   17 type  3   force =     0.21574441   -0.00640410    0.18103558
     atom   18 type  4   force =     0.00783502    0.05627250   -0.06302608
     atom   19 type  4   force =     0.05924651    0.00814221    0.07641754
     atom   20 type  4   force =     0.05039487   -0.01309643   -0.06882139
     atom   21 type  4   force =    -0.06355432    0.00875303    0.06671429
     atom   22 type  4   force =    -0.04458861   -0.01042147   -0.07578561
     atom   23 type  5   force =    -0.04980886   -0.00055653   -0.03227639
     The ionic contribution  to forces
     atom    1 type  1   force =    -0.67424934   -5.01225793   14.00260519
     atom    2 type  1   force =   -39.75197126   -6.19738895    0.69834569
     atom    3 type  1   force =   -39.72543374    6.18486785   -0.79558195
     atom    4 type  1   force =    39.52859668   -6.44717233    0.55893701
     atom    5 type  1   force =    39.49895418    6.43910490   -0.93424619
     atom    6 type  2   force =    -0.19715109   -3.64997648  -14.10844728
     atom    7 type  2   force =    -0.71734653    4.03978941   13.94081229
     atom    8 type  3   force =   -52.31773864    0.07190059   -0.22677200
     atom    9 type  3   force =    50.64778614    0.07353330   -2.54578085
     atom   10 type  3   force =   -36.07999876   -2.11492997  -23.05847211
     atom   11 type  3   force =   -35.21483074   -0.92132426   22.12170189
     atom   12 type  3   force =   -35.26398408    0.81727666  -22.11140129
     atom   13 type  3   force =   -36.11543593    2.25554529   23.10011235
     atom   14 type  3   force =    35.99793932   -2.14724336  -23.09435717
     atom   15 type  3   force =    34.98069613   -1.15305412   22.27791936
     atom   16 type  3   force =    35.18255384    0.84922664  -22.14650411
     atom   17 type  3   force =    35.87873837    2.48922357   23.25671260
     atom   18 type  4   force =    -0.18433443    4.45205963  -14.05659039
     atom   19 type  4   force =   -35.93238532    0.95664256  -25.52330687
     atom   20 type  4   force =   -36.06478062   -0.95226842   25.61647638
     atom   21 type  4   force =    35.81936283    0.95605006  -25.60603935
     atom   22 type  4   force =    35.07344088   -0.94008432   27.09149368
     atom   23 type  5   force =     5.63157211   -0.04952034    1.54238315
     The local contribution  to forces
     atom    1 type  1   force =     0.66227656    4.98002592  -14.01002115
     atom    2 type  1   force =    39.90189089    6.34341491   -0.72110763
     atom    3 type  1   force =    39.87298585   -6.32875555    0.82318792
     atom    4 type  1   force =   -39.68713647    6.57597438   -0.59803726
     atom    5 type  1   force =   -39.64818487   -6.56298803    0.94102165
     atom    6 type  2   force =     0.18066209    3.66050260   14.16082985
     atom    7 type  2   force =     0.71397928   -4.07699092  -13.98494957
     atom    8 type  3   force =    52.48802427   -0.07010439    0.21892290
     atom    9 type  3   force =   -50.80554291   -0.06875091    2.49780866
     atom   10 type  3   force =    36.30867531    2.07418452   23.23342054
     atom   11 type  3   force =    35.45987911    0.86575694  -22.28615302
     atom   12 type  3   force =    35.49411150   -0.75251069   22.26323974
     atom   13 type  3   force =    36.34555785   -2.20727146  -23.27338432
     atom   14 type  3   force =   -36.20716249    2.08805546   23.27741533
     atom   15 type  3   force =   -35.21545426    1.09595066  -22.41310983
     atom   16 type  3   force =   -35.38249889   -0.77467820   22.30561323
     atom   17 type  3   force =   -36.09855359   -2.43506516  -23.39361657
     atom   18 type  4   force =     0.17274299   -4.45826809   14.08907852
     atom   19 type  4   force =    35.76778900   -0.97296845   25.35256957
     atom   20 type  4   force =    35.91703639    0.96809456  -25.44800260
     atom   21 type  4   force =   -35.63156387   -0.96677190   25.40654860
     atom   22 type  4   force =   -34.92903768    0.95484542  -26.87043534
     atom   23 type  5   force =    -5.47517486    0.04688583   -1.38760169
     The core correction contribution to forces
     atom    1 type  1   force =     0.00124010    0.00289467   -0.00055295
     atom    2 type  1   force =    -0.01186030   -0.00169787    0.00073523
     atom    3 type  1   force =    -0.01222667    0.00247599   -0.00136035
     atom    4 type  1   force =     0.01413748   -0.00257643    0.00225669
     atom    5 type  1   force =     0.01433788    0.00212882    0.00047418
     atom    6 type  2   force =    -0.00050202    0.00231473    0.00255703
     atom    7 type  2   force =     0.00033941   -0.00338199   -0.00198706
     atom    8 type  3   force =    -0.03121696    0.00016291   -0.00017317
     atom    9 type  3   force =     0.02071421    0.00034247   -0.00834054
     atom   10 type  3   force =    -0.02164885    0.00957555   -0.01576363
     atom   11 type  3   force =    -0.02349761    0.00986065    0.01748414
     atom   12 type  3   force =    -0.02176543   -0.00988498   -0.01530513
     atom   13 type  3   force =    -0.02176431   -0.00939920    0.01690370
     atom   14 type  3   force =     0.02160211    0.00831832   -0.01722387
     atom   15 type  3   force =     0.02584289    0.01052419    0.01459477
     atom   16 type  3   force =     0.02109417   -0.00864984   -0.01644882
     atom   17 type  3   force =     0.02320264   -0.00928851    0.01491270
     atom   18 type  4   force =    -0.00042220   -0.00295659    0.00300743
     atom   19 type  4   force =    -0.00949725    0.00007910   -0.00977095
     atom   20 type  4   force =    -0.00897752    0.00032001    0.00936901
     atom   21 type  4   force =     0.00983556    0.00006052   -0.00958835
     atom   22 type  4   force =     0.00791790    0.00019808    0.01104667
     atom   23 type  5   force =     0.00000000    0.00000000    0.00000000
     The Hubbard contrib.    to forces
     atom    1 type  1   force =     0.00000000    0.00000000    0.00000000
     atom    2 type  1   force =     0.00000000    0.00000000    0.00000000
     atom    3 type  1   force =     0.00000000    0.00000000    0.00000000
     atom    4 type  1   force =     0.00000000    0.00000000    0.00000000
     atom    5 type  1   force =     0.00000000    0.00000000    0.00000000
     atom    6 type  2   force =     0.00000000    0.00000000    0.00000000
     atom    7 type  2   force =     0.00000000    0.00000000    0.00000000
     atom    8 type  3   force =     0.00000000    0.00000000    0.00000000
     atom    9 type  3   force =     0.00000000    0.00000000    0.00000000
     atom   10 type  3   force =     0.00000000    0.00000000    0.00000000
     atom   11 type  3   force =     0.00000000    0.00000000    0.00000000
     atom   12 type  3   force =     0.00000000    0.00000000    0.00000000
     atom   13 type  3   force =     0.00000000    0.00000000    0.00000000
     atom   14 type  3   force =     0.00000000    0.00000000    0.00000000
     atom   15 type  3   force =     0.00000000    0.00000000    0.00000000
     atom   16 type  3   force =     0.00000000    0.00000000    0.00000000
     atom   17 type  3   force =     0.00000000    0.00000000    0.00000000
     atom   18 type  4   force =     0.00000000    0.00000000    0.00000000
     atom   19 type  4   force =     0.00000000    0.00000000    0.00000000
     atom   20 type  4   force =     0.00000000    0.00000000    0.00000000
     atom   21 type  4   force =     0.00000000    0.00000000    0.00000000
     atom   22 type  4   force =     0.00000000    0.00000000    0.00000000
     atom   23 type  5   force =     0.00000000    0.00000000    0.00000000
     The SCF correction term to forces
     atom    1 type  1   force =    -0.01046680    0.00977112   -0.01583027
     atom    2 type  1   force =    -0.00690468    0.00470409    0.00008172
     atom    3 type  1   force =    -0.00800680   -0.00546699   -0.00046929
     atom    4 type  1   force =     0.00138963    0.01178998   -0.00424643
     atom    5 type  1   force =     0.00125055   -0.01186542    0.00118919
     atom    6 type  2   force =     0.00159271    0.01598319    0.01302551
     atom    7 type  2   force =    -0.01035110   -0.00808105   -0.01584078
     atom    8 type  3   force =     0.00795477    0.00032972    0.00220123
     atom    9 type  3   force =    -0.02191478   -0.00004948   -0.03724478
     atom   10 type  3   force =    -0.01826461   -0.00453511   -0.01281991
     atom   11 type  3   force =    -0.02063286    0.00254915    0.00998331
     atom   12 type  3   force =    -0.02332837    0.00065933   -0.01330124
     atom   13 type  3   force =    -0.01874285   -0.00508725    0.01136167
     atom   14 type  3   force =    -0.00179013    0.01135643   -0.00125150
     atom   15 type  3   force =    -0.00408191   -0.00339910    0.00231088
     atom   16 type  3   force =    -0.00400174   -0.00549254   -0.00440893
     atom   17 type  3   force =    -0.00489130   -0.00267006    0.00002772
     atom   18 type  4   force =    -0.00401951   -0.01609392    0.01299207
     atom   19 type  4   force =    -0.01257066    0.00265341   -0.00919479
     atom   20 type  4   force =    -0.02061078    0.00196981    0.00428107
     atom   21 type  4   force =    -0.00145012   -0.00334398    0.01667767
     atom   22 type  4   force =     0.02147730    0.00354593   -0.02735287
     atom   23 type  5   force =     0.00282542    0.00020674    0.00351656

     Total force =     0.521714     Total SCF correction =     0.094476
     SCF correction compared to forces is large: reduce conv_thr to get better values


     Computing stress (Cartesian axis) and pressure


     negative rho (up, down):  9.087E-01 9.087E-01
          total   stress  (Ry/bohr**3)                   (kbar)     P=       89.68
   0.00069057  -0.00000083   0.00003559          101.59       -0.12        5.24
  -0.00000083   0.00067486  -0.00001047           -0.12       99.28       -1.54
   0.00003559  -0.00001047   0.00046346            5.24       -1.54       68.18


     Entering Dynamics:    iteration =     3
                           time      =   0.0006 pico-seconds


ATOMIC_POSITIONS (angstrom)
Hf            2.6701849183        2.8271164046        6.6042915009
Hf            1.2531495395        1.2862807083        5.0587918857
Hf            1.2556462290        7.3898069886        5.0883948796
Hf            4.0872270400        1.2862780281        5.0587908065
Hf            4.0847310179        7.3898096686        5.0883939037
Nb            2.6701864233        2.7969219357        3.5159132241
Nb            2.6701813891        5.8763876077        6.6353201515
Ta            1.2095342427        4.3409285090        5.0714513380
Ta            4.1308406330        4.3409285404        5.0714468765
Ta            1.3074350067        1.3141144696        2.0590902930
Ta            1.3029727268        1.3083824665        8.0949205447
[...]
     4.7382   4.9111   5.0226   5.0698   5.1287   5.2702   5.3067   5.3212
     5.3896   5.5786   5.5878   5.7263   5.7407   5.7564   5.7962   5.8788
     5.9457   6.0693   6.1388   6.2432   6.2952   6.3253   6.3964   6.4226
     6.4364   6.6408   6.6662   6.6940   6.8440   6.9608   7.0325   7.0566
     7.1057   7.1432   7.2847   7.2982   7.3474   7.4370   7.5171   7.6251
     7.6594   7.7947   7.9084   7.9948   8.1103   8.1161   8.1502   8.1646
     8.2686   8.3393   8.3548   8.3757   8.4771   8.5344   8.6594   8.7774
     8.7997   8.9177   8.9934   9.0750   9.2007   9.2062   9.2904

     the Fermi energy is     7.2487 ev

!    total energy              =   -2943.05051923 Ry
     estimated scf accuracy    <       0.00051104 Ry
     smearing contrib. (-TS)   =      -0.09861857 Ry
     internal energy E=F+TS    =   -2942.95190065 Ry

     total magnetization       =    -0.00 Bohr mag/cell
     absolute magnetization    =     0.00 Bohr mag/cell

     convergence has been achieved in   4 iterations

     negative rho (up, down):  9.082E-01 9.082E-01

     Forces acting on atoms (cartesian axes, Ry/au):

     atom    1 type  1   force =    -0.00721914   -0.02087568    0.00049899
     atom    2 type  1   force =    -0.11449889   -0.01510166   -0.00696531
     atom    3 type  1   force =    -0.11174592    0.01230823   -0.00099298
     atom    4 type  1   force =     0.11261607   -0.02520367   -0.00842867
     atom    5 type  1   force =     0.11186199    0.02430123   -0.00287051
     atom    6 type  2   force =    -0.00855684   -0.01746511    0.00382677
     atom    7 type  2   force =    -0.00853809    0.01072627   -0.01294415
     atom    8 type  3   force =    -0.10448137    0.00279347   -0.00942001
     atom    9 type  3   force =     0.13430047    0.00026769    0.03620800
     atom   10 type  3   force =    -0.02241597   -0.03243269   -0.06049502
     atom   11 type  3   force =    -0.01624364   -0.03356467    0.06186890
     atom   12 type  3   force =    -0.01702130    0.03762534   -0.05559045
     atom   13 type  3   force =    -0.01563524    0.02797086    0.06568666
     atom   14 type  3   force =     0.02279061   -0.03150934   -0.05792365
     atom   15 type  3   force =     0.01338442   -0.04244552    0.05898160
     atom   16 type  3   force =     0.01758447    0.03629600   -0.05277655
     atom   17 type  3   force =     0.01108314    0.03604583    0.06118895
     atom   18 type  4   force =    -0.01151862    0.02693165   -0.02061280
     atom   19 type  4   force =    -0.12496744   -0.00498779   -0.11692394
     atom   20 type  4   force =    -0.12135826    0.00614968    0.11885414
     atom   21 type  4   force =     0.12314835   -0.00468677   -0.11617003
     atom   22 type  4   force =     0.04641629    0.00972108    0.20444061
     atom   23 type  5   force =     0.09101491   -0.00286443   -0.08944055
     The non-local contrib.  to forces
     atom    1 type  1   force =     0.00345124   -0.01360178    0.02578092
     atom    2 type  1   force =    -0.24388343   -0.16420351    0.01225761
     atom    3 type  1   force =    -0.23803278    0.15990729   -0.03065370
     atom    4 type  1   force =     0.25367422   -0.16713675    0.02916360
     atom    5 type  1   force =     0.24540171    0.16514589   -0.01472544
     atom    6 type  2   force =     0.00484620   -0.03551334   -0.05229859
     atom    7 type  2   force =    -0.00580872    0.05929156    0.05712524
     atom    8 type  3   force =    -0.26988819   -0.00076232   -0.00272011
     atom    9 type  3   force =     0.27812859    0.00099126    0.02393939
     atom   10 type  3   force =    -0.21089248    0.00472569   -0.20772998
     atom   11 type  3   force =    -0.21895471    0.00475371    0.20174683
     atom   12 type  3   force =    -0.20120296   -0.02051016   -0.17843626
     atom   13 type  3   force =    -0.20664711   -0.00134237    0.21451711
     atom   14 type  3   force =     0.20616299    0.00359226   -0.21590963
     atom   15 type  3   force =     0.23826679    0.01530318    0.18283227
     atom   16 type  3   force =     0.19531298   -0.02029820   -0.18609677
     atom   17 type  3   force =     0.22371041   -0.01085969    0.19414755
     atom   18 type  4   force =     0.00723089    0.04426579   -0.05258988
     atom   19 type  4   force =     0.06459911    0.01017989    0.07736376
     atom   20 type  4   force =     0.05039889   -0.01448924   -0.05472559
     atom   21 type  4   force =    -0.05868802    0.00862925    0.07880791
     atom   22 type  4   force =    -0.05883640   -0.01134228   -0.09674518
     atom   23 type  5   force =    -0.05656433    0.00112963    0.03389974
     The ionic contribution  to forces
     atom    1 type  1   force =    -0.26903471   -4.68774457   13.92884657
     atom    2 type  1   force =   -39.69729632   -6.18078720    0.74207920
     atom    3 type  1   force =   -39.67063145    6.16861943   -0.75138383
     atom    4 type  1   force =    39.57155519   -6.29034841    0.69361758
     atom    5 type  1   force =    39.54547111    6.27600037   -0.79693271
     atom    6 type  2   force =    -0.33096538   -3.88880495  -14.13396042
     atom    7 type  2   force =    -0.28850652    3.69376689   13.85328782
     atom    8 type  3   force =   -52.31827193    0.07134768   -0.06519338
     atom    9 type  3   force =    51.42434902    0.11471763   -0.47906216
     atom   10 type  3   force =   -36.06323896   -2.11436626  -23.01096403
     atom   11 type  3   force =   -35.13844601   -0.88740287   22.03625551
     atom   12 type  3   force =   -35.25054783    0.81829117  -22.06634667
     atom   13 type  3   force =   -36.03647487    2.22058284   23.01455250
     atom   14 type  3   force =    35.98376606   -2.17018841  -23.02776619
     atom   15 type  3   force =    34.88954552   -1.11862581   22.10019068
     atom   16 type  3   force =    35.17189038    0.87290273  -22.08250750
     atom   17 type  3   force =    35.79099840    2.44433522   23.07443422
     atom   18 type  4   force =    -0.31429555    4.67457635  -14.08169975
     atom   19 type  4   force =   -35.93153794    0.95378886  -25.46330190
     atom   20 type  4   force =   -35.89240556   -0.94991942   25.44181564
     atom   21 type  4   force =    35.81260489    0.95205476  -25.65259198
     atom   22 type  4   force =    33.96029399   -0.90954912   26.54389793
     atom   23 type  5   force =     5.05117846   -0.06324692    0.18273285
     The local contribution  to forces
     atom    1 type  1   force =     0.25686843    4.67303405  -13.95107808
     atom    2 type  1   force =    39.84364370    6.32854838   -0.77423419
     atom    3 type  1   force =    39.81383392   -6.31614535    0.77029432
     atom    4 type  1   force =   -39.72908016    6.43147086   -0.74755900
     atom    5 type  1   force =   -39.69610047   -6.41669622    0.79450669
     atom    6 type  2   force =     0.31750319    3.90133745   14.15735943
     atom    7 type  2   force =     0.28511364   -3.73182154  -13.91751622
     atom    8 type  3   force =    52.52160598   -0.06807985    0.04133298
     atom    9 type  3   force =   -51.61066352   -0.11574419    0.46756862
     atom   10 type  3   force =    36.28045227    2.06429246   23.15994336
     atom   11 type  3   force =    35.37298622    0.83529558  -22.17293365
     atom   12 type  3   force =    35.46354029   -0.74745930   22.19030246
     atom   13 type  3   force =    36.25771055   -2.17839092  -23.15978578
     atom   14 type  3   force =   -36.19386451    2.11991658   23.18682950
     atom   15 type  3   force =   -35.14750088    1.04570691  -22.22025804
     atom   16 type  3   force =   -35.37636977   -0.80138909   22.21673277
     atom   17 type  3   force =   -36.03492097   -2.38337595  -23.20367850
     atom   18 type  4   force =     0.29537465   -4.68579181   14.08307069
     atom   19 type  4   force =    35.75879049   -0.96860516   25.26336439
     atom   20 type  4   force =    35.73417923    0.97018718  -25.25575443
     atom   21 type  4   force =   -35.64803273   -0.96541760   25.45211853
     atom   22 type  4   force =   -33.85088730    0.92996665  -26.23395850
     atom   23 type  5   force =    -4.90139559    0.05905958   -0.30286228
     The core correction contribution to forces
     atom    1 type  1   force =     0.00148828    0.00130911   -0.00091676
     atom    2 type  1   force =    -0.01232457   -0.00199651   -0.00004041
     atom    3 type  1   force =    -0.01244189    0.00306290   -0.00227375
     atom    4 type  1   force =     0.01391478   -0.00321721    0.00390933
     atom    5 type  1   force =     0.01433941    0.00394766    0.00164627
     atom    6 type  2   force =    -0.00038979    0.00151215    0.00187537
     atom    7 type  2   force =     0.00036661   -0.00287883   -0.00223356
     atom    8 type  3   force =    -0.03413804    0.00013692   -0.00085191
     atom    9 type  3   force =     0.03220499   -0.00024906    0.00064176
     atom   10 type  3   force =    -0.02154268    0.00897161   -0.01645251
     atom   11 type  3   force =    -0.02396113    0.00944176    0.01719735
     atom   12 type  3   force =    -0.02161402   -0.00942564   -0.01569231
     atom   13 type  3   force =    -0.02229924   -0.00893558    0.01705845
     atom   14 type  3   force =     0.02173466    0.00932896   -0.01615143
     atom   15 type  3   force =     0.02640105    0.01115772    0.01476940
     atom   16 type  3   force =     0.02154559   -0.00949983   -0.01567879
     atom   17 type  3   force =     0.02408320   -0.01019017    0.01517839
     atom   18 type  4   force =    -0.00054182   -0.00223258    0.00211912
     atom   19 type  4   force =    -0.00981206   -0.00001864   -0.00987730
     atom   20 type  4   force =    -0.00875440    0.00041435    0.00902477
     atom   21 type  4   force =     0.00950502    0.00006633   -0.01016870
     atom   22 type  4   force =     0.00474864    0.00033612    0.01415951
     atom   23 type  5   force =     0.00000000    0.00000000    0.00000000
     The Hubbard contrib.    to forces
     atom    1 type  1   force =     0.00000000    0.00000000    0.00000000
     atom    2 type  1   force =     0.00000000    0.00000000    0.00000000
     atom    3 type  1   force =     0.00000000    0.00000000    0.00000000
     atom    4 type  1   force =     0.00000000    0.00000000    0.00000000
     atom    5 type  1   force =     0.00000000    0.00000000    0.00000000
     atom    6 type  2   force =     0.00000000    0.00000000    0.00000000
     atom    7 type  2   force =     0.00000000    0.00000000    0.00000000
     atom    8 type  3   force =     0.00000000    0.00000000    0.00000000
     atom    9 type  3   force =     0.00000000    0.00000000    0.00000000
     atom   10 type  3   force =     0.00000000    0.00000000    0.00000000
     atom   11 type  3   force =     0.00000000    0.00000000    0.00000000
     atom   12 type  3   force =     0.00000000    0.00000000    0.00000000
     atom   13 type  3   force =     0.00000000    0.00000000    0.00000000
     atom   14 type  3   force =     0.00000000    0.00000000    0.00000000
     atom   15 type  3   force =     0.00000000    0.00000000    0.00000000
     atom   16 type  3   force =     0.00000000    0.00000000    0.00000000
     atom   17 type  3   force =     0.00000000    0.00000000    0.00000000
     atom   18 type  4   force =     0.00000000    0.00000000    0.00000000
     atom   19 type  4   force =     0.00000000    0.00000000    0.00000000
     atom   20 type  4   force =     0.00000000    0.00000000    0.00000000
     atom   21 type  4   force =     0.00000000    0.00000000    0.00000000
     atom   22 type  4   force =     0.00000000    0.00000000    0.00000000
     atom   23 type  5   force =     0.00000000    0.00000000    0.00000000
     The SCF correction term to forces
     atom    1 type  1   force =     0.00019647    0.00605799   -0.00294585
     atom    2 type  1   force =    -0.00444942    0.00326765    0.01216029
     atom    3 type  1   force =    -0.00428486   -0.00320557    0.01221180
     atom    4 type  1   force =     0.00274089    0.00395831    0.01162764
     atom    5 type  1   force =     0.00293908   -0.00416600    0.01182248
     atom    6 type  2   force =     0.00063780    0.00393406    0.03003879
     atom    7 type  2   force =     0.00048575   -0.00770133   -0.00441962
     atom    8 type  3   force =    -0.00360034    0.00008149    0.01720022
     atom    9 type  3   force =     0.01047024    0.00048252    0.02230820
     atom   10 type  3   force =    -0.00700527    0.00387428    0.01389596
     atom   11 type  3   force =    -0.00767917    0.00427762   -0.02120933
     atom   12 type  3   force =    -0.00700793   -0.00334026    0.01377015
     atom   13 type  3   force =    -0.00773571   -0.00401263   -0.02146781
     atom   14 type  3   force =     0.00518026    0.00577174    0.01426192
     atom   15 type  3   force =     0.00686078    0.00394294   -0.01936489
     atom   16 type  3   force =     0.00539414   -0.00548914    0.01396156
     atom   17 type  3   force =     0.00740095   -0.00393310   -0.01970490
     atom   18 type  4   force =     0.00090205   -0.00395562    0.02767482
     atom   19 type  4   force =    -0.00681818   -0.00040227    0.01471492
     atom   20 type  4   force =    -0.00458757   -0.00011271   -0.02231844
     atom   21 type  4   force =     0.00794802   -0.00008904    0.01485204
     atom   22 type  4   force =    -0.00871380    0.00024018   -0.02372533
     atom   23 type  5   force =    -0.00201479    0.00012376   -0.00402305

     Total force =     0.522595     Total SCF correction =     0.090176
     SCF correction compared to forces is large: reduce conv_thr to get better values


     Computing stress (Cartesian axis) and pressure


     negative rho (up, down):  9.082E-01 9.082E-01
          total   stress  (Ry/bohr**3)                   (kbar)     P=       86.32
   0.00068379  -0.00000170  -0.00002245          100.59       -0.25       -3.30
  -0.00000170   0.00066786  -0.00001032           -0.25       98.25       -1.52
  -0.00002245  -0.00001032   0.00040871           -3.30       -1.52       60.12


     Entering Dynamics:    iteration =    20
                           time      =   0.0041 pico-seconds


ATOMIC_POSITIONS (angstrom)
Hf            2.6711860322        2.8268892283        6.6061516045
Hf            1.2529158398        1.2861330648        5.0605764055
Hf            1.2554176902        7.3899268529        5.0902579482
Hf            4.0895820806        1.2860957411        5.0605708798
Hf            4.0870891426        7.3899555057        5.0902390844
Nb            2.6712908127        2.7966248378        3.5179588507
Nb            2.6711376499        5.8766582527        6.6369039310
Ta            1.2093001149        4.3409617446        5.0732945756
Ta            4.1056962356        4.3411704297        5.0274220528
Ta            1.3082342159        1.3137373580        2.0603072014
Ta            1.3038403656        1.3079932924        8.0974120754
Ta            1.3050384789        7.3762592918        2.0478071906
Ta            1.3087791918        7.3654099712        8.0888666835
Ta            4.0342458777        1.3138104394        2.0603059612
Ta            4.0386631199        1.3079725675        8.0973758828
Ta            4.0374492009        7.3762034627        2.0478116852
Ta            4.0337141052        7.3654329609        8.0888429623
Zr            2.6712776230        5.8667529760        3.5293844566
Zr            1.2422127306        4.3219712548        1.9995878753
Zr            1.2387166324        4.3542396090        8.1545186790
Zr            4.1003615841        4.3219534311        1.9993964148
Zr            4.1037867247        4.3542928044        8.1546287819
H             5.5331988569        4.3216462549        7.3280565206


     kinetic energy (Ekin) =           8.08497833 Ry
     temperature           =       38682.33687472 K 
     Ekin + Etot (const)   =       -2934.96554089 Ry
     Ions kinetic stress =          142.79 (kbar)
                                    122.44          -1.85         193.28
                                     -1.85           0.04          -2.92
                                    193.28          -2.92         305.89



     Linear momentum :    0.0000000000   -0.0000000000   -0.0000000000

     The maximum number of steps has been reached.

     End of molecular dynamics calculation

     diffusion coefficients :
     atom     1   D =       0.00000003 cm^2/s
     atom     2   D =       0.00000002 cm^2/s
     atom     3   D =       0.00000002 cm^2/s
     atom     4   D =       0.00000005 cm^2/s
     atom     5   D =       0.00000005 cm^2/s
     atom     6   D =       0.00000003 cm^2/s
     atom     7   D =       0.00000002 cm^2/s
     atom     8   D =       0.00000002 cm^2/s
     atom     9   D =       0.00001038 cm^2/s
     atom    10   D =       0.00000001 cm^2/s
     atom    11   D =       0.00000004 cm^2/s
     atom    12   D =       0.00000002 cm^2/s
     atom    13   D =       0.00000004 cm^2/s
     atom    14   D =       0.00000002 cm^2/s
     atom    15   D =       0.00000004 cm^2/s
     atom    16   D =       0.00000002 cm^2/s
     atom    17   D =       0.00000004 cm^2/s
     atom    18   D =       0.00000002 cm^2/s
     atom    19   D =       0.00000001 cm^2/s
     atom    20   D =       0.00000010 cm^2/s
     atom    21   D =       0.00000007 cm^2/s
     atom    22   D =       0.00000017 cm^2/s
     atom    23   D =       0.00179144 cm^2/s

     < D > =       0.00007838 cm^2/s

     Writing all to output data dir outdir/pwscf.save/

     init_run     :     10.01s CPU     12.25s WALL (       1 calls)
     electrons    :   2222.49s CPU   2856.34s WALL (      20 calls)
     update_pot   :     18.06s CPU     20.57s WALL (      19 calls)
     forces       :    237.28s CPU    305.21s WALL (      20 calls)
     stress       :    364.83s CPU    410.36s WALL (      20 calls)

     Called by init_run:
     wfcinit      :      7.88s CPU      9.31s WALL (       1 calls)
     potinit      :      0.45s CPU      0.50s WALL (       1 calls)
     hinit0       :      0.88s CPU      1.09s WALL (       1 calls)

     Called by electrons:
     c_bands      :   1745.53s CPU   2269.13s WALL (      98 calls)
     sum_band     :    314.72s CPU    389.79s WALL (      98 calls)
     v_of_rho     :     10.12s CPU     12.52s WALL (     118 calls)
     newd         :    180.05s CPU    218.58s WALL (     118 calls)
     mix_rho      :      0.89s CPU      1.25s WALL (      98 calls)

     Called by c_bands:
     init_us_2    :      3.43s CPU      3.54s WALL (     474 calls)
     init_us_2:cp :      3.43s CPU      3.54s WALL (     474 calls)
     regterg      :   1732.50s CPU   2252.27s WALL (     196 calls)

     Called by *egterg:
     rdiaghg      :     61.24s CPU     78.85s WALL (    1574 calls)
     h_psi        :    874.47s CPU   1035.10s WALL (    1614 calls)
     s_psi        :    297.12s CPU    297.95s WALL (    1614 calls)
     g_psi        :      0.63s CPU      0.70s WALL (    1416 calls)

     Called by h_psi:
     h_psi:calbec :    423.52s CPU    543.31s WALL (    1614 calls)
     vloc_psi     :     99.10s CPU    138.65s WALL (    1614 calls)
     add_vuspsi   :    350.71s CPU    351.89s WALL (    1614 calls)

     General routines
     calbec       :    777.96s CPU   1010.10s WALL (    2010 calls)
     fft          :      9.84s CPU     32.45s WALL (    2469 calls)
     ffts         :      0.21s CPU      0.29s WALL (      98 calls)
     fftw         :    108.16s CPU    152.35s WALL (  104512 calls)

     Parallel routines

     PWSCF        :  48m 1.64s CPU      1h 0m WALL


   This run was terminated on:  18:14:41  13Jun2023            

=------------------------------------------------------------------------------=
   JOB DONE.
=------------------------------------------------------------------------------=
