
     Program PWSCF v.7.2 starts on  6Jun2023 at  2:30:36 

     This program is part of the open-source Quantum ESPRESSO suite
     for quantum simulation of materials; please cite
         "P. Giannozzi et al., J. Phys.:Condens. Matter 21 395502 (2009);
         "P. Giannozzi et al., J. Phys.:Condens. Matter 29 465901 (2017);
         "P. Giannozzi et al., J. Chem. Phys. 152 154105 (2020);
          URL http://www.quantum-espresso.org", 
     in publications or presentations arising from this work. More details at
     http://www.quantum-espresso.org/quote

     Parallel version (MPI), running on    12 processors

     MPI processes distributed on     1 nodes
     68861 MiB available memory on the printing compute node when the environment starts

     Reading input from md_Hf5Nb2Ta10Zr5H_15steps_1000eV_relaxed_slab.in
Warning: card &CELL ignored
Warning: card / ignored

     Current dimensions of program PWSCF are:
     Max number of different atomic species (ntypx) = 10
     Max number of k-points (npk) =  40000
     Max angular momentum in pseudopotentials (lmaxx) =  4

     File outdir/pwscf.update deleted, as requested

     File outdir/pwscf.md deleted, as requested

     gamma-point specific algorithms are used

     R & G space division:  proc/nbgrp/npool/nimage =      12
     Subspace diagonalization in iterative solution of the eigenvalue problem:
     one sub-group per band group will be used
     custom distributed-memory algorithm (size of sub-group:  2*  2 procs)


     Parallelization info
     --------------------
     sticks:   dense  smooth     PW     G-vecs:    dense   smooth      PW
     Min         821     821    205                73378    73378    9174
     Max         824     824    206                73388    73388    9178
     Sum        9871    9871   2471               880587   880587  110101

     Using Slab Decomposition



     bravais-lattice index     =            0
     lattice parameter (alat)  =      15.7603  a.u.
     unit-cell volume          =    4958.3580 (a.u.)^3
     number of atoms/cell      =           23
     number of atomic types    =            5
     number of electrons       =       277.00
     number of Kohn-Sham states=          167
     kinetic-energy cutoff     =     120.0000  Ry
     charge density cutoff     =     480.0000  Ry
     scf convergence threshold =      1.0E-03
     mixing beta               =       0.7000
     number of iterations used =            8  TF        mixing
     energy convergence thresh.=      0.0E+00
     force convergence thresh. =      0.0E+00
     Exchange-correlation=  SLA  PW   PBX  PBC
                           (   1   4   3   4   0   0   0)
     nstep                     =           15


     celldm(1)=  15.760315  celldm(2)=   0.000000  celldm(3)=   0.000000
     celldm(4)=   0.000000  celldm(5)=   0.000000  celldm(6)=   0.000000

     crystal axes: (cart. coord. in units of alat)
               a(1) = (   1.000000   0.000000   0.000000 )  
               a(2) = (   0.000000   1.040767   0.000000 )  
               a(3) = (   0.000000   0.000000   1.216997 )  

     reciprocal axes: (cart. coord. in units 2 pi/alat)
               b(1) = (  1.000000  0.000000  0.000000 )  
               b(2) = (  0.000000  0.960830  0.000000 )  
               b(3) = (  0.000000  0.000000  0.821695 )  


     PseudoPot. # 1 for Hf read from file:
     q-e/pseudo/hf_pbe_v1.uspp.F.UPF
     MD5 check sum: 8ee9378dfe14276e333edf04c5e4aa26
     Pseudo is Ultrasoft + core correction, Zval = 12.0
     Generated by new atomic code, or converted to UPF format
     Using radial grid of  921 points,  8 beta functions with: 
                l(1) =   0
                l(2) =   0
                l(3) =   0
                l(4) =   1
                l(5) =   1
                l(6) =   2
                l(7) =   2
                l(8) =   3
     Q(r) pseudized with  6 coefficients,  rinner =    1.200   1.200   1.200
                                                       1.200   1.200   1.200
                                                       1.200

     PseudoPot. # 2 for Nb read from file:
     q-e/pseudo/nb_pbe_v1.uspp.F.UPF
     MD5 check sum: 573aab8a2fa660278ed4a62cd769473f
     Pseudo is Ultrasoft + core correction, Zval = 13.0
     Generated by new atomic code, or converted to UPF format
     Using radial grid of  887 points,  6 beta functions with: 
                l(1) =   0
                l(2) =   0
                l(3) =   1
                l(4) =   1
                l(5) =   2
                l(6) =   2
     Q(r) pseudized with  6 coefficients,  rinner =    1.000   1.000   1.000
                                                       1.000   1.000

     PseudoPot. # 3 for Ta read from file:
     q-e/pseudo/ta_pbe_v1.uspp.F.UPF
     MD5 check sum: f8bbe9446314a3b8ea5d9f3e3836c939
     Pseudo is Ultrasoft + core correction, Zval = 13.0
     Generated by new atomic code, or converted to UPF format
     Using radial grid of  921 points,  7 beta functions with: 
                l(1) =   0
                l(2) =   0
                l(3) =   1
                l(4) =   1
                l(5) =   2
                l(6) =   2
                l(7) =   3
     Q(r) pseudized with  6 coefficients,  rinner =    1.300   1.300   1.300
                                                       1.300   1.300   1.300
                                                       1.300

     PseudoPot. # 4 for Zr read from file:
     q-e/pseudo/zr_pbe_v1.uspp.F.UPF
     MD5 check sum: 5db81b1e868ab7776c4564c113de050b
     Pseudo is Ultrasoft + core correction, Zval = 12.0
     Generated by new atomic code, or converted to UPF format
     Using radial grid of  887 points,  6 beta functions with: 
                l(1) =   0
                l(2) =   0
                l(3) =   1
                l(4) =   1
                l(5) =   2
                l(6) =   2
     Q(r) pseudized with  6 coefficients,  rinner =    1.200   1.200   1.200
                                                       1.200   1.200

     PseudoPot. # 5 for H  read from file:
     q-e/pseudo/h_pbe_v1.4.uspp.F.UPF
     MD5 check sum: 761ae9a214b05c3daf00ab9f6b793d6f
     Pseudo is Ultrasoft, Zval =  1.0
     Generated by new atomic code, or converted to UPF format
     Using radial grid of  615 points,  2 beta functions with: 
                l(1) =   0
                l(2) =   0
     Q(r) pseudized with  8 coefficients,  rinner =    0.700

     atomic species   valence    mass     pseudopotential
        Hf            12.00   178.49000     Hf( 1.00)
        Nb            13.00    92.90637     Nb( 1.00)
        Ta            13.00   180.94788     Ta( 1.00)
        Zr            12.00    91.22400     Zr( 1.00)
        H              1.00     2.01400     H ( 1.00)

     Starting magnetic structure 
     atomic species   magnetization
        Hf           0.000
        Nb           0.000
        Ta           0.000
        Zr           0.000
        H            0.000

     No symmetry found



   Cartesian axes

     site n.     atom                  positions (alat units)
         1           Hf  tau(   1) = (   0.3201439   0.3389836   0.7918423  )
         2           Hf  tau(   2) = (   0.1502387   0.1542307   0.6065307  )
         3           Hf  tau(   3) = (   0.1505380   0.8860677   0.6100801  )
         4           Hf  tau(   4) = (   0.4900491   0.1542307   0.6065307  )
         5           Hf  tau(   5) = (   0.4897498   0.8860677   0.6100801  )
         6           Nb  tau(   6) = (   0.3201439   0.3353634   0.4215328  )
         7           Nb  tau(   7) = (   0.3201439   0.7046018   0.7955633  )
         8           Ta  tau(   8) = (   0.1450088   0.5204950   0.6080487  )
         9           Ta  tau(   9) = (   0.4952790   0.5204950   0.6080487  )
        10           Ta  tau(  10) = (   0.1567449   0.1575687   0.2468560  )
        11           Ta  tau(  11) = (   0.1562096   0.1568814   0.9705731  )
        12           Ta  tau(  12) = (   0.1563561   0.8843917   0.2453522  )
        13           Ta  tau(  13) = (   0.1567999   0.8831035   0.9695447  )
        14           Ta  tau(  14) = (   0.4835429   0.1575687   0.2468560  )
        15           Ta  tau(  15) = (   0.4840781   0.1568814   0.9705731  )
        16           Ta  tau(  16) = (   0.4839317   0.8843917   0.2453522  )
        17           Ta  tau(  17) = (   0.4834879   0.8831035   0.9695447  )
        18           Zr  tau(  18) = (   0.3201439   0.7033916   0.4229477  )
        19           Zr  tau(  19) = (   0.1491408   0.5182348   0.2398082  )
        20           Zr  tau(  20) = (   0.1487273   0.5220772   0.9771889  )
        21           Zr  tau(  21) = (   0.4911469   0.5182348   0.2398082  )
        22           Zr  tau(  22) = (   0.4915605   0.5220772   0.9771889  )
        23           H   tau(  23) = (   0.6751351   0.5203837   0.6081751  )

     number of k points=     1  Gaussian smearing, width (Ry)=  0.0220
                       cart. coord. in units 2pi/alat
        k(    1) = (   0.0000000   0.0000000   0.0000000), wk =   1.0000000

     Dense  grid:   440294 G-vectors     FFT dimensions: ( 120, 120, 135)

     Estimated max dynamical RAM per process >     369.12 MB

     Estimated total dynamical RAM >       4.33 GB

     Check: negative core charge=   -0.000002
     Generating pointlists ...
     new r_m :   0.1251 (alat units)  1.9717 (a.u.) for type    1
     new r_m :   0.1229 (alat units)  1.9374 (a.u.) for type    2
     new r_m :   0.0742 (alat units)  1.1693 (a.u.) for type    3
     new r_m :   0.1245 (alat units)  1.9625 (a.u.) for type    4
     new r_m :   0.0742 (alat units)  1.1693 (a.u.) for type    5

     Initial potential from superposition of free atoms

     starting charge     266.9726, renormalised to     277.0000

     negative rho (up, down):  9.206E-01 9.206E-01
     Starting wfcs are  287 randomized atomic wfcs

     total cpu time spent up to now is       29.1 secs

     Self-consistent Calculation

     iteration #  1     ecut=   120.00 Ry     beta= 0.70
     Davidson diagonalization with overlap
     ethr =  1.00E-02,  avg # of iterations =  3.0

     negative rho (up, down):  9.825E-01 9.822E-01

     total cpu time spent up to now is       81.4 secs

     total energy              =   -2932.09787611 Ry
     estimated scf accuracy    <     291.81665252 Ry

     total magnetization       =    -0.00 Bohr mag/cell
     absolute magnetization    =     0.08 Bohr mag/cell

     iteration #  2     ecut=   120.00 Ry     beta= 0.70
     Davidson diagonalization with overlap
     ethr =  1.00E-02,  avg # of iterations =  4.0

     negative rho (up, down):  9.369E-01 9.356E-01

     total cpu time spent up to now is      135.4 secs

     total energy              =   -2942.06874578 Ry
     estimated scf accuracy    <      36.66300283 Ry

     total magnetization       =     0.00 Bohr mag/cell
     absolute magnetization    =     0.14 Bohr mag/cell

     iteration #  3     ecut=   120.00 Ry     beta= 0.70
     Davidson diagonalization with overlap
     ethr =  1.00E-02,  avg # of iterations =  3.0

     negative rho (up, down):  9.663E-01 9.644E-01

     total cpu time spent up to now is      184.3 secs

     total energy              =   -2942.61255661 Ry
     estimated scf accuracy    <      15.37982620 Ry

     total magnetization       =    -0.02 Bohr mag/cell
     absolute magnetization    =     0.19 Bohr mag/cell

     iteration #  4     ecut=   120.00 Ry     beta= 0.70
     Davidson diagonalization with overlap
     ethr =  5.55E-03,  avg # of iterations =  3.0

     negative rho (up, down):  9.611E-01 9.597E-01

     total cpu time spent up to now is      231.8 secs

     total energy              =   -2942.85582914 Ry
     estimated scf accuracy    <       3.36190410 Ry

     total magnetization       =     0.03 Bohr mag/cell
     absolute magnetization    =     0.33 Bohr mag/cell

     iteration #  5     ecut=   120.00 Ry     beta= 0.70
     Davidson diagonalization with overlap
     ethr =  1.21E-03,  avg # of iterations =  6.5

     negative rho (up, down):  9.369E-01 9.359E-01

     total cpu time spent up to now is      286.9 secs

     total energy              =   -2943.00181240 Ry
     estimated scf accuracy    <       1.65203545 Ry

     total magnetization       =     0.03 Bohr mag/cell
     absolute magnetization    =     0.20 Bohr mag/cell

     iteration #  6     ecut=   120.00 Ry     beta= 0.70
     Davidson diagonalization with overlap
     ethr =  5.96E-04,  avg # of iterations =  2.0

     negative rho (up, down):  9.239E-01 9.234E-01

     total cpu time spent up to now is      332.5 secs

     total energy              =   -2943.00428502 Ry
     estimated scf accuracy    <       1.08129351 Ry

     total magnetization       =     0.01 Bohr mag/cell
     absolute magnetization    =     0.15 Bohr mag/cell

     iteration #  7     ecut=   120.00 Ry     beta= 0.70
     Davidson diagonalization with overlap
     ethr =  3.90E-04,  avg # of iterations =  2.0

     negative rho (up, down):  9.085E-01 9.084E-01

     total cpu time spent up to now is      379.1 secs

     total energy              =   -2942.98709709 Ry
     estimated scf accuracy    <       0.27992515 Ry

     total magnetization       =     0.02 Bohr mag/cell
     absolute magnetization    =     0.16 Bohr mag/cell

     iteration #  8     ecut=   120.00 Ry     beta= 0.70
     Davidson diagonalization with overlap
     ethr =  1.01E-04,  avg # of iterations = 13.5

     negative rho (up, down):  9.048E-01 9.048E-01

     total cpu time spent up to now is      434.3 secs

     total energy              =   -2942.98835689 Ry
     estimated scf accuracy    <       0.23542898 Ry

     total magnetization       =     0.02 Bohr mag/cell
     absolute magnetization    =     0.12 Bohr mag/cell

     iteration #  9     ecut=   120.00 Ry     beta= 0.70
     Davidson diagonalization with overlap
     ethr =  8.50E-05,  avg # of iterations =  2.0

     negative rho (up, down):  9.060E-01 9.060E-01

     total cpu time spent up to now is      480.5 secs

     total energy              =   -2942.99784426 Ry
     estimated scf accuracy    <       0.05698759 Ry

     total magnetization       =     0.01 Bohr mag/cell
     absolute magnetization    =     0.09 Bohr mag/cell

     iteration # 10     ecut=   120.00 Ry     beta= 0.70
     Davidson diagonalization with overlap
     ethr =  2.06E-05,  avg # of iterations =  8.5

     negative rho (up, down):  9.069E-01 9.069E-01

     total cpu time spent up to now is      531.6 secs

     total energy              =   -2943.00237879 Ry
     estimated scf accuracy    <       0.02867001 Ry

     total magnetization       =     0.00 Bohr mag/cell
     absolute magnetization    =     0.08 Bohr mag/cell

     iteration # 11     ecut=   120.00 Ry     beta= 0.70
     Davidson diagonalization with overlap
     ethr =  1.04E-05,  avg # of iterations =  4.0

     negative rho (up, down):  9.077E-01 9.077E-01

     total cpu time spent up to now is      578.7 secs

     total energy              =   -2943.00460001 Ry
     estimated scf accuracy    <       0.00513755 Ry

     total magnetization       =     0.00 Bohr mag/cell
     absolute magnetization    =     0.07 Bohr mag/cell

     iteration # 12     ecut=   120.00 Ry     beta= 0.70
     Davidson diagonalization with overlap
     ethr =  1.85E-06,  avg # of iterations = 12.0

     negative rho (up, down):  9.078E-01 9.078E-01

     Magnetic moment per site  (integrated on atomic sphere of radius R)
     atom   1 (R=0.125)  charge=  9.4607  magn= -0.0000
     atom   2 (R=0.125)  charge=  9.0586  magn=  0.0003
     atom   3 (R=0.125)  charge=  9.0582  magn=  0.0000
     atom   4 (R=0.125)  charge=  9.0565  magn=  0.0003
     atom   5 (R=0.125)  charge=  9.0561  magn= -0.0002
     atom   6 (R=0.123)  charge= 10.3453  magn= -0.0000
     atom   7 (R=0.123)  charge= 10.3469  magn= -0.0001
     atom   8 (R=0.074)  charge=  5.2336  magn=  0.0001
     atom   9 (R=0.074)  charge=  5.2523  magn=  0.0001
     atom  10 (R=0.074)  charge=  5.2165  magn=  0.0002
     atom  11 (R=0.074)  charge=  5.2160  magn=  0.0001
     atom  12 (R=0.074)  charge=  5.2167  magn= -0.0002
     atom  13 (R=0.074)  charge=  5.2164  magn= -0.0003
     atom  14 (R=0.074)  charge=  5.2164  magn=  0.0004
     atom  15 (R=0.074)  charge=  5.2162  magn=  0.0001
     atom  16 (R=0.074)  charge=  5.2177  magn= -0.0005
     atom  17 (R=0.074)  charge=  5.2156  magn= -0.0003
     atom  18 (R=0.125)  charge=  9.4559  magn= -0.0001
     atom  19 (R=0.125)  charge=  9.0006  magn=  0.0016
     atom  20 (R=0.125)  charge=  8.9992  magn= -0.0017
     atom  21 (R=0.125)  charge=  8.9970  magn=  0.0014
     atom  22 (R=0.125)  charge=  8.9971  magn= -0.0014
     atom  23 (R=0.074)  charge=  0.8828  magn=  0.0000

     total cpu time spent up to now is      646.0 secs

     End of self-consistent calculation

 ------ SPIN UP ------------


          k = 0.0000 0.0000 0.0000 ( 55051 PWs)   bands (ev):

   -59.4835 -59.4792 -59.4383 -59.4341 -59.4051 -59.4005 -59.3613 -59.3568
   -59.2289 -58.7539 -53.0943 -53.0370 -52.9704 -52.9136 -51.3633 -44.9047
   -44.9022 -40.3153 -40.3042 -40.2129 -40.2093 -38.4707 -26.4831 -26.4774
   -26.3989 -26.3897 -26.3024 -26.2977 -26.1788 -26.1696 -26.0539 -26.0250
   -25.9890 -25.9612 -25.9542 -25.9266 -25.9161 -25.8665 -25.8562 -25.8353
   -25.7983 -25.6685 -25.6644 -25.6535 -25.6450 -25.5915 -25.5874 -25.5689
   -25.5657 -25.5010 -25.4764 -25.4288 -22.8717 -22.6621 -22.3480 -22.2720
   -22.0102 -21.8682 -21.8452 -21.7436 -21.6277 -21.5586 -21.5419 -21.3266
   -21.1531 -21.1059 -21.0626 -21.0112 -20.9555 -20.8982 -20.4339 -20.3630
   -20.2984 -18.8783 -18.5973 -18.5243 -18.5043 -18.2909 -18.2830 -18.2623
   -18.2540 -18.2470 -18.2047 -18.0442 -18.0304 -16.8211 -16.6133 -16.4934
     2.7024   3.9277   4.2250   4.4616   4.6068   4.8257   4.8418   4.9452
     5.0337   5.2292   5.2491   5.4660   5.5984   5.8092   5.9085   5.9973
     6.0814   6.0985   6.3459   6.3476   6.4227   6.5675   6.6145   6.6407
     6.7071   6.8613   6.8944   7.0087   7.0474   7.0546   7.0759   7.1150
     7.2330   7.4581   7.4708   7.5630   7.5758   7.6167   7.6574   7.6941
     7.8737   7.9052   7.9327   8.0292   8.1794   8.2806   8.3166   8.3318
     8.4573   8.5184   8.6027   8.6178   8.6321   8.8290   8.8546   8.8570
     8.9144   8.9597   9.1873   9.2622   9.3627   9.3828   9.5708   9.6158
     9.6389   9.6444   9.6715   9.6872   9.7390   9.8871  10.0106  10.0887
    10.1450  10.2455  10.3742  10.4208  10.4283  10.5556  10.5777

 ------ SPIN DOWN ----------


          k = 0.0000 0.0000 0.0000 ( 55051 PWs)   bands (ev):

   -59.4835 -59.4798 -59.4383 -59.4347 -59.4057 -59.4005 -59.3619 -59.3568
   -59.2283 -58.7534 -53.0942 -53.0368 -52.9703 -52.9134 -51.3633 -44.9042
   -44.9020 -40.3143 -40.3057 -40.2146 -40.2082 -38.4706 -26.4833 -26.4776
   -26.3991 -26.3900 -26.3025 -26.2980 -26.1788 -26.1703 -26.0539 -26.0254
   -25.9891 -25.9612 -25.9549 -25.9271 -25.9169 -25.8666 -25.8568 -25.8351
   -25.7976 -25.6685 -25.6652 -25.6536 -25.6453 -25.5916 -25.5879 -25.5693
   -25.5660 -25.5005 -25.4759 -25.4281 -22.8714 -22.6617 -22.3480 -22.2719
   -22.0099 -21.8679 -21.8450 -21.7434 -21.6274 -21.5583 -21.5416 -21.3262
   -21.1529 -21.1057 -21.0625 -21.0110 -20.9551 -20.8979 -20.4340 -20.3630
   -20.2984 -18.8766 -18.6004 -18.5223 -18.5029 -18.2913 -18.2834 -18.2633
   -18.2551 -18.2478 -18.2064 -18.0423 -18.0328 -16.8212 -16.6129 -16.4931
     2.7028   3.9277   4.2249   4.4619   4.6081   4.8256   4.8416   4.9451
     5.0346   5.2293   5.2488   5.4661   5.5984   5.8096   5.9088   5.9973
     6.0817   6.0983   6.3459   6.3476   6.4226   6.5676   6.6138   6.6409
     6.7071   6.8612   6.8949   7.0085   7.0471   7.0548   7.0757   7.1158
     7.2324   7.4580   7.4709   7.5626   7.5761   7.6169   7.6575   7.6945
     7.8736   7.9047   7.9324   8.0288   8.1795   8.2815   8.3168   8.3303
     8.4575   8.5186   8.6021   8.6177   8.6320   8.8293   8.8542   8.8568
     8.9137   8.9596   9.1875   9.2628   9.3626   9.3824   9.5708   9.6156
     9.6387   9.6447   9.6713   9.6876   9.7395   9.8871  10.0101  10.0885
    10.1449  10.2450  10.3732  10.4206  10.4276  10.5558  10.5775

     the Fermi energy is     8.5676 ev

!    total energy              =   -2943.00591118 Ry
     estimated scf accuracy    <       0.00075727 Ry
     smearing contrib. (-TS)   =      -0.10128077 Ry
     internal energy E=F+TS    =   -2942.90463041 Ry

     total magnetization       =    -0.00 Bohr mag/cell
     absolute magnetization    =     0.05 Bohr mag/cell

     convergence has been achieved in  12 iterations

     negative rho (up, down):  9.078E-01 9.078E-01

     Forces acting on atoms (cartesian axes, Ry/au):

     atom    1 type  1   force =    -0.00995053   -0.02772771    0.01245311
     atom    2 type  1   force =    -0.12221735   -0.01735409   -0.00125435
     atom    3 type  1   force =    -0.12040823    0.01387524    0.00187895
     atom    4 type  1   force =     0.12307570   -0.01857750   -0.00274443
     atom    5 type  1   force =     0.12142901    0.01557916    0.00278265
     atom    6 type  2   force =    -0.00914113   -0.01722345    0.00423305
     atom    7 type  2   force =    -0.00921555    0.01536975   -0.00285352
     atom    8 type  3   force =    -0.13943856    0.00405641   -0.00409819
     atom    9 type  3   force =    -0.09496072    0.00330600   -0.00497508
     atom   10 type  3   force =    -0.02482911   -0.03034666   -0.05850174
     atom   11 type  3   force =    -0.02310057   -0.03636282    0.05595841
     atom   12 type  3   force =    -0.01901730    0.03514314   -0.05485305
     atom   13 type  3   force =    -0.02060764    0.02970272    0.05922167
     atom   14 type  3   force =     0.02664497   -0.03080185   -0.05665088
     atom   15 type  3   force =     0.02428627   -0.03365624    0.05270489
     atom   16 type  3   force =     0.02028440    0.03386744   -0.05130476
     atom   17 type  3   force =     0.02181169    0.02950423    0.05719784
     atom   18 type  4   force =    -0.01046415    0.02672334   -0.01527948
     atom   19 type  4   force =    -0.13618181   -0.00300895   -0.11377452
     atom   20 type  4   force =    -0.13914613    0.00590371    0.11678627
     atom   21 type  4   force =     0.13681088   -0.00424395   -0.11854024
     atom   22 type  4   force =     0.13975388    0.00650100    0.12071221
     atom   23 type  5   force =     0.26458199   -0.00022893    0.00090119
     The non-local contrib.  to forces
     atom    1 type  1   force =    -0.00675449   -0.01886951    0.03411562
     atom    2 type  1   force =    -0.24409374   -0.16487278    0.01850715
     atom    3 type  1   force =    -0.23841924    0.15930001   -0.02827194
     atom    4 type  1   force =     0.25825736   -0.16087197    0.01684928
     atom    5 type  1   force =     0.25284602    0.15551885   -0.02766157
     atom    6 type  2   force =    -0.00888286   -0.06007829   -0.07087519
     atom    7 type  2   force =    -0.01015348    0.07133083    0.06359089
     atom    8 type  3   force =    -0.26933141    0.00049679   -0.00505183
     atom    9 type  3   force =    -0.06100994    0.00127706   -0.00673915
     atom   10 type  3   force =    -0.21831640    0.00679081   -0.21141258
     atom   11 type  3   force =    -0.22265043    0.00785719    0.20098630
     atom   12 type  3   force =    -0.20421070   -0.02125848   -0.18523873
     atom   13 type  3   force =    -0.21417872   -0.00669681    0.21061924
     atom   14 type  3   force =     0.21997153    0.00358895   -0.21299995
     atom   15 type  3   force =     0.22447193    0.00884056    0.20163100
     atom   16 type  3   force =     0.20529947   -0.02032296   -0.18586430
     atom   17 type  3   force =     0.21457126   -0.00442246    0.21232418
     atom   18 type  4   force =    -0.01079249    0.06662407   -0.06878629
     atom   19 type  4   force =     0.06952316    0.00823401    0.06518363
     atom   20 type  4   force =     0.06452744   -0.00966863   -0.05926281
     atom   21 type  4   force =    -0.06653092    0.00769741    0.06774733
     atom   22 type  4   force =    -0.06204638   -0.00949116   -0.06212926
     atom   23 type  5   force =    -0.10039927    0.00003843    0.00007306
     The ionic contribution  to forces
     atom    1 type  1   force =    -0.24768728   -4.75281381   14.44854351
     atom    2 type  1   force =   -34.49625394   -6.24608621    0.77897172
     atom    3 type  1   force =   -34.47877231    6.23232259   -0.71247644
     atom    4 type  1   force =    34.30682273   -6.48352303    0.77770459
     atom    5 type  1   force =    34.28833849    6.47031599   -0.71100486
     atom    6 type  2   force =    -0.26169896   -3.72140580  -14.38243299
     atom    7 type  2   force =    -0.26172725    3.75740632   14.41618489
     atom    8 type  3   force =   -46.17661811    0.07250906   -0.06585871
     atom    9 type  3   force =    43.13987372    0.07433966   -0.06794179
     atom   10 type  3   force =   -31.09913046   -2.14726556  -23.64568899
     atom   11 type  3   force =   -30.16771256   -0.89464002   22.64765206
     atom   12 type  3   force =   -30.28327514    0.84284555  -22.69590239
     atom   13 type  3   force =   -31.07556260    2.23383566   23.62832406
     atom   14 type  3   force =    31.02319869   -2.20609484  -23.71967923
     atom   15 type  3   force =    30.09267973   -0.95295237   22.72122415
     atom   16 type  3   force =    30.20842294    0.90077631  -22.76910157
     atom   17 type  3   force =    30.99958542    2.29266377   23.70231771
     atom   18 type  4   force =    -0.24473043    4.51989144  -14.30817241
     atom   19 type  4   force =   -31.10349444    0.96129748  -26.14177245
     atom   20 type  4   force =   -31.07500870   -0.95698037   26.12018806
     atom   21 type  4   force =    30.92883452    0.95976936  -26.39908372
     atom   22 type  4   force =    30.90171665   -0.95578085   26.37685893
     atom   23 type  5   force =     5.08219928   -0.00043034    0.00114588
     The local contribution  to forces
     atom    1 type  1   force =     0.23865289    4.74152632  -14.47769677
     atom    2 type  1   force =    34.62590484    6.39124841   -0.79851957
     atom    3 type  1   force =    34.60595647   -6.37907793    0.74147965
     atom    4 type  1   force =   -34.45101056    6.61824977   -0.79761715
     atom    5 type  1   force =   -34.43039282   -6.60599229    0.73959410
     atom    6 type  2   force =     0.25390939    3.77002014   14.47040409
     atom    7 type  2   force =     0.25463231   -3.81667976  -14.49495341
     atom    8 type  3   force =    46.31974315   -0.06568849    0.06251975
     atom    9 type  3   force =   -43.16813072   -0.06929175    0.06586642
     atom   10 type  3   force =    31.30656781    2.09478393   23.81738048
     atom   11 type  3   force =    30.38820426    0.83651040  -22.81563055
     atom   12 type  3   force =    30.48882940   -0.77762442   22.84294335
     atom   13 type  3   force =    31.28543567   -2.18654461  -23.79612054
     atom   14 type  3   force =   -31.23071867    2.15175060   23.89236242
     atom   15 type  3   force =   -30.31486213    0.89627812  -22.89080122
     atom   16 type  3   force =   -30.41437443   -0.83214468   22.91814361
     atom   17 type  3   force =   -31.21156496   -2.24515194  -23.87149137
     atom   18 type  4   force =     0.23772880   -4.56005423   14.36779825
     atom   19 type  4   force =    30.90062314   -0.96696516   25.97428942
     atom   20 type  4   force =    30.87620092    0.97437556  -25.95154341
     atom   21 type  4   force =   -30.73078843   -0.96704611   26.21848085
     atom   22 type  4   force =   -30.70626482    0.97160030  -26.19670049
     atom   23 type  5   force =    -4.71589711    0.00023911   -0.00059814
     The core correction contribution to forces
     atom    1 type  1   force =     0.00101029    0.00303701   -0.00146912
     atom    2 type  1   force =    -0.01187389   -0.00152842    0.00089119
     atom    3 type  1   force =    -0.01209845    0.00233886   -0.00160463
     atom    4 type  1   force =     0.01232485   -0.00168998    0.00095563
     atom    5 type  1   force =     0.01241218    0.00249890   -0.00180161
     atom    6 type  2   force =     0.00026020    0.00266504    0.00271152
     atom    7 type  2   force =     0.00031719   -0.00324334   -0.00218326
     atom    8 type  3   force =    -0.03115632    0.00037196   -0.00058791
     atom    9 type  3   force =     0.00142157    0.00006569   -0.00046752
     atom   10 type  3   force =    -0.02220206    0.00881925   -0.01636184
     atom   11 type  3   force =    -0.02401070    0.00919111    0.01719980
     atom   12 type  3   force =    -0.02224162   -0.00912840   -0.01594391
     atom   13 type  3   force =    -0.02213579   -0.00835704    0.01690049
     atom   14 type  3   force =     0.02338999    0.00983193   -0.01468303
     atom   15 type  3   force =     0.02474635    0.01089477    0.01535657
     atom   16 type  3   force =     0.02291985   -0.01083256   -0.01398269
     atom   17 type  3   force =     0.02308354   -0.00951815    0.01513591
     atom   18 type  4   force =     0.00043112   -0.00358230    0.00332020
     atom   19 type  4   force =    -0.01027463    0.00016727   -0.00903091
     atom   20 type  4   force =    -0.01010328    0.00013478    0.00889187
     atom   21 type  4   force =     0.01034405    0.00019248   -0.00915716
     atom   22 type  4   force =     0.01019213    0.00011228    0.00901458
     atom   23 type  5   force =     0.00000000    0.00000000    0.00000000
     The Hubbard contrib.    to forces
     atom    1 type  1   force =     0.00000000    0.00000000    0.00000000
     atom    2 type  1   force =     0.00000000    0.00000000    0.00000000
     atom    3 type  1   force =     0.00000000    0.00000000    0.00000000
     atom    4 type  1   force =     0.00000000    0.00000000    0.00000000
     atom    5 type  1   force =     0.00000000    0.00000000    0.00000000
     atom    6 type  2   force =     0.00000000    0.00000000    0.00000000
     atom    7 type  2   force =     0.00000000    0.00000000    0.00000000
     atom    8 type  3   force =     0.00000000    0.00000000    0.00000000
     atom    9 type  3   force =     0.00000000    0.00000000    0.00000000
     atom   10 type  3   force =     0.00000000    0.00000000    0.00000000
     atom   11 type  3   force =     0.00000000    0.00000000    0.00000000
     atom   12 type  3   force =     0.00000000    0.00000000    0.00000000
     atom   13 type  3   force =     0.00000000    0.00000000    0.00000000
     atom   14 type  3   force =     0.00000000    0.00000000    0.00000000
     atom   15 type  3   force =     0.00000000    0.00000000    0.00000000
     atom   16 type  3   force =     0.00000000    0.00000000    0.00000000
     atom   17 type  3   force =     0.00000000    0.00000000    0.00000000
     atom   18 type  4   force =     0.00000000    0.00000000    0.00000000
     atom   19 type  4   force =     0.00000000    0.00000000    0.00000000
     atom   20 type  4   force =     0.00000000    0.00000000    0.00000000
     atom   21 type  4   force =     0.00000000    0.00000000    0.00000000
     atom   22 type  4   force =     0.00000000    0.00000000    0.00000000
     atom   23 type  5   force =     0.00000000    0.00000000    0.00000000
     The SCF correction term to forces
     atom    1 type  1   force =     0.00000000   -0.00000000    0.00000000
     atom    2 type  1   force =     0.00000000    0.00000000   -0.00000000
     atom    3 type  1   force =     0.00000000   -0.00000000    0.00000000
     atom    4 type  1   force =    -0.00000000    0.00000000   -0.00000000
     atom    5 type  1   force =    -0.00000000   -0.00000000    0.00000000
     atom    6 type  2   force =     0.00000000   -0.00000000   -0.00000000
     atom    7 type  2   force =     0.00000000    0.00000000    0.00000000
     atom    8 type  3   force =     0.00000000   -0.00000000    0.00000000
     atom    9 type  3   force =    -0.00000000   -0.00000000    0.00000000
     atom   10 type  3   force =     0.00000000    0.00000000   -0.00000000
     atom   11 type  3   force =     0.00000000    0.00000000    0.00000000
     atom   12 type  3   force =     0.00000000    0.00000000   -0.00000000
     atom   13 type  3   force =     0.00000000   -0.00000000   -0.00000000
     atom   14 type  3   force =    -0.00945294    0.01005650   -0.00171516
     atom   15 type  3   force =    -0.00300598    0.00321766    0.00523031
     atom   16 type  3   force =    -0.00223979   -0.00367369   -0.00056388
     atom   17 type  3   force =    -0.00411993   -0.00413201   -0.00115267
     atom   18 type  4   force =     0.00664249    0.00377935   -0.00950330
     atom   19 type  4   force =     0.00718460   -0.00580757   -0.00250828
     atom   20 type  4   force =     0.00498113   -0.00202264   -0.00155151
     atom   21 type  4   force =    -0.00530471   -0.00492211    0.00340837
     atom   22 type  4   force =    -0.00410008   -0.00000459   -0.00639562
     atom   23 type  5   force =    -0.00157727   -0.00014115    0.00021631

     Total force =     0.469793     Total SCF correction =     0.026274

     Molecular Dynamics Calculation

     Starting temperature  =   300.00 K

     temperature is set once at start

     mass Hf               =   178.49
     mass Nb               =    92.91
     mass Ta               =   180.95
     mass Zr               =    91.22
     mass H                =     2.01
     Time step             =     4.20 a.u.,  0.2032 femto-seconds

     Entering Dynamics:    iteration =     1
                           time      =   0.0002 pico-seconds


ATOMIC_POSITIONS (angstrom)
Hf            2.6699999570        2.8271230292        6.6039642186    0   0   0
Hf            1.2529906802        1.2862841814        5.0584662261    0   0   0
Hf            1.2554868986        7.3898042948        5.0880677674    0   0   0
Hf            4.0870092338        1.2862841814        5.0584662261    0   0   0
Hf            4.0845130154        7.3898042948        5.0880677674    0   0   0
Nb            2.6699999570        2.7969306055        3.5155832167    0   0   0
Nb            2.6699999570        5.8763786763        6.6349979432    0   0   0
Ta            1.2093730560        4.3409278516        5.0711258323    0   0   0
Ta            4.1306268580        4.3409278516        5.0711258323    0   0   0
Ta            1.3072526841        1.3141225894        2.0587791101    0   0   0
Ta            1.3027883142        1.3083911360        8.0945792024    0   0   0
Ta            1.3040096221        7.3758261241        2.0462371798    0   0   0
Ta            1.3077107984        7.3650829484        8.0860022208    0   0   0
Ta            4.0327479840        1.3141217177        2.0587775069
Ta            4.0372122871        1.3083901835        8.0945806939
Ta            4.0359908659        7.3758270825        2.0462357279
Ta            4.0322897329        7.3650837834        8.0860038395
Zr            2.6699993696        5.8662873435        3.5273830727
Zr            1.2438269745        4.3220777956        1.9999936133
Zr            1.2403776018        4.3541236159        8.1497621050
Zr            4.0961729748        4.3220777263        1.9999933458
Zr            4.0996223463        4.3541236494        8.1497623254
H             5.3168317964        4.3399993681        5.0721820862


     kinetic energy (Ekin) =          18.37431130 Ry
     temperature           =      193404.95351811 K 
     Ekin + Etot (const)   =       -2924.63159988 Ry

     File outdir/pwscf.msd.dat deleted, as requested

     Writing config-only to output data dir outdir/pwscf.save/
     NEW-OLD atomic charge density approx. for the potential

     Check: negative core charge=   -0.000002

     negative rho (up, down):  9.074E-01 9.074E-01
     Generating pointlists ...
     new r_m :   0.0587 (alat units)  0.9247 (a.u.) for type    3
     new r_m :   0.0587 (alat units)  0.9247 (a.u.) for type    5

     total cpu time spent up to now is      671.1 secs

     Self-consistent Calculation

     iteration #  1     ecut=   120.00 Ry     beta= 0.70
     Davidson diagonalization with overlap
     c_bands:  1 eigenvalues not converged
     ethr =  1.00E-06,  avg # of iterations = 17.5

     negative rho (up, down):  9.077E-01 9.077E-01

     total cpu time spent up to now is      761.4 secs

     total energy              =   -2942.64488982 Ry
     estimated scf accuracy    <       0.13884639 Ry

     total magnetization       =    -0.00 Bohr mag/cell
     absolute magnetization    =     0.04 Bohr mag/cell

     iteration #  2     ecut=   120.00 Ry     beta= 0.70
     Davidson diagonalization with overlap
     ethr =  5.01E-05,  avg # of iterations =  3.0

     negative rho (up, down):  9.074E-01 9.074E-01

     total cpu time spent up to now is      810.4 secs

     total energy              =   -2942.66616587 Ry
     estimated scf accuracy    <       0.03550113 Ry

     total magnetization       =    -0.00 Bohr mag/cell
     absolute magnetization    =     0.04 Bohr mag/cell

     iteration #  3     ecut=   120.00 Ry     beta= 0.70
     Davidson diagonalization with overlap
     ethr =  1.28E-05,  avg # of iterations =  2.0

     negative rho (up, down):  9.071E-01 9.071E-01

     total cpu time spent up to now is      847.3 secs

     total energy              =   -2942.66754859 Ry
     estimated scf accuracy    <       0.00463429 Ry

     total magnetization       =    -0.00 Bohr mag/cell
     absolute magnetization    =     0.04 Bohr mag/cell

     iteration #  4     ecut=   120.00 Ry     beta= 0.70
     Davidson diagonalization with overlap
     ethr =  1.67E-06,  avg # of iterations = 13.0

     negative rho (up, down):  9.070E-01 9.070E-01

     total cpu time spent up to now is      890.0 secs

     total energy              =   -2942.66788856 Ry
     estimated scf accuracy    <       0.00115774 Ry

     total magnetization       =    -0.00 Bohr mag/cell
     absolute magnetization    =     0.03 Bohr mag/cell

     iteration #  5     ecut=   120.00 Ry     beta= 0.70
     Davidson diagonalization with overlap
     ethr =  4.18E-07,  avg # of iterations =  2.0

     negative rho (up, down):  9.070E-01 9.070E-01

     Magnetic moment per site  (integrated on atomic sphere of radius R)
     atom   1 (R=0.125)  charge=  9.4624  magn=  0.0000
     atom   2 (R=0.125)  charge=  9.0572  magn=  0.0001
     atom   3 (R=0.125)  charge=  9.0576  magn=  0.0000
     atom   4 (R=0.125)  charge=  9.0538  magn=  0.0001
     atom   5 (R=0.125)  charge=  9.0546  magn= -0.0001
     atom   6 (R=0.123)  charge= 10.3513  magn= -0.0001
     atom   7 (R=0.123)  charge= 10.3513  magn=  0.0000
     atom   8 (R=0.059)  charge=  2.7103  magn=  0.0000
     atom   9 (R=0.059)  charge=  2.7349  magn= -0.0000
     atom  10 (R=0.059)  charge=  2.7034  magn=  0.0001
     atom  11 (R=0.059)  charge=  2.7022  magn=  0.0000
     atom  12 (R=0.059)  charge=  2.7021  magn= -0.0000
     atom  13 (R=0.059)  charge=  2.7039  magn= -0.0001
     atom  14 (R=0.059)  charge=  2.7041  magn=  0.0001
     atom  15 (R=0.059)  charge=  2.7027  magn=  0.0000
     atom  16 (R=0.059)  charge=  2.7013  magn= -0.0001
     atom  17 (R=0.059)  charge=  2.7046  magn= -0.0001
     atom  18 (R=0.125)  charge=  9.4548  magn= -0.0000
     atom  19 (R=0.125)  charge=  8.9998  magn=  0.0011
     atom  20 (R=0.125)  charge=  8.9995  magn= -0.0011
     atom  21 (R=0.125)  charge=  8.9965  magn=  0.0011
     atom  22 (R=0.125)  charge=  8.9956  magn= -0.0009
     atom  23 (R=0.059)  charge=  0.8175  magn=  0.0000

     total cpu time spent up to now is      928.4 secs

     End of self-consistent calculation

 ------ SPIN UP ------------


          k = 0.0000 0.0000 0.0000 ( 55051 PWs)   bands (ev):

   -59.4969 -59.4940 -59.4511 -59.4484 -59.4163 -59.4134 -59.3722 -59.3693
   -59.2480 -58.7024 -53.0929 -53.0427 -52.9688 -52.9190 -51.3984 -44.9438
   -44.9303 -40.3249 -40.3098 -40.2212 -40.2194 -38.4979 -26.5120 -26.4919
   -26.4098 -26.4072 -26.3904 -26.3110 -26.2877 -26.1926 -26.1775 -26.0417
   -26.0360 -25.9757 -25.9733 -25.9425 -25.9298 -25.8980 -25.8780 -25.8695
   -25.8471 -25.8123 -25.6808 -25.6780 -25.6691 -25.6541 -25.6070 -25.5961
   -25.5820 -25.5761 -25.3522 -25.2739 -22.8772 -22.6651 -22.3610 -22.2776
   -22.0184 -21.8779 -21.8539 -21.7545 -21.6351 -21.5632 -21.5460 -21.3296
   -21.1910 -21.1352 -21.0847 -21.0342 -20.9751 -20.9189 -20.4607 -20.3892
   -20.3338 -18.8877 -18.6049 -18.5332 -18.5154 -18.3017 -18.2920 -18.2746
   -18.2672 -18.2552 -18.2152 -18.0512 -18.0363 -16.8520 -16.6357 -16.5157
     2.6016   3.5231   4.2111   4.4485   4.5942   4.8071   4.8215   4.9072
     5.0073   5.2092   5.2330   5.4788   5.5831   5.7832   5.9012   5.9808
     6.0552   6.1185   6.3277   6.3327   6.4136   6.5545   6.6030   6.6244
     6.7033   6.8438   6.8655   6.9927   7.0407   7.0527   7.0580   7.1195
     7.2201   7.4473   7.4579   7.5509   7.5651   7.6275   7.6522   7.6778
     7.8747   7.9166   7.9738   8.0172   8.1726   8.2681   8.3105   8.3230
     8.4377   8.5106   8.5925   8.6063   8.6139   8.8180   8.8426   8.8651
     8.9022   8.9423   9.1780   9.2282   9.3469   9.3755   9.5607   9.5802
     9.6273   9.6316   9.6498   9.6612   9.7301   9.8815  10.0050  10.1042
    10.1208  10.2474  10.3086  10.4074  10.4139  10.5508  10.5760

 ------ SPIN DOWN ----------


          k = 0.0000 0.0000 0.0000 ( 55051 PWs)   bands (ev):

   -59.4972 -59.4937 -59.4514 -59.4481 -59.4163 -59.4136 -59.3723 -59.3695
   -59.2479 -58.7024 -53.0929 -53.0427 -52.9687 -52.9190 -51.3983 -44.9439
   -44.9303 -40.3239 -40.3108 -40.2221 -40.2185 -38.4979 -26.5121 -26.4919
   -26.4098 -26.4074 -26.3904 -26.3111 -26.2877 -26.1926 -26.1779 -26.0419
   -26.0359 -25.9758 -25.9733 -25.9426 -25.9301 -25.8979 -25.8781 -25.8697
   -25.8472 -25.8122 -25.6812 -25.6778 -25.6692 -25.6541 -25.6071 -25.5963
   -25.5821 -25.5762 -25.3522 -25.2740 -22.8771 -22.6650 -22.3610 -22.2776
   -22.0183 -21.8779 -21.8539 -21.7545 -21.6351 -21.5632 -21.5460 -21.3296
   -21.1910 -21.1352 -21.0847 -21.0343 -20.9751 -20.9189 -20.4607 -20.3892
   -20.3338 -18.8865 -18.6067 -18.5319 -18.5141 -18.3015 -18.2923 -18.2748
   -18.2674 -18.2559 -18.2162 -18.0497 -18.0378 -16.8521 -16.6356 -16.5155
     2.6016   3.5231   4.2111   4.4485   4.5942   4.8070   4.8214   4.9071
     5.0075   5.2092   5.2330   5.4787   5.5831   5.7831   5.9011   5.9807
     6.0552   6.1184   6.3276   6.3327   6.4137   6.5546   6.6028   6.6244
     6.7033   6.8438   6.8655   6.9925   7.0408   7.0527   7.0579   7.1195
     7.2200   7.4472   7.4578   7.5509   7.5651   7.6274   7.6522   7.6778
     7.8746   7.9165   7.9738   8.0171   8.1726   8.2685   8.3104   8.3225
     8.4377   8.5104   8.5922   8.6060   8.6138   8.8181   8.8425   8.8646
     8.9020   8.9425   9.1780   9.2282   9.3468   9.3754   9.5606   9.5801
     9.6271   9.6315   9.6499   9.6611   9.7301   9.8814  10.0049  10.1042
    10.1207  10.2473  10.3085  10.4074  10.4136  10.5509  10.5750

     the Fermi energy is     8.5565 ev

!    total energy              =   -2942.66775683 Ry
     estimated scf accuracy    <       0.00040260 Ry
     smearing contrib. (-TS)   =      -0.10128573 Ry
     internal energy E=F+TS    =   -2942.56647110 Ry

     total magnetization       =    -0.00 Bohr mag/cell
     absolute magnetization    =     0.03 Bohr mag/cell

     convergence has been achieved in   5 iterations

     negative rho (up, down):  9.070E-01 9.070E-01

     Forces acting on atoms (cartesian axes, Ry/au):

     atom    1 type  1   force =    -0.00391964   -0.02787975    0.01619770
     atom    2 type  1   force =    -0.12104659   -0.01647351    0.00045214
     atom    3 type  1   force =    -0.11971173    0.01444697    0.00538792
     atom    4 type  1   force =     0.12148530   -0.01396837   -0.00070129
     atom    5 type  1   force =     0.12034149    0.01219377    0.00671713
     atom    6 type  2   force =    -0.00561079   -0.01853852    0.00128746
     atom    7 type  2   force =    -0.00580927    0.01659164   -0.00123184
     atom    8 type  3   force =    -0.14008792    0.00333878   -0.00306479
     atom    9 type  3   force =    -0.86242152    0.00326496   -0.00514929
     atom   10 type  3   force =    -0.02547043   -0.02893854   -0.06078373
     atom   11 type  3   force =    -0.02339026   -0.03578729    0.05655308
     atom   12 type  3   force =    -0.02064759    0.03522566   -0.05679973
     atom   13 type  3   force =    -0.02028034    0.02962917    0.05849517
     atom   14 type  3   force =     0.02593352   -0.02764887   -0.05899521
     atom   15 type  3   force =     0.02371888   -0.03295053    0.05353315
     atom   16 type  3   force =     0.02108770    0.03255198   -0.05364754
     atom   17 type  3   force =     0.02060233    0.02829369    0.05675487
     atom   18 type  4   force =    -0.00501418    0.02693700   -0.01694422
     atom   19 type  4   force =    -0.13640501   -0.00479447   -0.11531217
     atom   20 type  4   force =    -0.14039389    0.00512002    0.11590493
     atom   21 type  4   force =     0.13525549   -0.00582160   -0.11695731
     atom   22 type  4   force =     0.13930031    0.00614919    0.11700672
     atom   23 type  5   force =     1.02248413   -0.00094139    0.00129687
     The non-local contrib.  to forces
     atom    1 type  1   force =    -0.00224077   -0.01384897    0.03177741
     atom    2 type  1   force =    -0.24601447   -0.16184729    0.01951692
     atom    3 type  1   force =    -0.24091565    0.15721188   -0.02668129
     atom    4 type  1   force =     0.25582106   -0.15696483    0.01825759
     atom    5 type  1   force =     0.25118551    0.15246404   -0.02599784
     atom    6 type  2   force =    -0.01086513   -0.06106172   -0.07158963
     atom    7 type  2   force =    -0.01191691    0.07301140    0.06508982
     atom    8 type  3   force =    -0.23228261   -0.00041260   -0.00322023
     atom    9 type  3   force =     0.30569629    0.00040302   -0.00484589
     atom   10 type  3   force =    -0.21714171    0.00730091   -0.21547700
     atom   11 type  3   force =    -0.22194331    0.00864852    0.20423027
     atom   12 type  3   force =    -0.20482130   -0.02195376   -0.18876356
     atom   13 type  3   force =    -0.21132748   -0.00686938    0.21351042
     atom   14 type  3   force =     0.21855347    0.00582101   -0.21624808
     atom   15 type  3   force =     0.22447695    0.00956987    0.20431136
     atom   16 type  3   force =     0.20717109   -0.02200757   -0.18913934
     atom   17 type  3   force =     0.21178386   -0.00575429    0.21468942
     atom   18 type  4   force =    -0.00989692    0.06791963   -0.07074132
     atom   19 type  4   force =     0.07146661    0.00703005    0.06580261
     atom   20 type  4   force =     0.06589720   -0.01049198   -0.06079052
     atom   21 type  4   force =    -0.06880264    0.00674225    0.06792322
     atom   22 type  4   force =    -0.06414689   -0.00971371   -0.06297025
     atom   23 type  5   force =    -0.17884027    0.00006655    0.00010236
     The ionic contribution  to forces
     atom    1 type  1   force =    -0.31294191   -4.79364935   14.49092622
     atom    2 type  1   force =   -34.53554670   -6.24502714    0.77897933
     atom    3 type  1   force =   -34.51814864    6.23131461   -0.71247417
     atom    4 type  1   force =    34.32304366   -6.53777136    0.77742982
     atom    5 type  1   force =    34.30444605    6.52483656   -0.71067982
     atom    6 type  2   force =    -0.32993459   -3.76482838  -14.42738169
     atom    7 type  2   force =    -0.32997793    3.80065961   14.46131890
     atom    8 type  3   force =   -46.31099916    0.07250707   -0.06585855
     atom    9 type  3   force =    41.18027651    0.07639272   -0.07028279
     atom   10 type  3   force =   -31.11806675   -2.14727091  -23.64566096
     atom   11 type  3   force =   -30.18653625   -0.89461602   22.64758622
     atom   12 type  3   force =   -30.30205655    0.84284211  -22.69585986
     atom   13 type  3   force =   -31.09450098    2.23384924   23.62829830
     atom   14 type  3   force =    31.03159097   -2.21705190  -23.73304630
     atom   15 type  3   force =    30.10110123   -0.96376305   22.73445321
     atom   16 type  3   force =    30.21681520    0.91152550  -22.78227505
     atom   17 type  3   force =    31.00796946    2.30363063   23.71569080
     atom   18 type  4   force =    -0.30889048    4.56030791  -14.35013744
     atom   19 type  4   force =   -31.13931119    0.96129526  -26.14018497
     atom   20 type  4   force =   -31.11070094   -0.95698529   26.11852542
     atom   21 type  4   force =    30.94382473    0.95943102  -26.45546345
     atom   22 type  4   force =    30.91684376   -0.95551793   26.43288348
     atom   23 type  5   force =     7.57170051   -0.00211088    0.00321335
     The local contribution  to forces
     atom    1 type  1   force =     0.31447243    4.77746632  -14.50195775
     atom    2 type  1   force =    34.67359894    6.38969075   -0.79107997
     atom    3 type  1   force =    34.65260743   -6.37330443    0.75555931
     atom    4 type  1   force =   -34.47212379    6.68743193   -0.78937376
     atom    5 type  1   force =   -34.45004430   -6.67164562    0.75484028
     atom    6 type  2   force =     0.34025651    3.81046518   14.50879141
     atom    7 type  2   force =     0.34080904   -3.85661691  -14.52250775
     atom    8 type  3   force =    46.44833670   -0.07005938    0.07528628
     atom    9 type  3   force =   -42.39582593   -0.07458598    0.07874453
     atom   10 type  3   force =    31.32679633    2.10337522   23.81094067
     atom   11 type  3   force =    30.40736450    0.83566684  -22.80892304
     atom   12 type  3   force =    30.50201830   -0.77370914   22.83802644
     atom   13 type  3   force =    31.30540560   -2.18242187  -23.79795308
     atom   14 type  3   force =   -31.24436966    2.17641335   23.89944861
     atom   15 type  3   force =   -30.32610669    0.90522509  -22.89715693
     atom   16 type  3   force =   -30.42110675   -0.84506434   22.92602231
     atom   17 type  3   force =   -31.22074193   -2.25393216  -23.88656539
     atom   18 type  4   force =     0.31840329   -4.60546852   14.41286891
     atom   19 type  4   force =    30.93838997   -0.97617596   25.96230478
     atom   20 type  4   force =    30.91194348    0.97168121  -25.94758584
     atom   21 type  4   force =   -30.74830367   -0.97493064   26.28134279
     atom   22 type  4   force =   -30.72282024    0.97069558  -26.26580867
     atom   23 type  5   force =    -6.37581612    0.00101096   -0.00084898
     The core correction contribution to forces
     atom    1 type  1   force =     0.00127786    0.00380175   -0.00210336
     atom    2 type  1   force =    -0.01201270   -0.00123149    0.00087000
     atom    3 type  1   force =    -0.01225614    0.00209354   -0.00158376
     atom    4 type  1   force =     0.01227573   -0.00131449    0.00095611
     atom    5 type  1   force =     0.01242940    0.00218257   -0.00177675
     atom    6 type  2   force =     0.00048206    0.00276602    0.00282801
     atom    7 type  2   force =     0.00052460   -0.00340951   -0.00232767
     atom    8 type  3   force =    -0.02897976    0.00040116   -0.00067435
     atom    9 type  3   force =     0.01664078   -0.00000102   -0.00049076
     atom   10 type  3   force =    -0.02191982    0.00890941   -0.01652711
     atom   11 type  3   force =    -0.02363374    0.00947652    0.01721088
     atom   12 type  3   force =    -0.02185394   -0.00938457   -0.01606221
     atom   13 type  3   force =    -0.02165093   -0.00860464    0.01697510
     atom   14 type  3   force =     0.02319913    0.00961359   -0.01512123
     atom   15 type  3   force =     0.02447097    0.01076279    0.01566001
     atom   16 type  3   force =     0.02271756   -0.01063101   -0.01444377
     atom   17 type  3   force =     0.02268085   -0.00944006    0.01552920
     atom   18 type  4   force =     0.00055942   -0.00373607    0.00351749
     atom   19 type  4   force =    -0.01029524    0.00018239   -0.00916710
     atom   20 type  4   force =    -0.01013766    0.00015494    0.00900097
     atom   21 type  4   force =     0.01031551    0.00019750   -0.00917501
     atom   22 type  4   force =     0.01019998    0.00011332    0.00899532
     atom   23 type  5   force =     0.00000000    0.00000000    0.00000000
     The Hubbard contrib.    to forces
     atom    1 type  1   force =     0.00000000    0.00000000    0.00000000
     atom    2 type  1   force =     0.00000000    0.00000000    0.00000000
     atom    3 type  1   force =     0.00000000    0.00000000    0.00000000
     atom    4 type  1   force =     0.00000000    0.00000000    0.00000000
     atom    5 type  1   force =     0.00000000    0.00000000    0.00000000
     atom    6 type  2   force =     0.00000000    0.00000000    0.00000000
     atom    7 type  2   force =     0.00000000    0.00000000    0.00000000
     atom    8 type  3   force =     0.00000000    0.00000000    0.00000000
     atom    9 type  3   force =     0.00000000    0.00000000    0.00000000
     atom   10 type  3   force =     0.00000000    0.00000000    0.00000000
     atom   11 type  3   force =     0.00000000    0.00000000    0.00000000
     atom   12 type  3   force =     0.00000000    0.00000000    0.00000000
     atom   13 type  3   force =     0.00000000    0.00000000    0.00000000
     atom   14 type  3   force =     0.00000000    0.00000000    0.00000000
     atom   15 type  3   force =     0.00000000    0.00000000    0.00000000
     atom   16 type  3   force =     0.00000000    0.00000000    0.00000000
     atom   17 type  3   force =     0.00000000    0.00000000    0.00000000
     atom   18 type  4   force =     0.00000000    0.00000000    0.00000000
     atom   19 type  4   force =     0.00000000    0.00000000    0.00000000
     atom   20 type  4   force =     0.00000000    0.00000000    0.00000000
     atom   21 type  4   force =     0.00000000    0.00000000    0.00000000
     atom   22 type  4   force =     0.00000000    0.00000000    0.00000000
     atom   23 type  5   force =     0.00000000    0.00000000    0.00000000
     The SCF correction term to forces
     atom    1 type  1   force =    -0.00000000   -0.00000000   -0.00000000
     atom    2 type  1   force =    -0.00000000    0.00000000   -0.00000000
     atom    3 type  1   force =    -0.00000000   -0.00000000   -0.00000000
     atom    4 type  1   force =     0.00000000   -0.00000000   -0.00000000
     atom    5 type  1   force =     0.00000000    0.00000000   -0.00000000
     atom    6 type  2   force =    -0.00000000   -0.00000000   -0.00000000
     atom    7 type  2   force =    -0.00000000    0.00000000   -0.00000000
     atom    8 type  3   force =    -0.00000000    0.00000000   -0.00000000
     atom    9 type  3   force =     0.00000000    0.00000000   -0.00000000
     atom   10 type  3   force =     0.00000000   -0.00000000    0.00000000
     atom   11 type  3   force =     0.00000000    0.00000000   -0.00000000
     atom   12 type  3   force =     0.00000000   -0.00000000    0.00000000
     atom   13 type  3   force =     0.00000000   -0.00000000   -0.00000000
     atom   14 type  3   force =    -0.00319395   -0.00245559    0.00657050
     atom   15 type  3   force =    -0.00037712    0.00524412   -0.00313580
     atom   16 type  3   force =    -0.00466295   -0.00128125    0.00678703
     atom   17 type  3   force =    -0.00124347   -0.00622110   -0.00199045
     atom   18 type  4   force =    -0.00534305    0.00790339   -0.01185315
     atom   19 type  4   force =     0.00319128    0.00286313    0.00653121
     atom   20 type  4   force =     0.00245048    0.00075047   -0.00264639
     atom   21 type  4   force =    -0.00193200    0.00272761   -0.00098615
     atom   22 type  4   force =    -0.00092986    0.00056126    0.00450554
     atom   23 type  5   force =     0.00528646    0.00008132   -0.00057115

     Total force =     1.093166     Total SCF correction =     0.024053

     Entering Dynamics:    iteration =     2
                           time      =   0.0004 pico-seconds


ATOMIC_POSITIONS (angstrom)
Hf            2.6699999570        2.8271230292        6.6039642186    0   0   0
Hf            1.2529906802        1.2862841814        5.0584662261    0   0   0
Hf            1.2554868986        7.3898042948        5.0880677674    0   0   0
Hf            4.0870092338        1.2862841814        5.0584662261    0   0   0
Hf            4.0845130154        7.3898042948        5.0880677674    0   0   0
Nb            2.6699999570        2.7969306055        3.5155832167    0   0   0
Nb            2.6699999570        5.8763786763        6.6349979432    0   0   0
Ta            1.2093730560        4.3409278516        5.0711258323    0   0   0
Ta            4.1306268580        4.3409278516        5.0711258323    0   0   0
Ta            1.3072526841        1.3141225894        2.0587791101    0   0   0
Ta            1.3027883142        1.3083911360        8.0945792024    0   0   0
Ta            1.3040096221        7.3758261241        2.0462371798    0   0   0
Ta            1.3077107984        7.3650829484        8.0860022208    0   0   0
Ta            4.0327502058        1.3141192811        2.0587725645
Ta            4.0372143169        1.3083873661        8.0945852155
Ta            4.0359926336        7.3758298834        2.0462312395
Ta            4.0322915162        7.3650862198        8.0860086705
Zr            2.6699982193        5.8662918678        3.5273803127
Zr            1.2438040159        4.3220770884        1.9999742806
Zr            1.2403540290        4.3541245221        8.1497816733
Zr            4.0961958397        4.3220768344        1.9999735609
Zr            4.0996458305        4.3541247047        8.1497822378
H             5.0082362963        4.3399939989        5.0721909724


     kinetic energy (Ekin) =          17.99389145 Ry
     temperature           =      189400.71730968 K 
     Ekin + Etot (const)   =       -2924.67386538 Ry

     Writing config-only to output data dir outdir/pwscf.save/
     NEW-OLD atomic charge density approx. for the potential

     Check: negative core charge=   -0.000002

     negative rho (up, down):  9.059E-01 9.059E-01
     Generating pointlists ...
     new r_m :   0.0434 (alat units)  0.6841 (a.u.) for type    3
     new r_m :   0.0434 (alat units)  0.6841 (a.u.) for type    5

     total cpu time spent up to now is      952.3 secs

     Self-consistent Calculation

     iteration #  1     ecut=   120.00 Ry     beta= 0.70
     Davidson diagonalization with overlap
     c_bands:  1 eigenvalues not converged
     c_bands:  1 eigenvalues not converged
     ethr =  1.00E-06,  avg # of iterations = 20.0

     negative rho (up, down):  9.071E-01 9.071E-01

     total cpu time spent up to now is     1043.6 secs

     total energy              =   -2941.38321892 Ry
     estimated scf accuracy    <       0.20629012 Ry

     total magnetization       =    -0.00 Bohr mag/cell
     absolute magnetization    =     0.03 Bohr mag/cell

     iteration #  2     ecut=   120.00 Ry     beta= 0.70
     Davidson diagonalization with overlap
     ethr =  7.45E-05,  avg # of iterations =  3.0

     negative rho (up, down):  9.069E-01 9.069E-01

     total cpu time spent up to now is     1085.2 secs

     total energy              =   -2941.41043594 Ry
     estimated scf accuracy    <       0.11367921 Ry

     total magnetization       =    -0.00 Bohr mag/cell
     absolute magnetization    =     0.03 Bohr mag/cell

     iteration #  3     ecut=   120.00 Ry     beta= 0.70
     Davidson diagonalization with overlap
     ethr =  4.10E-05,  avg # of iterations =  1.0

     negative rho (up, down):  9.068E-01 9.068E-01

     total cpu time spent up to now is     1120.2 secs

     total energy              =   -2941.41502921 Ry
     estimated scf accuracy    <       0.00808168 Ry

     total magnetization       =    -0.00 Bohr mag/cell
     absolute magnetization    =     0.02 Bohr mag/cell

     iteration #  4     ecut=   120.00 Ry     beta= 0.70
     Davidson diagonalization with overlap
     ethr =  2.92E-06,  avg # of iterations = 12.0

     negative rho (up, down):  9.068E-01 9.068E-01

     total cpu time spent up to now is     1165.0 secs

     total energy              =   -2941.41582714 Ry
     estimated scf accuracy    <       0.00309095 Ry

     total magnetization       =    -0.00 Bohr mag/cell
     absolute magnetization    =     0.02 Bohr mag/cell

     iteration #  5     ecut=   120.00 Ry     beta= 0.70
     Davidson diagonalization with overlap
     ethr =  1.12E-06,  avg # of iterations =  2.0

     negative rho (up, down):  9.068E-01 9.068E-01

     Magnetic moment per site  (integrated on atomic sphere of radius R)
     atom   1 (R=0.125)  charge=  9.4577  magn=  0.0000
     atom   2 (R=0.125)  charge=  9.0566  magn= -0.0000
     atom   3 (R=0.125)  charge=  9.0568  magn= -0.0000
     atom   4 (R=0.125)  charge=  9.0510  magn=  0.0001
     atom   5 (R=0.125)  charge=  9.0517  magn= -0.0000
     atom   6 (R=0.123)  charge= 10.3445  magn= -0.0000
     atom   7 (R=0.123)  charge= 10.3451  magn=  0.0000
     atom   8 (R=0.043)  charge=  0.6676  magn=  0.0000
     atom   9 (R=0.043)  charge=  0.6807  magn= -0.0000
     atom  10 (R=0.043)  charge=  0.6661  magn=  0.0000
     atom  11 (R=0.043)  charge=  0.6660  magn= -0.0000
     atom  12 (R=0.043)  charge=  0.6660  magn= -0.0000
     atom  13 (R=0.043)  charge=  0.6658  magn= -0.0000
     atom  14 (R=0.043)  charge=  0.6665  magn=  0.0000
     atom  15 (R=0.043)  charge=  0.6668  magn=  0.0000
     atom  16 (R=0.043)  charge=  0.6673  magn= -0.0000
     atom  17 (R=0.043)  charge=  0.6661  magn= -0.0000
     atom  18 (R=0.125)  charge=  9.4496  magn= -0.0000
     atom  19 (R=0.125)  charge=  9.0005  magn=  0.0008
     atom  20 (R=0.125)  charge=  8.9967  magn= -0.0008
     atom  21 (R=0.125)  charge=  8.9931  magn=  0.0007
     atom  22 (R=0.125)  charge=  8.9899  magn= -0.0007
     atom  23 (R=0.043)  charge=  0.7133  magn=  0.0000

     total cpu time spent up to now is     1205.1 secs

     End of self-consistent calculation

 ------ SPIN UP ------------


          k = 0.0000 0.0000 0.0000 ( 55051 PWs)   bands (ev):

   -59.9038 -59.5190 -59.5071 -59.4725 -59.4607 -59.4438 -59.4397 -59.4240
   -59.3951 -59.3795 -53.0982 -53.0512 -52.9741 -52.9275 -51.4434 -44.9723
   -44.9625 -40.3387 -40.3208 -40.2347 -40.2320 -38.5322 -29.0528 -26.5147
   -26.5040 -26.4306 -26.4145 -26.3347 -26.3252 -26.2390 -26.2049 -26.1946
   -26.0666 -26.0505 -26.0145 -26.0009 -25.9869 -25.9527 -25.9485 -25.9392
   -25.8947 -25.8783 -25.6995 -25.6888 -25.6829 -25.6771 -25.6227 -25.6158
   -25.6027 -25.5928 -25.5744 -25.5079 -22.8897 -22.6768 -22.3736 -22.2833
   -22.0300 -21.8923 -21.8638 -21.7687 -21.6485 -21.5668 -21.5565 -21.3339
   -21.2314 -21.1685 -21.1057 -21.0581 -20.9939 -20.9426 -20.4957 -20.4274
   -20.3766 -18.9014 -18.6115 -18.5467 -18.5312 -18.3153 -18.3049 -18.2892
   -18.2801 -18.2689 -18.2297 -18.0607 -18.0429 -16.8904 -16.6670 -16.5426
     2.6675   3.4764   4.2024   4.4345   4.5713   4.7650   4.8103   4.8541
     4.9562   5.1742   5.2184   5.4688   5.5710   5.7746   5.9283   5.9653
     6.0174   6.2289   6.2957   6.3206   6.4246   6.5375   6.5900   6.5997
     6.7207   6.7887   6.8114   6.9717   7.0328   7.0404   7.0554   7.0971
     7.2077   7.4264   7.4343   7.5419   7.5482   7.6283   7.6458   7.6614
     7.8192   7.8880   8.0028   8.1307   8.1583   8.2553   8.2942   8.3493
     8.4425   8.5138   8.5827   8.5967   8.6036   8.7976   8.8342   8.8812
     8.9004   8.9428   9.1131   9.1727   9.3237   9.3684   9.4966   9.5212
     9.5377   9.6218   9.6356   9.6489   9.7170   9.8767   9.9980  10.0711
    10.1065  10.2006  10.2507  10.4000  10.4061  10.5287  10.5559

 ------ SPIN DOWN ----------


          k = 0.0000 0.0000 0.0000 ( 55051 PWs)   bands (ev):

   -59.9038 -59.5189 -59.5073 -59.4724 -59.4609 -59.4437 -59.4399 -59.4240
   -59.3952 -59.3795 -53.0983 -53.0512 -52.9741 -52.9275 -51.4434 -44.9724
   -44.9625 -40.3380 -40.3215 -40.2341 -40.2326 -38.5322 -29.0528 -26.5147
   -26.5042 -26.4305 -26.4147 -26.3346 -26.3254 -26.2389 -26.2050 -26.1947
   -26.0665 -26.0507 -26.0144 -26.0008 -25.9871 -25.9529 -25.9484 -25.9392
   -25.8949 -25.8783 -25.6993 -25.6891 -25.6830 -25.6772 -25.6228 -25.6159
   -25.6028 -25.5929 -25.5745 -25.5080 -22.8897 -22.6768 -22.3737 -22.2833
   -22.0300 -21.8923 -21.8638 -21.7687 -21.6485 -21.5668 -21.5566 -21.3339
   -21.2314 -21.1685 -21.1057 -21.0581 -20.9939 -20.9426 -20.4957 -20.4274
   -20.3766 -18.9006 -18.6128 -18.5459 -18.5302 -18.3151 -18.3051 -18.2891
   -18.2804 -18.2695 -18.2304 -18.0596 -18.0439 -16.8904 -16.6669 -16.5425
     2.6675   3.4764   4.2024   4.4345   4.5712   4.7649   4.8102   4.8540
     4.9563   5.1742   5.2184   5.4688   5.5709   5.7745   5.9283   5.9652
     6.0173   6.2289   6.2957   6.3205   6.4247   6.5376   6.5899   6.5995
     6.7207   6.7887   6.8114   6.9716   7.0328   7.0404   7.0553   7.0971
     7.2076   7.4263   7.4343   7.5419   7.5482   7.6282   7.6457   7.6614
     7.8191   7.8879   8.0027   8.1307   8.1582   8.2554   8.2941   8.3490
     8.4425   8.5135   8.5825   8.5966   8.6035   8.7975   8.8340   8.8811
     8.9002   8.9429   9.1131   9.1727   9.3237   9.3682   9.4966   9.5211
     9.5376   9.6217   9.6355   9.6489   9.7169   9.8766   9.9979  10.0710
    10.1064  10.2004  10.2507  10.4000  10.4060  10.5287  10.5551

     the Fermi energy is     8.5537 ev

!    total energy              =   -2941.41559714 Ry
     estimated scf accuracy    <       0.00065900 Ry
     smearing contrib. (-TS)   =      -0.10357125 Ry
     internal energy E=F+TS    =   -2941.31202589 Ry

     total magnetization       =    -0.00 Bohr mag/cell
     absolute magnetization    =     0.02 Bohr mag/cell

     convergence has been achieved in   5 iterations

     negative rho (up, down):  9.068E-01 9.068E-01

     Forces acting on atoms (cartesian axes, Ry/au):

     atom    1 type  1   force =     0.00702502   -0.02596220    0.01235477
     atom    2 type  1   force =    -0.12548775   -0.01527781   -0.00411978
     atom    3 type  1   force =    -0.12442395    0.01298417    0.00027217
     atom    4 type  1   force =     0.12630859   -0.00810693   -0.00512751
     atom    5 type  1   force =     0.12534440    0.00559381    0.00104633
     atom    6 type  2   force =     0.00260944   -0.02028265    0.00040028
     atom    7 type  2   force =     0.00267015    0.01818280    0.00217145
     atom    8 type  3   force =    -0.12114443    0.00360490   -0.00429173
     atom    9 type  3   force =    -3.87374990    0.00547055   -0.00852362
     atom   10 type  3   force =    -0.02809971   -0.03092543   -0.05783193
     atom   11 type  3   force =    -0.02699705   -0.03471853    0.05726816
     atom   12 type  3   force =    -0.02231636    0.03534695   -0.05394124
     atom   13 type  3   force =    -0.02400354    0.02882930    0.05967232
     atom   14 type  3   force =     0.02477868   -0.02652191   -0.05535310
     atom   15 type  3   force =     0.02476784   -0.02965023    0.05435451
     atom   16 type  3   force =     0.02037927    0.03066859   -0.05066233
     atom   17 type  3   force =     0.02049295    0.02396959    0.05711590
     atom   18 type  4   force =     0.00427575    0.02828592   -0.01758761
     atom   19 type  4   force =    -0.14123942   -0.00447021   -0.11561970
     atom   20 type  4   force =    -0.14478486    0.00551332    0.11886287
     atom   21 type  4   force =     0.13956365   -0.00513799   -0.11148985
     atom   22 type  4   force =     0.14328619    0.00618636    0.11457137
     atom   23 type  5   force =     3.99074504   -0.00358236    0.00645826
     The non-local contrib.  to forces
     atom    1 type  1   force =     0.00072837   -0.00628742    0.02411340
     atom    2 type  1   force =    -0.24847823   -0.16163600    0.01679475
     atom    3 type  1   force =    -0.24361351    0.15738909   -0.02920168
     atom    4 type  1   force =     0.25101383   -0.15413886    0.01592205
     atom    5 type  1   force =     0.24681649    0.14969409   -0.02859246
     atom    6 type  2   force =    -0.01362183   -0.06665308   -0.07179761
     atom    7 type  2   force =    -0.01469807    0.07778415    0.06564082
     atom    8 type  3   force =    -0.19015798   -0.00095946   -0.00400660
     atom    9 type  3   force =     1.48536851   -0.00263307   -0.00304822
     atom   10 type  3   force =    -0.21817819    0.00607300   -0.21385867
     atom   11 type  3   force =    -0.22816251    0.01099593    0.20372058
     atom   12 type  3   force =    -0.20763928   -0.02363536   -0.18645324
     atom   13 type  3   force =    -0.21426979   -0.00702289    0.21348285
     atom   14 type  3   force =     0.21953857    0.00461786   -0.21510325
     atom   15 type  3   force =     0.23223740    0.01048154    0.20426898
     atom   16 type  3   force =     0.21225323   -0.02263828   -0.18721463
     atom   17 type  3   force =     0.21476200   -0.00592484    0.21469803
     atom   18 type  4   force =    -0.00897890    0.07137293   -0.07291368
     atom   19 type  4   force =     0.07063938    0.00795857    0.06328602
     atom   20 type  4   force =     0.06594735   -0.01078679   -0.05774046
     atom   21 type  4   force =    -0.06940112    0.00820174    0.06826462
     atom   22 type  4   force =    -0.06508677   -0.01044633   -0.06272772
     atom   23 type  5   force =    -0.11749468    0.00018883    0.00042849
     The ionic contribution  to forces
     atom    1 type  1   force =    -0.37500089   -4.84745077   14.54688142
     atom    2 type  1   force =   -34.57386379   -6.25017134    0.77895421
     atom    3 type  1   force =   -34.55654743    6.23653138   -0.71241701
     atom    4 type  1   force =    34.35436450   -6.58803262    0.77717775
     atom    5 type  1   force =    34.33572341    6.57540146   -0.71037227
     atom    6 type  2   force =    -0.39429162   -3.82177755  -14.48645888
     atom    7 type  2   force =    -0.39435620    3.85739531   14.52063688
     atom    8 type  3   force =   -46.44460463    0.07252656   -0.06588680
     atom    9 type  3   force =    36.88196408    0.08242004   -0.07717450
     atom   10 type  3   force =   -31.13621709   -2.14922953  -23.64808434
     atom   11 type  3   force =   -30.20458750   -0.89652341   22.64995537
     atom   12 type  3   force =   -30.32009237    0.84477973  -22.69826472
     atom   13 type  3   force =   -31.11265305    2.23582324   23.63072258
     atom   14 type  3   force =    31.04454532   -2.22656619  -23.74452532
     atom   15 type  3   force =    30.11404063   -0.97313415   22.74579704
     atom   16 type  3   force =    30.22973361    0.92085829  -22.79358972
     atom   17 type  3   force =    31.02091483    2.31316351   23.72717775
     atom   18 type  4   force =    -0.36966598    4.61338718  -14.40539001
     atom   19 type  4   force =   -31.17400814    0.96123652  -26.14514523
     atom   20 type  4   force =   -31.14528214   -0.95695153   26.12338841
     atom   21 type  4   force =    30.97271841    0.95911447  -26.50671106
     atom   22 type  4   force =    30.94578452   -0.95527286   26.48373373
     atom   23 type  5   force =    12.30138151   -0.00752773    0.00959469
     The local contribution  to forces
     atom    1 type  1   force =     0.39509711    4.83297399  -14.56813925
     atom    2 type  1   force =    34.70257595    6.39227192   -0.80899175
     atom    3 type  1   force =    34.68068090   -6.37673912    0.73271825
     atom    4 type  1   force =   -34.47838230    6.74915393   -0.80789694
     atom    5 type  1   force =   -34.45566501   -6.73505152    0.73057026
     atom    6 type  2   force =     0.42717352    3.87360166   14.55527733
     atom    7 type  2   force =     0.42886258   -3.92584366  -14.59620098
     atom    8 type  3   force =    46.55042883   -0.06909403    0.05737325
     atom    9 type  3   force =   -42.36428045   -0.07427920    0.06391576
     atom   10 type  3   force =    31.33860910    2.09899006   23.82004924
     atom   11 type  3   force =    30.42146611    0.84456554  -22.81175686
     atom   12 type  3   force =    30.51975163   -0.77501547   22.84631428
     atom   13 type  3   force =    31.31384064   -2.19469658  -23.79704932
     atom   14 type  3   force =   -31.25183754    2.18268930   23.92146150
     atom   15 type  3   force =   -30.33670688    0.92806659  -22.91171032
     atom   16 type  3   force =   -30.43595704   -0.85728403   22.94659286
     atom   17 type  3   force =   -31.22636249   -2.27888770  -23.89829530
     atom   18 type  4   force =     0.39886474   -4.65772596   14.45304276
     atom   19 type  4   force =    30.96257955   -0.97132090   25.96822917
     atom   20 type  4   force =    30.93641296    0.97281845  -25.94711415
     atom   21 type  4   force =   -30.76042610   -0.96994500   26.34940474
     atom   22 type  4   force =   -30.73471950    0.97106476  -26.32735693
     atom   23 type  5   force =    -8.19889306    0.00382756   -0.00496869
     The core correction contribution to forces
     atom    1 type  1   force =     0.00127223    0.00459297   -0.00241460
     atom    2 type  1   force =    -0.01232795   -0.00082390    0.00066223
     atom    3 type  1   force =    -0.01247433    0.00167936   -0.00135917
     atom    4 type  1   force =     0.01181676   -0.00114663    0.00068065
     atom    5 type  1   force =     0.01189453    0.00198228   -0.00137095
     atom    6 type  2   force =     0.00075185    0.00328468    0.00306184
     atom    7 type  2   force =     0.00080210   -0.00388230   -0.00258807
     atom    8 type  3   force =    -0.02675644    0.00038493   -0.00065313
     atom    9 type  3   force =     0.12395941   -0.00038534   -0.00002450
     atom   10 type  3   force =    -0.02146170    0.00883450   -0.01634843
     atom   11 type  3   force =    -0.02339420    0.00979512    0.01708304
     atom   12 type  3   force =    -0.02117779   -0.00958123   -0.01585982
     atom   13 type  3   force =    -0.02127181   -0.00851269    0.01682514
     atom   14 type  3   force =     0.02276391    0.00895404   -0.01558117
     atom   15 type  3   force =     0.02447881    0.01003216    0.01627913
     atom   16 type  3   force =     0.02235578   -0.00989218   -0.01494849
     atom   17 type  3   force =     0.02240888   -0.00867819    0.01597838
     atom   18 type  4   force =     0.00065296   -0.00406559    0.00368487
     atom   19 type  4   force =    -0.01028301    0.00015219   -0.00904380
     atom   20 type  4   force =    -0.01015040    0.00017156    0.00885002
     atom   21 type  4   force =     0.01033747    0.00014089   -0.00904975
     atom   22 type  4   force =     0.01021597    0.00015186    0.00885572
     atom   23 type  5   force =     0.00000000    0.00000000    0.00000000
     The Hubbard contrib.    to forces
     atom    1 type  1   force =     0.00000000    0.00000000    0.00000000
     atom    2 type  1   force =     0.00000000    0.00000000    0.00000000
     atom    3 type  1   force =     0.00000000    0.00000000    0.00000000
     atom    4 type  1   force =     0.00000000    0.00000000    0.00000000
     atom    5 type  1   force =     0.00000000    0.00000000    0.00000000
     atom    6 type  2   force =     0.00000000    0.00000000    0.00000000
     atom    7 type  2   force =     0.00000000    0.00000000    0.00000000
     atom    8 type  3   force =     0.00000000    0.00000000    0.00000000
     atom    9 type  3   force =     0.00000000    0.00000000    0.00000000
     atom   10 type  3   force =     0.00000000    0.00000000    0.00000000
     atom   11 type  3   force =     0.00000000    0.00000000    0.00000000
     atom   12 type  3   force =     0.00000000    0.00000000    0.00000000
     atom   13 type  3   force =     0.00000000    0.00000000    0.00000000
     atom   14 type  3   force =     0.00000000    0.00000000    0.00000000
     atom   15 type  3   force =     0.00000000    0.00000000    0.00000000
     atom   16 type  3   force =     0.00000000    0.00000000    0.00000000
     atom   17 type  3   force =     0.00000000    0.00000000    0.00000000
     atom   18 type  4   force =     0.00000000    0.00000000    0.00000000
     atom   19 type  4   force =     0.00000000    0.00000000    0.00000000
     atom   20 type  4   force =     0.00000000    0.00000000    0.00000000
     atom   21 type  4   force =     0.00000000    0.00000000    0.00000000
     atom   22 type  4   force =     0.00000000    0.00000000    0.00000000
     atom   23 type  5   force =     0.00000000    0.00000000    0.00000000
     The SCF correction term to forces
     atom    1 type  1   force =    -0.00000000   -0.00000000    0.00000000
     atom    2 type  1   force =     0.00000000    0.00000000    0.00000000
     atom    3 type  1   force =     0.00000000   -0.00000000    0.00000000
     atom    4 type  1   force =    -0.00000000   -0.00000000    0.00000000
     atom    5 type  1   force =    -0.00000000    0.00000000    0.00000000
     atom    6 type  2   force =    -0.00000000   -0.00000000   -0.00000000
     atom    7 type  2   force =    -0.00000000    0.00000000    0.00000000
     atom    8 type  3   force =    -0.00000000    0.00000000    0.00000000
     atom    9 type  3   force =    -0.00000000    0.00000000    0.00000000
     atom   10 type  3   force =     0.00000000    0.00000000   -0.00000000
     atom   11 type  3   force =     0.00000000   -0.00000000   -0.00000000
     atom   12 type  3   force =     0.00000000   -0.00000000   -0.00000000
     atom   13 type  3   force =     0.00000000    0.00000000   -0.00000000
     atom   14 type  3   force =    -0.00961884    0.00385150   -0.00227683
     atom   15 type  3   force =    -0.00866939   -0.00502793   -0.00095227
     atom   16 type  3   force =    -0.00739357   -0.00030678   -0.00217430
     atom   17 type  3   force =    -0.01061753    0.00436524   -0.00311493
     atom   18 type  4   force =    -0.01598434    0.00538580    0.00331649
     atom   19 type  4   force =     0.01044553   -0.00242816    0.00638217
     atom   20 type  4   force =     0.00890010    0.00033007   -0.00919291
     atom   21 type  4   force =    -0.01305228   -0.00258166   -0.01407036
     atom   22 type  4   force =    -0.01229528    0.00075736    0.01139461
     atom   23 type  5   force =     0.00636400   -0.00000257    0.00073180

     Total force =     4.009779     Total SCF correction =     0.041564

     Entering Dynamics:    iteration =     3
                           time      =   0.0006 pico-seconds


ATOMIC_POSITIONS (angstrom)
Hf            2.6699999570        2.8271230292        6.6039642186    0   0   0
Hf            1.2529906802        1.2862841814        5.0584662261    0   0   0
Hf            1.2554868986        7.3898042948        5.0880677674    0   0   0
Hf            4.0870092338        1.2862841814        5.0584662261    0   0   0
Hf            4.0845130154        7.3898042948        5.0880677674    0   0   0
Nb            2.6699999570        2.7969306055        3.5155832167    0   0   0
Nb            2.6699999570        5.8763786763        6.6349979432    0   0   0
Ta            1.2093730560        4.3409278516        5.0711258323    0   0   0
Ta            4.1306268580        4.3409278516        5.0711258323    0   0   0
Ta            1.3072526841        1.3141225894        2.0587791101    0   0   0
Ta            1.3027883142        1.3083911360        8.0945792024    0   0   0
Ta            1.3040096221        7.3758261241        2.0462371798    0   0   0
[...]
   -26.3741 -26.3609 -26.2814 -26.2682 -26.1554 -26.1445 -26.1333 -26.0037
   -25.9864 -25.9383 -25.9339 -25.9258 -25.8898 -25.8792 -25.8555 -25.8459
   -25.8298 -25.8091 -25.7747 -25.7287 -25.6389 -25.6309 -25.6210 -25.6153
   -25.5602 -25.5594 -25.5373 -25.5299 -22.8634 -22.6552 -22.3418 -22.2633
   -21.9969 -21.8597 -21.8331 -21.7349 -21.6207 -21.5483 -21.5356 -21.3188
   -21.1615 -21.1135 -21.0618 -21.0151 -20.9528 -20.9026 -20.4269 -20.3593
   -20.2928 -18.8706 -18.5975 -18.5147 -18.5022 -18.2843 -18.2734 -18.2639
   -18.2531 -18.2415 -18.2052 -18.0491 -18.0363 -16.8018 -16.6007 -16.4806
     2.7913   4.2349   4.4515   4.5198   4.5987   4.8414   4.8585   4.9759
     5.0426   5.2145   5.2617   5.4795   5.6086   5.8186   5.9774   6.0084
     6.0855   6.2623   6.3525   6.3590   6.4310   6.5769   6.6293   6.6518
     6.7275   6.8693   6.8873   7.0193   7.0495   7.0634   7.0772   7.1038
     7.2461   7.4700   7.4767   7.5667   7.5800   7.5824   7.6634   7.7022
     7.8530   7.9058   7.9451   8.0339   8.1881   8.2909   8.3262   8.3650
     8.5217   8.5595   8.6052   8.6319   8.6369   8.8339   8.8640   8.9282
     8.9472   8.9729   9.2204   9.2629   9.3724   9.4098   9.5520   9.6200
     9.6462   9.6557   9.6819   9.6863   9.7474   9.8629   9.9869  10.0270
    10.1536  10.2396  10.4217  10.4340  10.4444  10.5320  10.5839

     the Fermi energy is     8.5909 ev

!    total energy              =   -2943.06336200 Ry
     estimated scf accuracy    <       0.00020565 Ry
     smearing contrib. (-TS)   =      -0.10161362 Ry
     internal energy E=F+TS    =   -2942.96174838 Ry

     total magnetization       =    -0.00 Bohr mag/cell
     absolute magnetization    =     0.00 Bohr mag/cell

     convergence has been achieved in   5 iterations

     negative rho (up, down):  9.080E-01 9.080E-01

     Forces acting on atoms (cartesian axes, Ry/au):

     atom    1 type  1   force =     0.00465667   -0.02471406    0.01351369
     atom    2 type  1   force =    -0.12015563   -0.01504788   -0.00456290
     atom    3 type  1   force =    -0.11886309    0.01278406    0.00162610
     atom    4 type  1   force =     0.11934458   -0.01748052   -0.00394255
     atom    5 type  1   force =     0.11791034    0.01487538    0.00099429
     atom    6 type  2   force =     0.00584280   -0.01495224    0.00577747
     atom    7 type  2   force =     0.00598073    0.01211495   -0.00381766
     atom    8 type  3   force =    -0.19228616    0.00208736   -0.00300218
     atom    9 type  3   force =     0.13989153    0.00272786   -0.00303995
     atom   10 type  3   force =    -0.02432788   -0.03004983   -0.05789515
     atom   11 type  3   force =    -0.02199060   -0.03357076    0.05587341
     atom   12 type  3   force =    -0.01876369    0.03457201   -0.05252708
     atom   13 type  3   force =    -0.01947030    0.02821496    0.05921215
     atom   14 type  3   force =     0.02429043   -0.03098126   -0.05963790
     atom   15 type  3   force =     0.02227744   -0.03522034    0.05817953
     atom   16 type  3   force =     0.01897226    0.03615479   -0.05499510
     atom   17 type  3   force =     0.01970049    0.02920432    0.06101492
     atom   18 type  4   force =     0.00571111    0.02712726   -0.01813641
     atom   19 type  4   force =    -0.13481643   -0.00494860   -0.11635046
     atom   20 type  4   force =    -0.13831840    0.00601980    0.11840007
     atom   21 type  4   force =     0.13313216   -0.00428513   -0.11558995
     atom   22 type  4   force =     0.13619578    0.00545176    0.11791571
     atom   23 type  5   force =     0.03508585   -0.00008388    0.00098995
     The non-local contrib.  to forces
     atom    1 type  1   force =     0.00421908   -0.02223699    0.03817084
     atom    2 type  1   force =    -0.26152814   -0.15791003    0.01655060
     atom    3 type  1   force =    -0.25530502    0.15356646   -0.02781331
     atom    4 type  1   force =     0.25252315   -0.16223502    0.01685421
     atom    5 type  1   force =     0.24640312    0.15767140   -0.02838595
     atom    6 type  2   force =     0.00517275   -0.06262980   -0.06688131
     atom    7 type  2   force =     0.00607661    0.07253289    0.05983079
     atom    8 type  3   force =    -0.15549365    0.00092789   -0.00516418
     atom    9 type  3   force =     0.31046594   -0.00077690   -0.00341875
     atom   10 type  3   force =    -0.21510772    0.00610641   -0.21239487
     atom   11 type  3   force =    -0.21969286    0.01054611    0.20180076
     atom   12 type  3   force =    -0.19890919   -0.02139161   -0.18647296
     atom   13 type  3   force =    -0.21032248   -0.00744065    0.21173103
     atom   14 type  3   force =     0.21302634    0.00586865   -0.21121350
     atom   15 type  3   force =     0.21680073    0.00847367    0.20167492
     atom   16 type  3   force =     0.19743520   -0.01983376   -0.18583742
     atom   17 type  3   force =     0.20853927   -0.00696699    0.21065790
     atom   18 type  4   force =     0.00528288    0.07013869   -0.06685246
     atom   19 type  4   force =     0.06451035    0.00730231    0.06521692
     atom   20 type  4   force =     0.06071353   -0.00908977   -0.06018388
     atom   21 type  4   force =    -0.06688274    0.00750785    0.05782535
     atom   22 type  4   force =    -0.06251855   -0.00921572   -0.05212890
     atom   23 type  5   force =     0.02152407    0.00022428   -0.00022426
     The ionic contribution  to forces
     atom    1 type  1   force =     0.08897356   -4.67351063   14.40156251
     atom    2 type  1   force =   -34.31615151   -6.35935314    0.77552432
     atom    3 type  1   force =   -34.30390233    6.33845209   -0.71397473
     atom    4 type  1   force =    34.39486704   -6.27412894    0.77673989
     atom    5 type  1   force =    34.38045658    6.25663637   -0.71323705
     atom    6 type  2   force =     0.09254923   -3.63319251  -14.33355127
     atom    7 type  2   force =     0.09285186    3.67335274   14.36248593
     atom    8 type  3   force =   -45.03025359    0.08572727   -0.08242576
     atom    9 type  3   force =    45.76686644    0.07788943   -0.07312887
     atom   10 type  3   force =   -31.01642190   -2.17515604  -23.67353619
     atom   11 type  3   force =   -30.08350460   -0.92423730   22.67770266
     atom   12 type  3   force =   -30.20503720    0.86899346  -22.72308558
     atom   13 type  3   force =   -30.99219576    2.26235516   23.65634693
     atom   14 type  3   force =    31.04377156   -2.14574356  -23.63999191
     atom   15 type  3   force =    30.11176075   -0.89447153   22.64370939
     atom   16 type  3   force =    30.23164555    0.84116350  -22.69109744
     atom   17 type  3   force =    31.01958247    2.23295389   23.62308280
     atom   18 type  4   force =     0.08533905    4.43494928  -14.25896666
     atom   19 type  4   force =   -30.91768600    0.96163929  -26.22044881
     atom   20 type  4   force =   -30.88307978   -0.95389110   26.20646673
     atom   21 type  4   force =    30.98724975    0.96149674  -26.12992288
     atom   22 type  4   force =    30.95536861   -0.95515389   26.11228553
     atom   23 type  5   force =    -1.50304975   -0.00677057    0.01746047
     The local contribution  to forces
     atom    1 type  1   force =    -0.09223048    4.67015239  -14.43125978
     atom    2 type  1   force =    34.46974644    6.50461947   -0.80433167
     atom    3 type  1   force =    34.45257446   -6.48195785    0.73840148
     atom    4 type  1   force =   -34.54362578    6.41630530   -0.80499604
     atom    5 type  1   force =   -34.52437924   -6.39728677    0.73776578
     atom    6 type  2   force =    -0.09739896    3.67618001   14.39680842
     atom    7 type  2   force =    -0.09815288   -3.73288349  -14.43075022
     atom    8 type  3   force =    45.01189062   -0.08532902    0.07966842
     atom    9 type  3   force =   -45.99233423   -0.07483428    0.06840417
     atom   10 type  3   force =    31.22910938    2.12538806   23.84199160
     atom   11 type  3   force =    30.30524076    0.87188169  -22.83778483
     atom   12 type  3   force =    30.40696432   -0.79890995   22.87037645
     atom   13 type  3   force =    31.20492994   -2.21973021  -23.82244309
     atom   14 type  3   force =   -31.25620370    2.09404729   23.80480701
     atom   15 type  3   force =   -30.33201961    0.84214572  -22.80083523
     atom   16 type  3   force =   -30.43379189   -0.77050091   22.83448770
     atom   17 type  3   force =   -31.23225109   -2.18874216  -23.78570848
     atom   18 type  4   force =    -0.08996426   -4.47211741   14.29759120
     atom   19 type  4   force =    30.72625758   -0.97408649   26.04714754
     atom   20 type  4   force =    30.69481475    0.96886313  -26.03593803
     atom   21 type  4   force =   -30.79851525   -0.97326357   25.96090813
     atom   22 type  4   force =   -30.77067537    0.96951636  -25.94660625
     atom   23 type  5   force =     1.51891924    0.00643549   -0.01761367
     The core correction contribution to forces
     atom    1 type  1   force =    -0.00068982    0.00286347   -0.00065034
     atom    2 type  1   force =    -0.01272217   -0.00173176    0.00111535
     atom    3 type  1   force =    -0.01283623    0.00248529   -0.00174452
     atom    4 type  1   force =     0.01282626   -0.00125631    0.00096436
     atom    5 type  1   force =     0.01290299    0.00207997   -0.00168362
     atom    6 type  2   force =    -0.00012362    0.00271514    0.00248365
     atom    7 type  2   force =    -0.00016522   -0.00327410   -0.00198529
     atom    8 type  3   force =    -0.01863841    0.00015619   -0.00036596
     atom    9 type  3   force =     0.03349948    0.00009505   -0.00025638
     atom   10 type  3   force =    -0.02342768    0.00983341   -0.01473607
     atom   11 type  3   force =    -0.02475361    0.01077029    0.01534034
     atom   12 type  3   force =    -0.02291555   -0.01051076   -0.01426468
     atom   13 type  3   force =    -0.02298828   -0.00955994    0.01519819
     atom   14 type  3   force =     0.02263869    0.00878609   -0.01588172
     atom   15 type  3   force =     0.02415293    0.00935712    0.01664886
     atom   16 type  3   force =     0.02241406   -0.00911371   -0.01554348
     atom   17 type  3   force =     0.02241854   -0.00844092    0.01646703
     atom   18 type  4   force =    -0.00023305   -0.00357415    0.00299133
     atom   19 type  4   force =    -0.01026465    0.00017868   -0.00897515
     atom   20 type  4   force =    -0.01019812    0.00008208    0.00877140
     atom   21 type  4   force =     0.01021958    0.00016526   -0.00865513
     atom   22 type  4   force =     0.01011594    0.00009647    0.00843022
     atom   23 type  5   force =     0.00000000    0.00000000    0.00000000
     The Hubbard contrib.    to forces
     atom    1 type  1   force =     0.00000000    0.00000000    0.00000000
     atom    2 type  1   force =     0.00000000    0.00000000    0.00000000
     atom    3 type  1   force =     0.00000000    0.00000000    0.00000000
     atom    4 type  1   force =     0.00000000    0.00000000    0.00000000
     atom    5 type  1   force =     0.00000000    0.00000000    0.00000000
     atom    6 type  2   force =     0.00000000    0.00000000    0.00000000
     atom    7 type  2   force =     0.00000000    0.00000000    0.00000000
     atom    8 type  3   force =     0.00000000    0.00000000    0.00000000
     atom    9 type  3   force =     0.00000000    0.00000000    0.00000000
     atom   10 type  3   force =     0.00000000    0.00000000    0.00000000
     atom   11 type  3   force =     0.00000000    0.00000000    0.00000000
     atom   12 type  3   force =     0.00000000    0.00000000    0.00000000
     atom   13 type  3   force =     0.00000000    0.00000000    0.00000000
     atom   14 type  3   force =     0.00000000    0.00000000    0.00000000
     atom   15 type  3   force =     0.00000000    0.00000000    0.00000000
     atom   16 type  3   force =     0.00000000    0.00000000    0.00000000
     atom   17 type  3   force =     0.00000000    0.00000000    0.00000000
     atom   18 type  4   force =     0.00000000    0.00000000    0.00000000
     atom   19 type  4   force =     0.00000000    0.00000000    0.00000000
     atom   20 type  4   force =     0.00000000    0.00000000    0.00000000
     atom   21 type  4   force =     0.00000000    0.00000000    0.00000000
     atom   22 type  4   force =     0.00000000    0.00000000    0.00000000
     atom   23 type  5   force =     0.00000000    0.00000000    0.00000000
     The SCF correction term to forces
     atom    1 type  1   force =     0.00000000   -0.00000000    0.00000000
     atom    2 type  1   force =    -0.00000000   -0.00000000    0.00000000
     atom    3 type  1   force =     0.00000000    0.00000000    0.00000000
     atom    4 type  1   force =     0.00000000    0.00000000    0.00000000
     atom    5 type  1   force =     0.00000000   -0.00000000    0.00000000
     atom    6 type  2   force =     0.00000000    0.00000000    0.00000000
     atom    7 type  2   force =     0.00000000    0.00000000    0.00000000
     atom    8 type  3   force =    -0.00000000    0.00000000    0.00000000
     atom    9 type  3   force =     0.00000000    0.00000000    0.00000000
     atom   10 type  3   force =     0.00000000    0.00000000    0.00000000
     atom   11 type  3   force =     0.00000000   -0.00000000   -0.00000000
     atom   12 type  3   force =     0.00000000   -0.00000000    0.00000000
     atom   13 type  3   force =     0.00000000    0.00000000   -0.00000000
     atom   14 type  3   force =     0.00052415    0.00608145    0.00203485
     atom   15 type  3   force =     0.00104924   -0.00070413   -0.00362578
     atom   16 type  3   force =     0.00073594   -0.00553913    0.00238818
     atom   17 type  3   force =     0.00087792    0.00042168   -0.00409170
     atom   18 type  4   force =     0.00475310   -0.00224795    0.00649282
     atom   19 type  4   force =     0.00183290    0.00003880    0.00010167
     atom   20 type  4   force =    -0.00110218    0.00007665   -0.00132352
     atom   21 type  4   force =     0.00052743   -0.00017023    0.00364721
     atom   22 type  4   force =     0.00337176    0.00022974   -0.00467225
     atom   23 type  5   force =    -0.00284110    0.00004810    0.00076005

     Total force =     0.388232     Total SCF correction =     0.015570

     Entering Dynamics:    iteration =    15
                           time      =   0.0030 pico-seconds


ATOMIC_POSITIONS (angstrom)
Hf            2.6699999570        2.8271230292        6.6039642186    0   0   0
Hf            1.2529906802        1.2862841814        5.0584662261    0   0   0
Hf            1.2554868986        7.3898042948        5.0880677674    0   0   0
Hf            4.0870092338        1.2862841814        5.0584662261    0   0   0
Hf            4.0845130154        7.3898042948        5.0880677674    0   0   0
Nb            2.6699999570        2.7969306055        3.5155832167    0   0   0
Nb            2.6699999570        5.8763786763        6.6349979432    0   0   0
Ta            1.2093730560        4.3409278516        5.0711258323    0   0   0
Ta            4.1306268580        4.3409278516        5.0711258323    0   0   0
Ta            1.3072526841        1.3141225894        2.0587791101    0   0   0
Ta            1.3027883142        1.3083911360        8.0945792024    0   0   0
Ta            1.3040096221        7.3758261241        2.0462371798    0   0   0
Ta            1.3077107984        7.3650829484        8.0860022208    0   0   0
Ta            4.0329004686        1.3139478906        2.0584114358
Ta            4.0373608183        1.3081847547        8.0949272415
Ta            4.0361166433        7.3760326348        2.0458990165
Ta            4.0324126436        7.3652528387        8.0863660751
Zr            2.6700378146        5.8665848693        3.5272143053
Zr            1.2420987836        4.3220160794        1.9985369006
Zr            1.2386019869        4.3541981521        8.1512406697
Zr            4.0979022307        4.3220107866        1.9985608882
Zr            4.1013996347        4.3542017372        8.1512130064
H             7.5742970109        4.3172241738        5.0993346696


     kinetic energy (Ekin) =          18.25742339 Ry
     temperature           =      192174.61082219 K 
     Ekin + Etot (const)   =       -2924.80593861 Ry

     The maximum number of steps has been reached.

     End of molecular dynamics calculation

     diffusion coefficients :
     atom     1   D =       0.00000000 cm^2/s
     atom     2   D =       0.00000000 cm^2/s
     atom     3   D =       0.00000000 cm^2/s
     atom     4   D =       0.00000000 cm^2/s
     atom     5   D =       0.00000000 cm^2/s
     atom     6   D =       0.00000000 cm^2/s
     atom     7   D =       0.00000000 cm^2/s
     atom     8   D =       0.00000000 cm^2/s
     atom     9   D =       0.00000000 cm^2/s
     atom    10   D =       0.00000000 cm^2/s
     atom    11   D =       0.00000000 cm^2/s
     atom    12   D =       0.00000000 cm^2/s
     atom    13   D =       0.00000000 cm^2/s
     atom    14   D =       0.00000000 cm^2/s
     atom    15   D =       0.00000000 cm^2/s
     atom    16   D =       0.00000000 cm^2/s
     atom    17   D =       0.00000000 cm^2/s
     atom    18   D =       0.00000000 cm^2/s
     atom    19   D =       0.00000003 cm^2/s
     atom    20   D =       0.00000003 cm^2/s
     atom    21   D =       0.00000003 cm^2/s
     atom    22   D =       0.00000003 cm^2/s
     atom    23   D =       0.02066582 cm^2/s

     < D > =       0.00206659 cm^2/s

     Writing all to output data dir outdir/pwscf.save/

     init_run     :     27.86s CPU     28.30s WALL (       1 calls)
     electrons    :   3894.29s CPU   3951.39s WALL (      15 calls)
     update_pot   :     44.55s CPU     44.75s WALL (      14 calls)
     forces       :    275.45s CPU    279.35s WALL (      15 calls)

     Called by init_run:
     wfcinit      :     21.32s CPU     21.50s WALL (       1 calls)
     potinit      :      1.43s CPU      1.45s WALL (       1 calls)
     hinit0       :      2.62s CPU      2.67s WALL (       1 calls)

     Called by electrons:
     c_bands      :   3160.24s CPU   3180.96s WALL (      80 calls)
     sum_band     :    524.60s CPU    544.47s WALL (      80 calls)
     v_of_rho     :     24.26s CPU     25.01s WALL (      95 calls)
     newd         :    219.72s CPU    237.85s WALL (      95 calls)
     mix_rho      :      1.78s CPU      1.80s WALL (      80 calls)

     Called by c_bands:
     init_us_2    :      4.91s CPU      4.94s WALL (     352 calls)
     init_us_2:cp :      4.90s CPU      4.94s WALL (     352 calls)
     regterg      :   3135.02s CPU   3155.59s WALL (     160 calls)

     Called by *egterg:
     rdiaghg      :     57.56s CPU     58.14s WALL (    1278 calls)
     h_psi        :   1282.27s CPU   1296.36s WALL (    1308 calls)
     s_psi        :    447.78s CPU    448.49s WALL (    1308 calls)
     g_psi        :      0.97s CPU      0.98s WALL (    1146 calls)

     Called by h_psi:
     h_psi:calbec :    570.65s CPU    571.78s WALL (    1308 calls)
     vloc_psi     :    257.29s CPU    269.46s WALL (    1308 calls)
     add_vuspsi   :    452.28s CPU    453.07s WALL (    1308 calls)

     General routines
     calbec       :    948.28s CPU    950.07s WALL (    1588 calls)
     fft          :     38.98s CPU     40.02s WALL (    1664 calls)
     ffts         :      0.50s CPU      0.55s WALL (      80 calls)
     fftw         :    261.09s CPU    273.14s WALL (   84744 calls)

     Parallel routines

     PWSCF        :      1h11m CPU      1h12m WALL


   This run was terminated on:   3:42:57   6Jun2023            

=------------------------------------------------------------------------------=
   JOB DONE.
=------------------------------------------------------------------------------=
