
     Program PWSCF v.7.2 starts on 11Jun2023 at 13:30:11 

     This program is part of the open-source Quantum ESPRESSO suite
     for quantum simulation of materials; please cite
         "P. Giannozzi et al., J. Phys.:Condens. Matter 21 395502 (2009);
         "P. Giannozzi et al., J. Phys.:Condens. Matter 29 465901 (2017);
         "P. Giannozzi et al., J. Chem. Phys. 152 154105 (2020);
          URL http://www.quantum-espresso.org", 
     in publications or presentations arising from this work. More details at
     http://www.quantum-espresso.org/quote

     Parallel version (MPI), running on    12 processors

     MPI processes distributed on     1 nodes
     75841 MiB available memory on the printing compute node when the environment starts

     Reading input from md_data/md_Hf5Nb2Ta10Zr5H_20steps_50eV_incident0_polar0.in
Warning: card &CELL ignored
Warning: card / ignored

     Current dimensions of program PWSCF are:
     Max number of different atomic species (ntypx) = 10
     Max number of k-points (npk) =  40000
     Max angular momentum in pseudopotentials (lmaxx) =  4

     File outdir/pwscf.update deleted, as requested

     File outdir/pwscf.md deleted, as requested

     gamma-point specific algorithms are used

     R & G space division:  proc/nbgrp/npool/nimage =      12
     Subspace diagonalization in iterative solution of the eigenvalue problem:
     one sub-group per band group will be used
     custom distributed-memory algorithm (size of sub-group:  2*  2 procs)


     Parallelization info
     --------------------
     sticks:   dense  smooth     PW     G-vecs:    dense   smooth      PW
     Min         920     920    228                82164    82164   10260
     Max         922     922    230                82170    82170   10270
     Sum       11057   11057   2753               986005   986005  123175

     Using Slab Decomposition



     bravais-lattice index     =            0
     lattice parameter (alat)  =      17.6500  a.u.
     unit-cell volume          =    5552.8853 (a.u.)^3
     number of atoms/cell      =           23
     number of atomic types    =            5
     number of electrons       =       277.00
     number of Kohn-Sham states=          167
     kinetic-energy cutoff     =     120.0000  Ry
     charge density cutoff     =     480.0000  Ry
     scf convergence threshold =      1.0E-03
     mixing beta               =       0.7000
     number of iterations used =            8  TF        mixing
     energy convergence thresh.=      0.0E+00
     force convergence thresh. =      0.0E+00
     Exchange-correlation=  SLA  PW   PBX  PBC
                           (   1   4   3   4   0   0   0)
     nstep                     =           20


     celldm(1)=  17.650041  celldm(2)=   0.000000  celldm(3)=   0.000000
     celldm(4)=   0.000000  celldm(5)=   0.000000  celldm(6)=   0.000000

     crystal axes: (cart. coord. in units of alat)
               a(1) = (   1.000000   0.000000   0.000000 )  
               a(2) = (   0.000000   0.929336   0.000000 )  
               a(3) = (   0.000000   0.000000   1.086698 )  

     reciprocal axes: (cart. coord. in units 2 pi/alat)
               b(1) = (  1.000000  0.000000  0.000000 )  
               b(2) = (  0.000000  1.076037  0.000000 )  
               b(3) = (  0.000000  0.000000  0.920219 )  


     PseudoPot. # 1 for Hf read from file:
     q-e/pseudo/hf_pbe_v1.uspp.F.UPF
     MD5 check sum: 8ee9378dfe14276e333edf04c5e4aa26
     Pseudo is Ultrasoft + core correction, Zval = 12.0
     Generated by new atomic code, or converted to UPF format
     Using radial grid of  921 points,  8 beta functions with: 
                l(1) =   0
                l(2) =   0
                l(3) =   0
                l(4) =   1
                l(5) =   1
                l(6) =   2
                l(7) =   2
                l(8) =   3
     Q(r) pseudized with  6 coefficients,  rinner =    1.200   1.200   1.200
                                                       1.200   1.200   1.200
                                                       1.200

     PseudoPot. # 2 for Nb read from file:
     q-e/pseudo/nb_pbe_v1.uspp.F.UPF
     MD5 check sum: 573aab8a2fa660278ed4a62cd769473f
     Pseudo is Ultrasoft + core correction, Zval = 13.0
     Generated by new atomic code, or converted to UPF format
     Using radial grid of  887 points,  6 beta functions with: 
                l(1) =   0
                l(2) =   0
                l(3) =   1
                l(4) =   1
                l(5) =   2
                l(6) =   2
     Q(r) pseudized with  6 coefficients,  rinner =    1.000   1.000   1.000
                                                       1.000   1.000

     PseudoPot. # 3 for Ta read from file:
     q-e/pseudo/ta_pbe_v1.uspp.F.UPF
     MD5 check sum: f8bbe9446314a3b8ea5d9f3e3836c939
     Pseudo is Ultrasoft + core correction, Zval = 13.0
     Generated by new atomic code, or converted to UPF format
     Using radial grid of  921 points,  7 beta functions with: 
                l(1) =   0
                l(2) =   0
                l(3) =   1
                l(4) =   1
                l(5) =   2
                l(6) =   2
                l(7) =   3
     Q(r) pseudized with  6 coefficients,  rinner =    1.300   1.300   1.300
                                                       1.300   1.300   1.300
                                                       1.300

     PseudoPot. # 4 for Zr read from file:
     q-e/pseudo/zr_pbe_v1.uspp.F.UPF
     MD5 check sum: 5db81b1e868ab7776c4564c113de050b
     Pseudo is Ultrasoft + core correction, Zval = 12.0
     Generated by new atomic code, or converted to UPF format
     Using radial grid of  887 points,  6 beta functions with: 
                l(1) =   0
                l(2) =   0
                l(3) =   1
                l(4) =   1
                l(5) =   2
                l(6) =   2
     Q(r) pseudized with  6 coefficients,  rinner =    1.200   1.200   1.200
                                                       1.200   1.200

     PseudoPot. # 5 for H  read from file:
     q-e/pseudo/h_pbe_v1.4.uspp.F.UPF
     MD5 check sum: 761ae9a214b05c3daf00ab9f6b793d6f
     Pseudo is Ultrasoft, Zval =  1.0
     Generated by new atomic code, or converted to UPF format
     Using radial grid of  615 points,  2 beta functions with: 
                l(1) =   0
                l(2) =   0
     Q(r) pseudized with  8 coefficients,  rinner =    0.700

     atomic species   valence    mass     pseudopotential
        Hf            12.00   178.49000     Hf( 1.00)
        Nb            13.00    92.90637     Nb( 1.00)
        Ta            13.00   180.94788     Ta( 1.00)
        Zr            12.00    91.22400     Zr( 1.00)
        H              1.00     2.01400     H ( 1.00)

     Starting magnetic structure 
     atomic species   magnetization
        Hf           0.000
        Nb           0.000
        Ta           0.000
        Zr           0.000
        H            0.000

     No symmetry found



   Cartesian axes

     site n.     atom                  positions (alat units)
         1           Hf  tau(   1) = (   0.2858672   0.3026898   0.7070626  )
         2           Hf  tau(   2) = (   0.1341532   0.1377178   0.5415917  )
         3           Hf  tau(   3) = (   0.1344204   0.7911996   0.5447610  )
         4           Hf  tau(   4) = (   0.4375813   0.1377178   0.5415917  )
         5           Hf  tau(   5) = (   0.4373140   0.7911996   0.5447610  )
         6           Nb  tau(   6) = (   0.2858672   0.2994572   0.3764008  )
         7           Nb  tau(   7) = (   0.2858672   0.6291626   0.7103852  )
         8           Ta  tau(   8) = (   0.1294832   0.4647675   0.5429471  )
         9           Ta  tau(   9) = (   0.4422513   0.4647675   0.5429471  )
        10           Ta  tau(  10) = (   0.1399628   0.1406984   0.2204260  )
        11           Ta  tau(  11) = (   0.1394848   0.1400847   0.8666573  )
        12           Ta  tau(  12) = (   0.1396156   0.7897030   0.2190832  )
        13           Ta  tau(  13) = (   0.1400119   0.7885528   0.8657390  )
        14           Ta  tau(  14) = (   0.4317717   0.1406984   0.2204260  )
        15           Ta  tau(  15) = (   0.4322496   0.1400847   0.8666573  )
        16           Ta  tau(  16) = (   0.4321189   0.7897030   0.2190832  )
        17           Ta  tau(  17) = (   0.4317226   0.7885528   0.8657390  )
        18           Zr  tau(  18) = (   0.2858672   0.6280820   0.3776642  )
        19           Zr  tau(  19) = (   0.1331729   0.4627493   0.2141328  )
        20           Zr  tau(  20) = (   0.1328036   0.4661802   0.8725649  )
        21           Zr  tau(  21) = (   0.4385616   0.4627493   0.2141328  )
        22           Zr  tau(  22) = (   0.4389309   0.4661802   0.8725649  )
        23           H   tau(  23) = (   0.6563841   0.4646681   0.5430600  )

     number of k points=     1  Gaussian smearing, width (Ry)=  0.0220
                       cart. coord. in units 2pi/alat
        k(    1) = (   0.0000000   0.0000000   0.0000000), wk =   1.0000000

     Dense  grid:   493003 G-vectors     FFT dimensions: ( 125, 120, 135)

     Estimated max dynamical RAM per process >     409.34 MB

     Estimated total dynamical RAM >       4.80 GB

     Check: negative core charge=   -0.000002
     Generating pointlists ...
     new r_m :   0.1117 (alat units)  1.9717 (a.u.) for type    1
     new r_m :   0.1098 (alat units)  1.9374 (a.u.) for type    2
     new r_m :   0.0883 (alat units)  1.5590 (a.u.) for type    3
     new r_m :   0.1112 (alat units)  1.9625 (a.u.) for type    4
     new r_m :   0.0883 (alat units)  1.5590 (a.u.) for type    5

     Initial potential from superposition of free atoms

     starting charge     266.9726, renormalised to     277.0000

     negative rho (up, down):  9.217E-01 9.217E-01
     Starting wfcs are  287 randomized atomic wfcs

     total cpu time spent up to now is       30.5 secs

     Self-consistent Calculation

     iteration #  1     ecut=   120.00 Ry     beta= 0.70
     Davidson diagonalization with overlap
     ethr =  1.00E-02,  avg # of iterations =  2.0

     negative rho (up, down):  9.987E-01 9.978E-01

     total cpu time spent up to now is       81.5 secs

     total energy              =   -2930.53625223 Ry
     estimated scf accuracy    <     277.18612660 Ry

     total magnetization       =     0.00 Bohr mag/cell
     absolute magnetization    =     0.07 Bohr mag/cell

     iteration #  2     ecut=   120.00 Ry     beta= 0.70
     Davidson diagonalization with overlap
     ethr =  1.00E-02,  avg # of iterations =  5.0

     negative rho (up, down):  9.711E-01 9.724E-01

     total cpu time spent up to now is      133.1 secs

     total energy              =   -2942.22554154 Ry
     estimated scf accuracy    <      29.97757383 Ry

     total magnetization       =     0.14 Bohr mag/cell
     absolute magnetization    =     0.31 Bohr mag/cell

     iteration #  3     ecut=   120.00 Ry     beta= 0.70
     Davidson diagonalization with overlap
     ethr =  1.00E-02,  avg # of iterations =  2.5

     negative rho (up, down):  1.012E+00 1.010E+00

     total cpu time spent up to now is      179.7 secs

     total energy              =   -2942.68054966 Ry
     estimated scf accuracy    <      12.73842419 Ry

     total magnetization       =    -0.10 Bohr mag/cell
     absolute magnetization    =     0.47 Bohr mag/cell

     iteration #  4     ecut=   120.00 Ry     beta= 0.70
     Davidson diagonalization with overlap
     ethr =  4.60E-03,  avg # of iterations =  3.0

     negative rho (up, down):  1.020E+00 1.019E+00

     total cpu time spent up to now is      223.7 secs

     total energy              =   -2942.91174317 Ry
     estimated scf accuracy    <       3.29982885 Ry

     total magnetization       =    -0.14 Bohr mag/cell
     absolute magnetization    =     0.51 Bohr mag/cell

     iteration #  5     ecut=   120.00 Ry     beta= 0.70
     Davidson diagonalization with overlap
     ethr =  1.19E-03,  avg # of iterations =  8.0

     negative rho (up, down):  9.945E-01 9.942E-01

     total cpu time spent up to now is      278.3 secs

     total energy              =   -2943.04786862 Ry
     estimated scf accuracy    <       1.63350757 Ry

     total magnetization       =    -0.10 Bohr mag/cell
     absolute magnetization    =     0.29 Bohr mag/cell

     iteration #  6     ecut=   120.00 Ry     beta= 0.70
     Davidson diagonalization with overlap
     ethr =  5.90E-04,  avg # of iterations =  2.0

     negative rho (up, down):  9.806E-01 9.807E-01

     total cpu time spent up to now is      321.2 secs

     total energy              =   -2943.09196060 Ry
     estimated scf accuracy    <       1.07761083 Ry

     total magnetization       =    -0.04 Bohr mag/cell
     absolute magnetization    =     0.19 Bohr mag/cell

     iteration #  7     ecut=   120.00 Ry     beta= 0.70
     Davidson diagonalization with overlap
     ethr =  3.89E-04,  avg # of iterations =  1.5

     negative rho (up, down):  9.513E-01 9.509E-01

     total cpu time spent up to now is      361.8 secs

     total energy              =   -2943.03805422 Ry
     estimated scf accuracy    <       0.41292995 Ry

     total magnetization       =    -0.04 Bohr mag/cell
     absolute magnetization    =     0.18 Bohr mag/cell

     iteration #  8     ecut=   120.00 Ry     beta= 0.70
     Davidson diagonalization with overlap
     ethr =  1.49E-04,  avg # of iterations =  8.5

     negative rho (up, down):  9.234E-01 9.233E-01

     total cpu time spent up to now is      407.1 secs

     total energy              =   -2943.04017808 Ry
     estimated scf accuracy    <       0.22322123 Ry

     total magnetization       =    -0.05 Bohr mag/cell
     absolute magnetization    =     0.15 Bohr mag/cell

     iteration #  9     ecut=   120.00 Ry     beta= 0.70
     Davidson diagonalization with overlap
     ethr =  8.06E-05,  avg # of iterations =  3.0

     negative rho (up, down):  9.086E-01 9.085E-01

     total cpu time spent up to now is      449.5 secs

     total energy              =   -2943.03518632 Ry
     estimated scf accuracy    <       0.06110387 Ry

     total magnetization       =    -0.02 Bohr mag/cell
     absolute magnetization    =     0.11 Bohr mag/cell

     iteration # 10     ecut=   120.00 Ry     beta= 0.70
     Davidson diagonalization with overlap
     ethr =  2.21E-05,  avg # of iterations = 15.5

     negative rho (up, down):  9.085E-01 9.085E-01

     total cpu time spent up to now is      508.8 secs

     total energy              =   -2943.04156394 Ry
     estimated scf accuracy    <       0.03414112 Ry

     total magnetization       =    -0.00 Bohr mag/cell
     absolute magnetization    =     0.08 Bohr mag/cell

     iteration # 11     ecut=   120.00 Ry     beta= 0.70
     Davidson diagonalization with overlap
     ethr =  1.23E-05,  avg # of iterations =  2.0

     negative rho (up, down):  9.092E-01 9.092E-01

     total cpu time spent up to now is      552.0 secs

     total energy              =   -2943.04473484 Ry
     estimated scf accuracy    <       0.00973257 Ry

     total magnetization       =    -0.00 Bohr mag/cell
     absolute magnetization    =     0.06 Bohr mag/cell

     iteration # 12     ecut=   120.00 Ry     beta= 0.70
     Davidson diagonalization with overlap
     ethr =  3.51E-06,  avg # of iterations =  4.0

     negative rho (up, down):  9.094E-01 9.094E-01

     total cpu time spent up to now is      601.3 secs

     total energy              =   -2943.04758464 Ry
     estimated scf accuracy    <       0.00221881 Ry

     total magnetization       =    -0.00 Bohr mag/cell
     absolute magnetization    =     0.05 Bohr mag/cell

     iteration # 13     ecut=   120.00 Ry     beta= 0.70
     Davidson diagonalization with overlap
     ethr =  8.01E-07,  avg # of iterations =  5.0

     negative rho (up, down):  9.090E-01 9.090E-01

     Magnetic moment per site  (integrated on atomic sphere of radius R)
     atom   1 (R=0.112)  charge=  9.4618  magn= -0.0002
     atom   2 (R=0.112)  charge=  9.0590  magn=  0.0000
     atom   3 (R=0.112)  charge=  9.0585  magn= -0.0002
     atom   4 (R=0.112)  charge=  9.0551  magn=  0.0001
     atom   5 (R=0.112)  charge=  9.0550  magn= -0.0000
     atom   6 (R=0.110)  charge= 10.3473  magn=  0.0003
     atom   7 (R=0.110)  charge= 10.3480  magn= -0.0001
     atom   8 (R=0.088)  charge=  8.1257  magn=  0.0000
     atom   9 (R=0.088)  charge=  8.1091  magn= -0.0001
     atom  10 (R=0.088)  charge=  8.1059  magn= -0.0005
     atom  11 (R=0.088)  charge=  8.1040  magn=  0.0009
     atom  12 (R=0.088)  charge=  8.1067  magn=  0.0000
     atom  13 (R=0.088)  charge=  8.1055  magn= -0.0002
     atom  14 (R=0.088)  charge=  8.1063  magn= -0.0001
     atom  15 (R=0.088)  charge=  8.1037  magn=  0.0006
     atom  16 (R=0.088)  charge=  8.1076  magn= -0.0001
     atom  17 (R=0.088)  charge=  8.1061  magn=  0.0004
     atom  18 (R=0.111)  charge=  9.4534  magn=  0.0000
     atom  19 (R=0.111)  charge=  9.0026  magn= -0.0031
     atom  20 (R=0.111)  charge=  8.9987  magn=  0.0021
     atom  21 (R=0.111)  charge=  9.0011  magn= -0.0026
     atom  22 (R=0.111)  charge=  8.9963  magn=  0.0016
     atom  23 (R=0.088)  charge=  0.9677  magn=  0.0001

     total cpu time spent up to now is      648.5 secs

     End of self-consistent calculation

 ------ SPIN UP ------------


          k = 0.0000 0.0000 0.0000 ( 61588 PWs)   bands (ev):

   -60.8061 -60.8017 -60.7612 -60.7566 -60.7284 -60.7198 -60.6844 -60.6757
   -60.5253 -60.3895 -54.4364 -54.3747 -54.3123 -54.2510 -52.7156 -46.2875
   -46.2765 -41.6851 -41.6664 -41.5760 -41.5733 -39.8170 -27.8085 -27.8018
   -27.7249 -27.7136 -27.6183 -27.6143 -27.4929 -27.4845 -27.3769 -27.3584
   -27.3052 -27.2927 -27.2854 -27.2599 -27.2492 -27.1950 -27.1867 -27.1546
   -27.1083 -27.0833 -27.0106 -26.9848 -26.9787 -26.9721 -26.9620 -26.9108
   -26.9093 -26.8844 -26.8791 -26.8591 -24.2152 -24.0032 -23.6971 -23.6146
   -23.3563 -23.2190 -23.1931 -23.0936 -22.9726 -22.8991 -22.8861 -22.6664
   -22.5243 -22.4761 -22.4258 -22.3767 -22.3161 -22.2618 -21.7826 -21.7163
   -21.6445 -20.2447 -19.9729 -19.8932 -19.8644 -19.6565 -19.6394 -19.6217
   -19.6096 -19.6046 -19.5627 -19.4225 -19.4034 -18.1633 -17.9622 -17.8409
     1.4718   2.9023   3.0979   3.1458   3.2754   3.4485   3.5151   3.6444
     3.7206   3.8869   3.8907   4.0967   4.2818   4.4838   4.6431   4.6766
     4.7505   4.9806   4.9987   5.0257   5.1038   5.2341   5.2796   5.2874
     5.4141   5.5339   5.5485   5.6935   5.7046   5.7310   5.7413   5.7641
     5.9028   6.0943   6.1781   6.2040   6.2395   6.3071   6.3367   6.3621
     6.5349   6.5824   6.6391   6.6627   6.7571   6.9076   6.9776   7.0098
     7.0722   7.1229   7.2431   7.2633   7.2958   7.3965   7.5338   7.5929
     7.6008   7.6465   7.8816   7.8855   8.0560   8.0824   8.0889   8.1895
     8.2604   8.3253   8.3380   8.3598   8.3807   8.5053   8.5993   8.6334
     8.7602   8.8785   8.8846   9.0367   9.0964   9.2113   9.2624

 ------ SPIN DOWN ----------


          k = 0.0000 0.0000 0.0000 ( 61588 PWs)   bands (ev):

   -60.8064 -60.8014 -60.7614 -60.7563 -60.7285 -60.7191 -60.6845 -60.6750
   -60.5252 -60.3896 -54.4364 -54.3748 -54.3123 -54.2511 -52.7159 -46.2873
   -46.2766 -41.6876 -41.6648 -41.5785 -41.5715 -39.8171 -27.8087 -27.8013
   -27.7251 -27.7130 -27.6184 -27.6141 -27.4923 -27.4841 -27.3769 -27.3583
   -27.3052 -27.2930 -27.2851 -27.2597 -27.2488 -27.1950 -27.1860 -27.1544
   -27.1081 -27.0833 -27.0105 -26.9850 -26.9784 -26.9717 -26.9620 -26.9105
   -26.9091 -26.8846 -26.8783 -26.8592 -24.2152 -24.0033 -23.6971 -23.6146
   -23.3563 -23.2190 -23.1931 -23.0936 -22.9726 -22.8992 -22.8862 -22.6665
   -22.5243 -22.4761 -22.4258 -22.3766 -22.3161 -22.2618 -21.7827 -21.7165
   -21.6448 -20.2479 -19.9698 -19.8961 -19.8671 -19.6580 -19.6386 -19.6222
   -19.6097 -19.6034 -19.5611 -19.4264 -19.4008 -18.1633 -17.9626 -17.8413
     1.4718   2.9022   3.0979   3.1459   3.2754   3.4486   3.5151   3.6442
     3.7205   3.8867   3.8907   4.0966   4.2820   4.4838   4.6429   4.6767
     4.7505   4.9807   4.9989   5.0255   5.1034   5.2340   5.2796   5.2875
     5.4143   5.5337   5.5483   5.6936   5.7042   5.7312   5.7412   5.7640
     5.9029   6.0944   6.1781   6.2039   6.2395   6.3072   6.3363   6.3619
     6.5349   6.5826   6.6393   6.6627   6.7570   6.9073   6.9772   7.0091
     7.0721   7.1227   7.2436   7.2628   7.2961   7.3956   7.5332   7.5930
     7.6007   7.6465   7.8817   7.8855   8.0556   8.0825   8.0890   8.1890
     8.2606   8.3253   8.3378   8.3597   8.3805   8.5052   8.5991   8.6334
     8.7600   8.8782   8.8846   9.0368   9.0961   9.2116   9.2630

     the Fermi energy is     7.2091 ev

!    total energy              =   -2943.04881085 Ry
     estimated scf accuracy    <       0.00055501 Ry
     smearing contrib. (-TS)   =      -0.09722237 Ry
     internal energy E=F+TS    =   -2942.95158848 Ry

     total magnetization       =    -0.00 Bohr mag/cell
     absolute magnetization    =     0.04 Bohr mag/cell

     convergence has been achieved in  13 iterations

     negative rho (up, down):  9.090E-01 9.090E-01

     Forces acting on atoms (cartesian axes, Ry/au):

     atom    1 type  1   force =    -0.00818062   -0.02711140    0.01299090
     atom    2 type  1   force =    -0.11503221   -0.01840821   -0.00254442
     atom    3 type  1   force =    -0.11424347    0.01553198    0.00246984
     atom    4 type  1   force =     0.11675219   -0.01755741   -0.00395172
     atom    5 type  1   force =     0.11671366    0.01484506    0.00351790
     atom    6 type  2   force =    -0.00838894   -0.01501681    0.00929169
     atom    7 type  2   force =    -0.00847467    0.01342985   -0.00838477
     atom    8 type  3   force =    -0.12681571    0.00400317   -0.00398451
     atom    9 type  3   force =     0.18175164    0.00387789   -0.00465122
     atom   10 type  3   force =    -0.02348442   -0.03150503   -0.06074803
     atom   11 type  3   force =    -0.02067493   -0.03726999    0.05711194
     atom   12 type  3   force =    -0.01840466    0.03674006   -0.05529373
     atom   13 type  3   force =    -0.01934202    0.03119111    0.06158469
     atom   14 type  3   force =     0.02398876   -0.03153623   -0.05908813
     atom   15 type  3   force =     0.02017467   -0.03578253    0.05491981
     atom   16 type  3   force =     0.01851266    0.03577710   -0.05288270
     atom   17 type  3   force =     0.01917534    0.03059456    0.05960216
     atom   18 type  4   force =    -0.00913676    0.02526799   -0.01554686
     atom   19 type  4   force =    -0.13002377   -0.00441066   -0.11500362
     atom   20 type  4   force =    -0.13433241    0.00589679    0.11772558
     atom   21 type  4   force =     0.13252000   -0.00546216   -0.11660503
     atom   22 type  4   force =     0.13649933    0.00694434    0.11877168
     atom   23 type  5   force =    -0.02955364   -0.00003946    0.00069854
     The non-local contrib.  to forces
     atom    1 type  1   force =    -0.00846745   -0.02080428    0.03628790
     atom    2 type  1   force =    -0.24593036   -0.16510061    0.01771681
     atom    3 type  1   force =    -0.23902569    0.15988768   -0.02655767
     atom    4 type  1   force =     0.26114478   -0.15879330    0.01642638
     atom    5 type  1   force =     0.25521367    0.15375948   -0.02595114
     atom    6 type  2   force =    -0.00989131   -0.04767077   -0.06779881
     atom    7 type  2   force =    -0.01100823    0.05874524    0.06029590
     atom    8 type  3   force =    -0.28237315    0.00110573   -0.00507096
     atom    9 type  3   force =     0.02020073    0.00206180   -0.00648501
     atom   10 type  3   force =    -0.21284009    0.00475583   -0.20899735
     atom   11 type  3   force =    -0.21832224    0.00593248    0.19584112
     atom   12 type  3   force =    -0.20038234   -0.01836006   -0.18133917
     atom   13 type  3   force =    -0.20894685   -0.00404448    0.20873849
     atom   14 type  3   force =     0.21347435    0.00353197   -0.21026064
     atom   15 type  3   force =     0.21941291    0.00751428    0.19737053
     atom   16 type  3   force =     0.20110546   -0.01870944   -0.18332424
     atom   17 type  3   force =     0.20817326   -0.00357890    0.21022260
     atom   18 type  4   force =    -0.01050864    0.05094641   -0.06559430
     atom   19 type  4   force =     0.06354854    0.00993430    0.06718443
     atom   20 type  4   force =     0.05797055   -0.01289103   -0.06191316
     atom   21 type  4   force =    -0.05981758    0.00928011    0.07852605
     atom   22 type  4   force =    -0.05509757   -0.01208858   -0.07316005
     atom   23 type  5   force =    -0.04359390    0.00002466    0.00005200
     The ionic contribution  to forces
     atom    1 type  1   force =    -0.20723043   -4.68228043   14.09728394
     atom    2 type  1   force =   -39.63187116   -6.19103168    0.77963869
     atom    3 type  1   force =   -39.60453236    6.17774612   -0.71356529
     atom    4 type  1   force =    39.41483368   -6.37739708    0.77858452
     atom    5 type  1   force =    39.38669159    6.36441168   -0.71234216
     atom    6 type  2   force =    -0.22010595   -3.64776250  -14.00124731
     atom    7 type  2   force =    -0.22011622    3.68355651   14.03418086
     atom    8 type  3   force =   -51.99616743    0.07189689   -0.06498632
     atom    9 type  3   force =    50.33805845    0.07261935   -0.06581169
     atom   10 type  3   force =   -36.02815752   -2.12600092  -23.10769883
     atom   11 type  3   force =   -35.10231898   -0.87880982   22.11189968
     atom   12 type  3   force =   -35.21225149    0.82818804  -22.16102098
     atom   13 type  3   force =   -36.00226088    2.21254090   23.09053469
     atom   14 type  3   force =    35.92770831   -2.17963506  -23.17829580
     atom   15 type  3   force =    35.00276781   -0.93204678   22.18219868
     atom   16 type  3   force =    35.11292036    0.88109495  -22.23099710
     atom   17 type  3   force =    35.90177180    2.26617159   23.16112887
     atom   18 type  4   force =    -0.20527246    4.44960551  -13.95530340
     atom   19 type  4   force =   -35.85450335    0.95648655  -25.59506919
     atom   20 type  4   force =   -35.83739495   -0.95292704   25.57306801
     atom   21 type  4   force =    35.65497880    0.95524068  -25.80381347
     atom   22 type  4   force =    35.63899643   -0.95194789   25.78152383
     atom   23 type  5   force =     3.74345595    0.00028042    0.00010976
     The local contribution  to forces
     atom    1 type  1   force =     0.20768401    4.67529332  -14.11753261
     atom    2 type  1   force =    39.78471526    6.33360872   -0.80301567
     atom    3 type  1   force =    39.75115183   -6.31945569    0.74199807
     atom    4 type  1   force =   -39.58073481    6.51577055   -0.80425125
     atom    5 type  1   force =   -39.54546616   -6.50273099    0.74201701
     atom    6 type  2   force =     0.22609717    3.68302727   14.05938277
     atom    7 type  2   force =     0.22721486   -3.72550152  -14.09805045
     atom    8 type  3   force =    52.18770685   -0.06831040    0.05981067
     atom    9 type  3   force =   -50.18394732   -0.06947125    0.06046893
     atom   10 type  3   force =    36.24248329    2.08406802   23.26714869
     atom   11 type  3   force =    35.32688265    0.82596316  -22.26327489
     atom   12 type  3   force =    35.42067222   -0.76715988   22.29719608
     atom   13 type  3   force =    36.21753714   -2.16794695  -23.24980322
     atom   14 type  3   force =   -36.13996286    2.13884907   23.33846636
     atom   15 type  3   force =   -35.22970213    0.87631836  -22.33358640
     atom   16 type  3   force =   -35.31926152   -0.81897768   22.36820984
     atom   17 type  3   force =   -36.11463584   -2.22460762  -23.32203324
     atom   18 type  4   force =     0.21013607   -4.47760506   13.98722888
     atom   19 type  4   force =    35.67503014   -0.97105456   25.41710629
     atom   20 type  4   force =    35.65506175    0.97101077  -25.39552995
     atom   21 type  4   force =   -35.47275845   -0.97080245   25.61544812
     atom   22 type  4   force =   -35.45467951    0.97269839  -25.59376670
     atom   23 type  5   force =    -3.72976880   -0.00005785   -0.00037442
     The core correction contribution to forces
     atom    1 type  1   force =     0.00120196    0.00104328   -0.00054225
     atom    2 type  1   force =    -0.01255187   -0.00210738    0.00068046
     atom    3 type  1   force =    -0.01267743    0.00289116   -0.00133331
     atom    4 type  1   force =     0.01298414   -0.00289663    0.00083940
     atom    5 type  1   force =     0.01305391    0.00374477   -0.00156579
     atom    6 type  2   force =     0.00026747    0.00206436    0.00261437
     atom    7 type  2   force =     0.00030937   -0.00265254   -0.00214860
     atom    8 type  3   force =    -0.03362297    0.00037359   -0.00047875
     atom    9 type  3   force =     0.00745353    0.00025255   -0.00045214
     atom   10 type  3   force =    -0.02230315    0.00943665   -0.01652623
     atom   11 type  3   force =    -0.02389510    0.00957938    0.01706865
     atom   12 type  3   force =    -0.02227619   -0.00949224   -0.01606310
     atom   13 type  3   force =    -0.02219534   -0.00910129    0.01713400
     atom   14 type  3   force =     0.02304273    0.01064432   -0.01483588
     atom   15 type  3   force =     0.02424263    0.01150216    0.01522482
     atom   16 type  3   force =     0.02260231   -0.01131538   -0.01412898
     atom   17 type  3   force =     0.02263262   -0.01039890    0.01542899
     atom   18 type  4   force =     0.00044218   -0.00265041    0.00295688
     atom   19 type  4   force =    -0.00997050   -0.00000313   -0.00924407
     atom   20 type  4   force =    -0.00983081    0.00030816    0.00906176
     atom   21 type  4   force =     0.01009201    0.00003708   -0.00977640
     atom   22 type  4   force =     0.00997022    0.00027015    0.00958089
     atom   23 type  5   force =     0.00000000    0.00000000    0.00000000
     The Hubbard contrib.    to forces
     atom    1 type  1   force =     0.00000000    0.00000000    0.00000000
     atom    2 type  1   force =     0.00000000    0.00000000    0.00000000
     atom    3 type  1   force =     0.00000000    0.00000000    0.00000000
     atom    4 type  1   force =     0.00000000    0.00000000    0.00000000
     atom    5 type  1   force =     0.00000000    0.00000000    0.00000000
     atom    6 type  2   force =     0.00000000    0.00000000    0.00000000
     atom    7 type  2   force =     0.00000000    0.00000000    0.00000000
     atom    8 type  3   force =     0.00000000    0.00000000    0.00000000
     atom    9 type  3   force =     0.00000000    0.00000000    0.00000000
     atom   10 type  3   force =     0.00000000    0.00000000    0.00000000
     atom   11 type  3   force =     0.00000000    0.00000000    0.00000000
     atom   12 type  3   force =     0.00000000    0.00000000    0.00000000
     atom   13 type  3   force =     0.00000000    0.00000000    0.00000000
     atom   14 type  3   force =     0.00000000    0.00000000    0.00000000
     atom   15 type  3   force =     0.00000000    0.00000000    0.00000000
     atom   16 type  3   force =     0.00000000    0.00000000    0.00000000
     atom   17 type  3   force =     0.00000000    0.00000000    0.00000000
     atom   18 type  4   force =     0.00000000    0.00000000    0.00000000
     atom   19 type  4   force =     0.00000000    0.00000000    0.00000000
     atom   20 type  4   force =     0.00000000    0.00000000    0.00000000
     atom   21 type  4   force =     0.00000000    0.00000000    0.00000000
     atom   22 type  4   force =     0.00000000    0.00000000    0.00000000
     atom   23 type  5   force =     0.00000000    0.00000000    0.00000000
     The SCF correction term to forces
     atom    1 type  1   force =    -0.00000000   -0.00000000   -0.00000000
     atom    2 type  1   force =    -0.00000000    0.00000000    0.00000000
     atom    3 type  1   force =    -0.00000000   -0.00000000    0.00000000
     atom    4 type  1   force =     0.00000000    0.00000000    0.00000000
     atom    5 type  1   force =     0.00000000   -0.00000000    0.00000000
     atom    6 type  2   force =    -0.00000000   -0.00000000    0.00000000
     atom    7 type  2   force =    -0.00000000   -0.00000000   -0.00000000
     atom    8 type  3   force =    -0.00000000   -0.00000000    0.00000000
     atom    9 type  3   force =     0.00000000   -0.00000000    0.00000000
     atom   10 type  3   force =    -0.00242511   -0.00380471    0.00497420
     atom   11 type  3   force =    -0.00277941    0.00002472   -0.00477411
     atom   12 type  3   force =    -0.00392503    0.00352411    0.00558195
     atom   13 type  3   force =    -0.00323424   -0.00029714   -0.00537076
     atom   14 type  3   force =    -0.00003194   -0.00496662    0.00548634
     atom   15 type  3   force =     0.00369529    0.00088935   -0.00663931
     atom   16 type  3   force =     0.00138790    0.00364455    0.00700629
     atom   17 type  3   force =     0.00147535    0.00296830   -0.00549655
     atom   18 type  4   force =    -0.00369207    0.00493145    0.01481358
     atom   19 type  4   force =    -0.00388676    0.00018610    0.00466742
     atom   20 type  4   force =     0.00010288    0.00035583   -0.00731257
     atom   21 type  4   force =     0.00026706    0.00074233    0.00265916
     atom   22 type  4   force =    -0.00244840   -0.00202781   -0.00575778
     atom   23 type  5   force =     0.00059495   -0.00032678    0.00055972

     Total force =     0.408830     Total SCF correction =     0.028150

     Molecular Dynamics Calculation

     Starting temperature  =   300.00 K

     temperature is set once at start

     mass Hf               =   178.49
     mass Nb               =    92.91
     mass Ta               =   180.95
     mass Zr               =    91.22
     mass H                =     2.01
     Time step             =     4.20 a.u.,  0.2032 femto-seconds

     Entering Dynamics:    iteration =     1
                           time      =   0.0002 pico-seconds


ATOMIC_POSITIONS (angstrom)
Hf            2.6699999570        2.8271230292        6.6039642186    0   0   0
Hf            1.2529906802        1.2862841814        5.0584662261    0   0   0
Hf            1.2554868986        7.3898042948        5.0880677674    0   0   0
Hf            4.0870092338        1.2862841814        5.0584662261    0   0   0
Hf            4.0845130154        7.3898042948        5.0880677674    0   0   0
Nb            2.6699999570        2.7969306055        3.5155832167    0   0   0
Nb            2.6699999570        5.8763786763        6.6349979432    0   0   0
Ta            1.2093730560        4.3409278516        5.0711258323    0   0   0
Ta            4.1306268580        4.3409278516        5.0711258323    0   0   0
Ta            1.3072520195        1.3141216978        2.0587773909
Ta            1.3027877291        1.3083900813        8.0945808187
Ta            1.3040091012        7.3758271638        2.0462356150
Ta            1.3077102510        7.3650838311        8.0860039636
Ta            4.0327479088        1.3141216969        2.0587774379
Ta            4.0372121707        1.3083901234        8.0945807566
Ta            4.0359908158        7.3758271366        2.0462356832
Ta            4.0322896583        7.3650838142        8.0860039075
Zr            2.6699994441        5.8662872618        3.5273830577
Zr            1.2438273202        4.3220777169        1.9999935443
Zr            1.2403778720        4.3541236155        8.1497621578
Zr            4.0961727340        4.3220776579        1.9999934544
Zr            4.0996221636        4.3541236743        8.1497622165
H             6.0602304133        4.3399998499        5.0721815709


     kinetic energy (Ekin) =           0.91882441 Ry
     temperature           =        6908.13814744 K 
     Ekin + Etot (const)   =       -2942.12998644 Ry

     File outdir/pwscf.msd.dat deleted, as requested

     Writing config-only to output data dir outdir/pwscf.save/
     NEW-OLD atomic charge density approx. for the potential

     Check: negative core charge=   -0.000002

     negative rho (up, down):  9.090E-01 9.090E-01
     Generating pointlists ...
     new r_m :   0.0852 (alat units)  1.5041 (a.u.) for type    3
     new r_m :   0.0852 (alat units)  1.5041 (a.u.) for type    5

     total cpu time spent up to now is      674.8 secs

     Self-consistent Calculation

     iteration #  1     ecut=   120.00 Ry     beta= 0.70
     Davidson diagonalization with overlap
     ethr =  1.00E-06,  avg # of iterations =  8.0

     negative rho (up, down):  9.090E-01 9.090E-01

     total cpu time spent up to now is      744.2 secs

     total energy              =   -2943.04994145 Ry
     estimated scf accuracy    <       0.02241912 Ry

     total magnetization       =    -0.00 Bohr mag/cell
     absolute magnetization    =     0.04 Bohr mag/cell

     iteration #  2     ecut=   120.00 Ry     beta= 0.70
     Davidson diagonalization with overlap
     ethr =  8.09E-06,  avg # of iterations =  2.0

     negative rho (up, down):  9.090E-01 9.090E-01

     total cpu time spent up to now is      787.3 secs

     total energy              =   -2943.05155682 Ry
     estimated scf accuracy    <       0.00775380 Ry

     total magnetization       =    -0.00 Bohr mag/cell
     absolute magnetization    =     0.03 Bohr mag/cell

     iteration #  3     ecut=   120.00 Ry     beta= 0.70
     Davidson diagonalization with overlap
     ethr =  2.80E-06,  avg # of iterations =  1.5

     negative rho (up, down):  9.090E-01 9.090E-01

     Magnetic moment per site  (integrated on atomic sphere of radius R)
     atom   1 (R=0.112)  charge=  9.4637  magn= -0.0001
     atom   2 (R=0.112)  charge=  9.0573  magn=  0.0001
     atom   3 (R=0.112)  charge=  9.0576  magn= -0.0001
     atom   4 (R=0.112)  charge=  9.0542  magn=  0.0000
     atom   5 (R=0.112)  charge=  9.0541  magn= -0.0001
     atom   6 (R=0.110)  charge= 10.3469  magn=  0.0002
     atom   7 (R=0.110)  charge= 10.3491  magn= -0.0001
     atom   8 (R=0.085)  charge=  7.8108  magn=  0.0001
     atom   9 (R=0.085)  charge=  7.7977  magn=  0.0000
     atom  10 (R=0.085)  charge=  7.7909  magn= -0.0004
     atom  11 (R=0.085)  charge=  7.7940  magn=  0.0005
     atom  12 (R=0.085)  charge=  7.7915  magn= -0.0001
     atom  13 (R=0.085)  charge=  7.7951  magn= -0.0001
     atom  14 (R=0.085)  charge=  7.7918  magn= -0.0001
     atom  15 (R=0.085)  charge=  7.7951  magn=  0.0004
     atom  16 (R=0.085)  charge=  7.7923  magn= -0.0002
     atom  17 (R=0.085)  charge=  7.7968  magn=  0.0002
     atom  18 (R=0.111)  charge=  9.4529  magn=  0.0001
     atom  19 (R=0.111)  charge=  8.9979  magn= -0.0023
     atom  20 (R=0.111)  charge=  8.9989  magn=  0.0016
     atom  21 (R=0.111)  charge=  8.9967  magn= -0.0020
     atom  22 (R=0.111)  charge=  8.9968  magn=  0.0014
     atom  23 (R=0.085)  charge=  0.9571  magn=  0.0000

     total cpu time spent up to now is      826.7 secs

     End of self-consistent calculation

 ------ SPIN UP ------------


          k = 0.0000 0.0000 0.0000 ( 61588 PWs)   bands (ev):

   -60.7892 -60.7791 -60.7441 -60.7342 -60.7081 -60.7005 -60.6644 -60.6566
   -60.4936 -60.3125 -54.4095 -54.3466 -54.2854 -54.2228 -52.6973 -46.2650
   -46.2535 -41.6664 -41.6505 -41.5557 -41.5544 -39.8001 -27.7908 -27.7800
   -27.7016 -27.6974 -27.6028 -27.5892 -27.4791 -27.4584 -27.3549 -27.3373
   -27.2750 -27.2728 -27.2646 -27.2422 -27.2264 -27.1753 -27.1651 -27.1248
   -27.0797 -27.0233 -26.9708 -26.9601 -26.9575 -26.9419 -26.9312 -26.8978
   -26.8816 -26.8679 -26.8568 -26.8018 -24.1899 -23.9766 -23.6733 -23.5891
   -23.3312 -23.1934 -23.1681 -23.0684 -22.9473 -22.8740 -22.8599 -22.6403
   -22.5023 -22.4537 -22.4031 -22.3531 -22.2925 -22.2377 -21.7631 -21.6968
   -21.6272 -20.2226 -19.9565 -19.8735 -19.8414 -19.6382 -19.6230 -19.6020
   -19.5899 -19.5852 -19.5439 -19.3996 -19.3861 -18.1458 -17.9442 -17.8232
     1.4865   2.9237   3.0989   3.1498   3.2911   3.4673   3.5350   3.6611
     3.7405   3.9083   3.9113   4.1160   4.2992   4.5067   4.6612   4.6949
     4.7746   4.9718   5.0008   5.0454   5.1190   5.2549   5.2991   5.3046
     5.4250   5.5551   5.5709   5.7168   5.7235   5.7508   5.7670   5.7836
     5.9233   6.1141   6.1944   6.2241   6.2593   6.3321   6.3576   6.3798
     6.5537   6.6036   6.6565   6.6800   6.7731   6.9260   6.9979   7.0274
     7.0856   7.1393   7.2623   7.2775   7.3146   7.4134   7.5528   7.6122
     7.6164   7.6668   7.8992   7.9050   8.0785   8.0904   8.1082   8.2096
     8.2811   8.3445   8.3595   8.3795   8.3988   8.5206   8.6189   8.6527
     8.7782   8.8909   8.9062   9.0533   9.1146   9.2370   9.2835

 ------ SPIN DOWN ----------


          k = 0.0000 0.0000 0.0000 ( 61588 PWs)   bands (ev):

   -60.7890 -60.7794 -60.7439 -60.7344 -60.7076 -60.7007 -60.6640 -60.6568
   -60.4935 -60.3124 -54.4095 -54.3466 -54.2854 -54.2228 -52.6974 -46.2649
   -46.2535 -41.6684 -41.6492 -41.5569 -41.5539 -39.8000 -27.7903 -27.7802
   -27.7011 -27.6976 -27.6025 -27.5896 -27.4785 -27.4587 -27.3547 -27.3374
   -27.2749 -27.2726 -27.2648 -27.2417 -27.2265 -27.1748 -27.1653 -27.1247
   -27.0795 -27.0233 -26.9704 -26.9604 -26.9571 -26.9420 -26.9313 -26.8973
   -26.8818 -26.8673 -26.8572 -26.8018 -24.1899 -23.9766 -23.6733 -23.5891
   -23.3312 -23.1933 -23.1681 -23.0684 -22.9473 -22.8740 -22.8599 -22.6403
   -22.5023 -22.4537 -22.4031 -22.3531 -22.2924 -22.2377 -21.7631 -21.6969
   -21.6273 -20.2249 -19.9540 -19.8760 -19.8436 -19.6397 -19.6223 -19.6018
   -19.5906 -19.5843 -19.5428 -19.4028 -19.3841 -18.1458 -17.9443 -17.8235
     1.4865   2.9236   3.0989   3.1498   3.2911   3.4673   3.5349   3.6610
     3.7405   3.9083   3.9112   4.1159   4.2993   4.5068   4.6612   4.6949
     4.7746   4.9718   5.0009   5.0453   5.1187   5.2548   5.2990   5.3047
     5.4251   5.5550   5.5708   5.7168   5.7235   5.7507   5.7669   5.7835
     5.9234   6.1142   6.1944   6.2240   6.2593   6.3321   6.3575   6.3796
     6.5536   6.6037   6.6566   6.6800   6.7731   6.9259   6.9977   7.0270
     7.0855   7.1392   7.2626   7.2771   7.3146   7.4129   7.5522   7.6119
     7.6166   7.6667   7.8992   7.9051   8.0783   8.0905   8.1082   8.2094
     8.2810   8.3445   8.3594   8.3793   8.3988   8.5206   8.6188   8.6526
     8.7781   8.8908   8.9060   9.0533   9.1145   9.2374   9.2841

     the Fermi energy is     7.2263 ev

!    total energy              =   -2943.05149553 Ry
     estimated scf accuracy    <       0.00073067 Ry
     smearing contrib. (-TS)   =      -0.09715081 Ry
     internal energy E=F+TS    =   -2942.95434472 Ry

     total magnetization       =    -0.00 Bohr mag/cell
     absolute magnetization    =     0.03 Bohr mag/cell

     convergence has been achieved in   3 iterations

     negative rho (up, down):  9.090E-01 9.090E-01

     Forces acting on atoms (cartesian axes, Ry/au):

     atom    1 type  1   force =    -0.00830553   -0.03071201    0.01738736
     atom    2 type  1   force =    -0.12315313   -0.01657101    0.00523554
     atom    3 type  1   force =    -0.12245607    0.01489437    0.00976862
     atom    4 type  1   force =     0.12487975   -0.01614639    0.00496856
     atom    5 type  1   force =     0.12430326    0.01508328    0.01133063
     atom    6 type  2   force =    -0.00836042   -0.01591176    0.00680329
     atom    7 type  2   force =    -0.00867290    0.01431153   -0.01004946
     atom    8 type  3   force =    -0.13136322    0.00326383   -0.00134119
     atom    9 type  3   force =     0.17509356    0.00287741   -0.00155425
     atom   10 type  3   force =    -0.02633200   -0.03167769   -0.06225938
     atom   11 type  3   force =    -0.02142611   -0.03810285    0.05261758
     atom   12 type  3   force =    -0.02201263    0.03721762   -0.05660547
     atom   13 type  3   force =    -0.01995092    0.03246694    0.05664626
     atom   14 type  3   force =     0.02628407   -0.03138746   -0.06035541
     atom   15 type  3   force =     0.02134394   -0.03643975    0.04957322
     atom   16 type  3   force =     0.02157979    0.03581140   -0.05391942
     atom   17 type  3   force =     0.01991792    0.03247236    0.05468898
     atom   18 type  4   force =    -0.00970412    0.02713521   -0.01495751
     atom   19 type  4   force =    -0.13083367   -0.00459835   -0.11537677
     atom   20 type  4   force =    -0.13468201    0.00555477    0.11237873
     atom   21 type  4   force =     0.13207489   -0.00573013   -0.11756255
     atom   22 type  4   force =     0.13610379    0.00630300    0.11399215
     atom   23 type  5   force =    -0.01432823   -0.00011432   -0.00140950
     The non-local contrib.  to forces
     atom    1 type  1   force =    -0.00858292   -0.02366694    0.03841072
     atom    2 type  1   force =    -0.25014474   -0.16290998    0.02246216
     atom    3 type  1   force =    -0.24361427    0.15858154   -0.02211664
     atom    4 type  1   force =     0.26535346   -0.15675775    0.02190949
     atom    5 type  1   force =     0.25921400    0.15281005   -0.02134157
     atom    6 type  2   force =    -0.01026780   -0.04788268   -0.06852587
     atom    7 type  2   force =    -0.01144846    0.05878032    0.06155454
     atom    8 type  3   force =    -0.28242866    0.00032413   -0.00091197
     atom    9 type  3   force =     0.00839181    0.00112256   -0.00186548
     atom   10 type  3   force =    -0.21303415    0.00447397   -0.20804838
     atom   11 type  3   force =    -0.21619753    0.00530752    0.19285551
     atom   12 type  3   force =    -0.20168611   -0.01819712   -0.18061270
     atom   13 type  3   force =    -0.20640078   -0.00363124    0.20548570
     atom   14 type  3   force =     0.21287390    0.00336445   -0.20908172
     atom   15 type  3   force =     0.21697076    0.00714300    0.19348937
     atom   16 type  3   force =     0.20161675   -0.01899796   -0.18219407
     atom   17 type  3   force =     0.20519101   -0.00277085    0.20699160
     atom   18 type  4   force =    -0.01135482    0.05183269   -0.06314507
     atom   19 type  4   force =     0.06282680    0.00967046    0.06816926
     atom   20 type  4   force =     0.05796603   -0.01318815   -0.06491531
     atom   21 type  4   force =    -0.05976401    0.00895992    0.07853098
     atom   22 type  4   force =    -0.05527716   -0.01261550   -0.07505913
     atom   23 type  5   force =    -0.04922371   -0.00002165    0.00001880
     The ionic contribution  to forces
     atom    1 type  1   force =    -0.21991117   -4.68746633   14.10291307
     atom    2 type  1   force =   -39.64002384   -6.19044729    0.77964341
     atom    3 type  1   force =   -39.61270106    6.17717097   -0.71356006
     atom    4 type  1   force =    39.41348386   -6.38844392    0.77852644
     atom    5 type  1   force =    39.38530914    6.37549379   -0.71226917
     atom    6 type  2   force =    -0.23349765   -3.65331524  -14.00725873
     atom    7 type  2   force =    -0.23351011    3.68908883   14.04021424
     atom    8 type  3   force =   -52.01791766    0.07189810   -0.06498897
     atom    9 type  3   force =    50.19903253    0.07272173   -0.06593057
     atom   10 type  3   force =   -36.03267437   -2.12579493  -23.10740441
     atom   11 type  3   force =   -35.10681542   -0.87859970   22.11159986
     atom   12 type  3   force =   -35.21675047    0.82799228  -22.16073712
     atom   13 type  3   force =   -36.00677757    2.21233995   23.09024022
     atom   14 type  3   force =    35.92792693   -2.18224216  -23.18159045
     atom   15 type  3   force =    35.00300827   -0.93462487   22.18546864
     atom   16 type  3   force =    35.11317191    0.88366316  -22.23425963
     atom   17 type  3   force =    35.90198775    2.26878411   23.16442413
     atom   18 type  4   force =    -0.21780500    4.45472996  -13.96088024
     atom   19 type  4   force =   -35.86180672    0.95648297  -25.59415298
     atom   20 type  4   force =   -35.84467691   -0.95292953   25.57213806
     atom   21 type  4   force =    35.65357423    0.95516722  -25.81549701
     atom   22 type  4   force =    35.63763638   -0.95189194   25.79316294
     atom   23 type  5   force =     4.00973697    0.00022286    0.00019835
     The local contribution  to forces
     atom    1 type  1   force =     0.21944194    4.66920719  -14.09793308
     atom    2 type  1   force =    39.76172677    6.33827862   -0.77127240
     atom    3 type  1   force =    39.72901298   -6.32128485    0.77310325
     atom    4 type  1   force =   -39.54973975    6.53079592   -0.76804337
     atom    5 type  1   force =   -39.51728915   -6.51301971    0.77439642
     atom    6 type  2   force =     0.23510317    3.68064393   14.09340674
     atom    7 type  2   force =     0.23614153   -3.72041406  -14.07894096
     atom    8 type  3   force =    52.18337256   -0.07174009    0.09527772
     atom    9 type  3   force =   -50.00587484   -0.07436240    0.09715232
     atom   10 type  3   force =    36.22233380    2.08128838   23.26749502
     atom   11 type  3   force =    35.31720604    0.81704382  -22.27705373
     atom   12 type  3   force =    35.39738839   -0.76182319   22.29874098
     atom   13 type  3   force =    36.20762637   -2.15573154  -23.26470391
     atom   14 type  3   force =   -36.12047544    2.14102996   23.34346819
     atom   15 type  3   force =   -35.21350089    0.87071740  -22.35469030
     atom   16 type  3   force =   -35.29747631   -0.81849372   22.37493596
     atom   17 type  3   force =   -36.10130282   -2.21157673  -23.34145007
     atom   18 type  4   force =     0.21833064   -4.47626087   14.01907001
     atom   19 type  4   force =    35.66740757   -0.97269374   25.41648197
     atom   20 type  4   force =    35.65600829    0.96930510  -25.41198094
     atom   21 type  4   force =   -35.46227505   -0.97243616   25.62489144
     atom   22 type  4   force =   -35.45028112    0.96834338  -25.62090268
     atom   23 type  5   force =    -3.97549403   -0.00062340    0.00190890
     The core correction contribution to forces
     atom    1 type  1   force =     0.00126549    0.00090757   -0.00082374
     atom    2 type  1   force =    -0.01259717   -0.00199790    0.00072064
     atom    3 type  1   force =    -0.01279293    0.00290308   -0.00135059
     atom    4 type  1   force =     0.01311677   -0.00272168    0.00089366
     atom    5 type  1   force =     0.01319598    0.00365106   -0.00160415
     atom    6 type  2   force =     0.00028036    0.00203687    0.00264235
     atom    7 type  2   force =     0.00032613   -0.00262159   -0.00220402
     atom    8 type  3   force =    -0.03336942    0.00034954   -0.00053036
     atom    9 type  3   force =     0.00618027    0.00020106   -0.00044287
     atom   10 type  3   force =    -0.02219805    0.00942701   -0.01643764
     atom   11 type  3   force =    -0.02368067    0.00963834    0.01694940
     atom   12 type  3   force =    -0.02224102   -0.00952951   -0.01599786
     atom   13 type  3   force =    -0.02193305   -0.00920668    0.01700245
     atom   14 type  3   force =     0.02292157    0.01057740   -0.01478549
     atom   15 type  3   force =     0.02391421    0.01157326    0.01509074
     atom   16 type  3   force =     0.02253992   -0.01133639   -0.01407301
     atom   17 type  3   force =     0.02232520   -0.01052355    0.01533112
     atom   18 type  4   force =     0.00045350   -0.00263723    0.00298653
     atom   19 type  4   force =    -0.00996010    0.00000748   -0.00925854
     atom   20 type  4   force =    -0.00984577    0.00032314    0.00912462
     atom   21 type  4   force =     0.01007847    0.00005010   -0.00976401
     atom   22 type  4   force =     0.00997472    0.00027834    0.00959462
     atom   23 type  5   force =     0.00000000    0.00000000    0.00000000
     The Hubbard contrib.    to forces
     atom    1 type  1   force =     0.00000000    0.00000000    0.00000000
     atom    2 type  1   force =     0.00000000    0.00000000    0.00000000
     atom    3 type  1   force =     0.00000000    0.00000000    0.00000000
     atom    4 type  1   force =     0.00000000    0.00000000    0.00000000
     atom    5 type  1   force =     0.00000000    0.00000000    0.00000000
     atom    6 type  2   force =     0.00000000    0.00000000    0.00000000
     atom    7 type  2   force =     0.00000000    0.00000000    0.00000000
     atom    8 type  3   force =     0.00000000    0.00000000    0.00000000
     atom    9 type  3   force =     0.00000000    0.00000000    0.00000000
     atom   10 type  3   force =     0.00000000    0.00000000    0.00000000
     atom   11 type  3   force =     0.00000000    0.00000000    0.00000000
     atom   12 type  3   force =     0.00000000    0.00000000    0.00000000
     atom   13 type  3   force =     0.00000000    0.00000000    0.00000000
     atom   14 type  3   force =     0.00000000    0.00000000    0.00000000
     atom   15 type  3   force =     0.00000000    0.00000000    0.00000000
     atom   16 type  3   force =     0.00000000    0.00000000    0.00000000
     atom   17 type  3   force =     0.00000000    0.00000000    0.00000000
     atom   18 type  4   force =     0.00000000    0.00000000    0.00000000
     atom   19 type  4   force =     0.00000000    0.00000000    0.00000000
     atom   20 type  4   force =     0.00000000    0.00000000    0.00000000
     atom   21 type  4   force =     0.00000000    0.00000000    0.00000000
     atom   22 type  4   force =     0.00000000    0.00000000    0.00000000
     atom   23 type  5   force =     0.00000000    0.00000000    0.00000000
     The SCF correction term to forces
     atom    1 type  1   force =    -0.00000000    0.00000000   -0.00000000
     atom    2 type  1   force =     0.00000000    0.00000000   -0.00000000
     atom    3 type  1   force =     0.00000000   -0.00000000   -0.00000000
     atom    4 type  1   force =    -0.00000000    0.00000000   -0.00000000
     atom    5 type  1   force =    -0.00000000   -0.00000000   -0.00000000
     atom    6 type  2   force =     0.00000000    0.00000000   -0.00000000
     atom    7 type  2   force =    -0.00000000   -0.00000000   -0.00000000
     atom    8 type  3   force =     0.00000000    0.00000000   -0.00000000
     atom    9 type  3   force =    -0.00000000    0.00000000   -0.00000000
     atom   10 type  3   force =     0.01928458   -0.00114596    0.00390968
     atom   11 type  3   force =     0.00810529    0.00843334    0.01004018
     atom   12 type  3   force =     0.02132039   -0.00129867    0.00377487
     atom   13 type  3   force =     0.00757792   -0.01137740    0.01039546
     atom   14 type  3   force =    -0.01691908   -0.00419094    0.00340771
     atom   15 type  3   force =    -0.00900461    0.00867762    0.01198841
     atom   16 type  3   force =    -0.01822868    0.00090247    0.00344497
     atom   17 type  3   force =    -0.00823943   -0.01151445    0.01116584
     atom   18 type  4   force =     0.00071537   -0.00060318   -0.01121509
     atom   19 type  4   force =     0.01074258    0.00186064    0.00515717
     atom   20 type  4   force =     0.00591015    0.00197036    0.00978594
     atom   21 type  4   force =    -0.00949495    0.00245495    0.00604970
     atom   22 type  4   force =    -0.00590523    0.00211489    0.00897005
     atom   23 type  5   force =     0.00069634    0.00023403   -0.00176191

     Total force =     0.404983     Total SCF correction =     0.057794
     SCF correction compared to forces is large: reduce conv_thr to get better values

     Entering Dynamics:    iteration =     2
                           time      =   0.0004 pico-seconds


ATOMIC_POSITIONS (angstrom)
Hf            2.6699999570        2.8271230292        6.6039642186    0   0   0
Hf            1.2529906802        1.2862841814        5.0584662261    0   0   0
Hf            1.2554868986        7.3898042948        5.0880677674    0   0   0
Hf            4.0870092338        1.2862841814        5.0584662261    0   0   0
Hf            4.0845130154        7.3898042948        5.0880677674    0   0   0
Nb            2.6699999570        2.7969306055        3.5155832167    0   0   0
Nb            2.6699999570        5.8763786763        6.6349979432    0   0   0
Ta            1.2093730560        4.3409278516        5.0711258323    0   0   0
Ta            4.1306268580        4.3409278516        5.0711258323    0   0   0
Ta            1.3072498645        1.3141190133        2.0587721479
Ta            1.3027859313        1.3083868699        8.0945854131
Ta            1.3040073345        7.3758303101        2.0462308463
Ta            1.3077085744        7.3650865514        8.0860089127
Ta            4.0327500753        1.3141190279        2.0587723496
Ta            4.0372139498        1.3083870482        8.0945851167
Ta            4.0359925611        7.3758301760        2.0462311348
Ta            4.0322913283        7.3650865180        8.0860086897
Zr            2.6699978418        5.8662917267        3.5273805057
Zr            1.2438053328        4.3220769531        1.9999741354
Zr            1.2403552107        4.3541245702        8.1497813829
Zr            4.0961950008        4.3220767080        1.9999737102
Zr            4.0996451062        4.3541247718        8.1497816815
H             5.9897611064        4.3399991682        5.0721761794


     kinetic energy (Ekin) =           0.92175787 Ry
     temperature           =        6930.19319839 K 
     Ekin + Etot (const)   =       -2942.12973766 Ry

     Writing config-only to output data dir outdir/pwscf.save/
     NEW-OLD atomic charge density approx. for the potential

     Check: negative core charge=   -0.000002

     negative rho (up, down):  9.090E-01 9.090E-01
     Generating pointlists ...
     new r_m :   0.0821 (alat units)  1.4492 (a.u.) for type    3
     new r_m :   0.0821 (alat units)  1.4492 (a.u.) for type    5

     total cpu time spent up to now is      853.1 secs

     Self-consistent Calculation

     iteration #  1     ecut=   120.00 Ry     beta= 0.70
     Davidson diagonalization with overlap
     c_bands:  1 eigenvalues not converged
     c_bands:  1 eigenvalues not converged
     ethr =  1.00E-06,  avg # of iterations = 20.0

     negative rho (up, down):  9.092E-01 9.092E-01

     total cpu time spent up to now is      940.4 secs

     total energy              =   -2943.02671367 Ry
     estimated scf accuracy    <       0.27026700 Ry

     total magnetization       =    -0.00 Bohr mag/cell
     absolute magnetization    =     0.03 Bohr mag/cell

     iteration #  2     ecut=   120.00 Ry     beta= 0.70
     Davidson diagonalization with overlap
     ethr =  9.76E-05,  avg # of iterations =  2.0

     negative rho (up, down):  9.092E-01 9.092E-01

     total cpu time spent up to now is      984.2 secs

     total energy              =   -2943.04326272 Ry
     estimated scf accuracy    <       0.17161484 Ry

     total magnetization       =    -0.00 Bohr mag/cell
     absolute magnetization    =     0.03 Bohr mag/cell

     iteration #  3     ecut=   120.00 Ry     beta= 0.70
     Davidson diagonalization with overlap
     ethr =  6.20E-05,  avg # of iterations =  1.0

     negative rho (up, down):  9.091E-01 9.091E-01

     total cpu time spent up to now is     1023.3 secs

     total energy              =   -2943.05248065 Ry
     estimated scf accuracy    <       0.00312808 Ry

     total magnetization       =    -0.00 Bohr mag/cell
     absolute magnetization    =     0.02 Bohr mag/cell

     iteration #  4     ecut=   120.00 Ry     beta= 0.70
     Davidson diagonalization with overlap
     c_bands:  1 eigenvalues not converged
     c_bands:  1 eigenvalues not converged
     ethr =  1.13E-06,  avg # of iterations = 20.0

     negative rho (up, down):  9.090E-01 9.090E-01

     total cpu time spent up to now is     1077.6 secs

     total energy              =   -2943.05259781 Ry
     estimated scf accuracy    <       0.00202241 Ry

     total magnetization       =    -0.00 Bohr mag/cell
     absolute magnetization    =     0.02 Bohr mag/cell

     iteration #  5     ecut=   120.00 Ry     beta= 0.70
     Davidson diagonalization with overlap
     ethr =  7.30E-07,  avg # of iterations =  2.0

     negative rho (up, down):  9.090E-01 9.090E-01

     Magnetic moment per site  (integrated on atomic sphere of radius R)
     atom   1 (R=0.112)  charge=  9.4641  magn= -0.0000
     atom   2 (R=0.112)  charge=  9.0584  magn=  0.0000
     atom   3 (R=0.112)  charge=  9.0585  magn= -0.0000
     atom   4 (R=0.112)  charge=  9.0547  magn= -0.0000
     atom   5 (R=0.112)  charge=  9.0549  magn=  0.0000
     atom   6 (R=0.110)  charge= 10.3488  magn=  0.0001
     atom   7 (R=0.110)  charge= 10.3492  magn= -0.0001
     atom   8 (R=0.082)  charge=  7.4740  magn=  0.0000
     atom   9 (R=0.082)  charge=  7.4667  magn=  0.0000
     atom  10 (R=0.082)  charge=  7.4553  magn= -0.0002
     atom  11 (R=0.082)  charge=  7.4522  magn=  0.0002
     atom  12 (R=0.082)  charge=  7.4560  magn= -0.0001
     atom  13 (R=0.082)  charge=  7.4534  magn=  0.0000
     atom  14 (R=0.082)  charge=  7.4562  magn= -0.0001
     atom  15 (R=0.082)  charge=  7.4534  magn=  0.0002
     atom  16 (R=0.082)  charge=  7.4573  magn= -0.0002
     atom  17 (R=0.082)  charge=  7.4540  magn=  0.0002
     atom  18 (R=0.111)  charge=  9.4546  magn=  0.0000
     atom  19 (R=0.111)  charge=  8.9991  magn= -0.0016
     atom  20 (R=0.111)  charge=  8.9962  magn=  0.0010
     atom  21 (R=0.111)  charge=  8.9965  magn= -0.0013
     atom  22 (R=0.111)  charge=  8.9934  magn=  0.0010
     atom  23 (R=0.082)  charge=  0.9429  magn=  0.0000

     total cpu time spent up to now is     1121.8 secs

     End of self-consistent calculation

 ------ SPIN UP ------------


          k = 0.0000 0.0000 0.0000 ( 61588 PWs)   bands (ev):

   -60.7982 -60.7903 -60.7532 -60.7452 -60.7201 -60.7097 -60.6761 -60.6659
   -60.5153 -60.3060 -54.4260 -54.3653 -54.3019 -54.2414 -52.7106 -46.2762
   -46.2624 -41.6647 -41.6497 -41.5572 -41.5562 -39.8103 -27.8008 -27.7928
   -27.7173 -27.7046 -27.6088 -27.6038 -27.4836 -27.4756 -27.3643 -27.3489
   -27.2874 -27.2839 -27.2738 -27.2505 -27.2398 -27.1866 -27.1765 -27.1426
   -27.0999 -27.0285 -26.9781 -26.9723 -26.9634 -26.9546 -26.9395 -26.9019
   -26.8996 -26.8762 -26.8697 -26.7984 -24.2053 -23.9931 -23.6876 -23.6052
   -23.3469 -23.2089 -23.1840 -23.0837 -22.9628 -22.8904 -22.8761 -22.6571
   -22.5128 -22.4645 -22.4148 -22.3650 -22.3053 -22.2502 -21.7754 -21.7093
   -21.6404 -20.2256 -19.9559 -19.8738 -19.8472 -19.6383 -19.6238 -19.6060
   -19.5937 -19.5896 -19.5474 -19.4011 -19.3853 -18.1574 -17.9544 -17.8326
     1.4687   2.9091   3.0511   3.1300   3.2748   3.4569   3.5209   3.6447
     3.7256   3.8986   3.9000   4.1028   4.2903   4.4937   4.6444   4.6839
     4.7603   4.9274   4.9899   5.0332   5.1047   5.2413   5.2879   5.2926
     5.4098   5.5427   5.5589   5.7046   5.7136   5.7404   5.7545   5.7694
     5.9095   6.1039   6.1863   6.2139   6.2486   6.3239   6.3473   6.3717
     6.5472   6.5923   6.6489   6.6701   6.7656   6.9164   6.9879   7.0166
     7.0774   7.1307   7.2523   7.2649   7.3042   7.4037   7.5448   7.6025
     7.6040   7.6546   7.8899   7.8944   8.0666   8.0851   8.0978   8.2013
     8.2705   8.3349   8.3483   8.3704   8.3928   8.5129   8.6135   8.6447
     8.7689   8.8843   8.8987   9.0441   9.0999   9.2259   9.2752

 ------ SPIN DOWN ----------


          k = 0.0000 0.0000 0.0000 ( 61588 PWs)   bands (ev):

   -60.7984 -60.7901 -60.7534 -60.7450 -60.7203 -60.7095 -60.6763 -60.6657
   -60.5153 -60.3060 -54.4260 -54.3652 -54.3018 -54.2413 -52.7106 -46.2761
   -46.2625 -41.6660 -41.6488 -41.5581 -41.5557 -39.8103 -27.8010 -27.7925
   -27.7175 -27.7043 -27.6090 -27.6037 -27.4834 -27.4757 -27.3644 -27.3488
   -27.2875 -27.2840 -27.2736 -27.2506 -27.2397 -27.1868 -27.1763 -27.1426
   -27.0999 -27.0286 -26.9783 -26.9721 -26.9633 -26.9547 -26.9395 -26.9019
   -26.8996 -26.8765 -26.8694 -26.7984 -24.2052 -23.9931 -23.6876 -23.6052
   -23.3469 -23.2088 -23.1840 -23.0837 -22.9628 -22.8904 -22.8760 -22.6570
   -22.5128 -22.4645 -22.4148 -22.3650 -22.3053 -22.2502 -21.7754 -21.7093
   -21.6404 -20.2271 -19.9543 -19.8754 -19.8487 -19.6390 -19.6233 -19.6063
   -19.5939 -19.5889 -19.5467 -19.4031 -19.3839 -18.1573 -17.9545 -17.8328
     1.4687   2.9090   3.0511   3.1300   3.2748   3.4569   3.5209   3.6446
     3.7256   3.8985   3.8999   4.1027   4.2903   4.4937   4.6443   4.6839
     4.7603   4.9273   4.9899   5.0331   5.1045   5.2411   5.2878   5.2926
     5.4098   5.5427   5.5588   5.7045   5.7133   5.7405   5.7544   5.7693
     5.9095   6.1038   6.1863   6.2139   6.2485   6.3238   6.3472   6.3715
     6.5471   6.5923   6.6489   6.6701   6.7655   6.9162   6.9878   7.0164
     7.0773   7.1305   7.2524   7.2645   7.3041   7.4034   7.5442   7.6023
     7.6041   7.6546   7.8899   7.8945   8.0665   8.0851   8.0977   8.2012
     8.2704   8.3349   8.3482   8.3702   8.3927   8.5128   8.6134   8.6445
     8.7689   8.8842   8.8985   9.0440   9.0998   9.2260   9.2627

     the Fermi energy is     7.2163 ev

!    total energy              =   -2943.05243008 Ry
     estimated scf accuracy    <       0.00032087 Ry
     smearing contrib. (-TS)   =      -0.09731287 Ry
     internal energy E=F+TS    =   -2942.95511721 Ry

     total magnetization       =    -0.00 Bohr mag/cell
     absolute magnetization    =     0.02 Bohr mag/cell

     convergence has been achieved in   5 iterations

     negative rho (up, down):  9.090E-01 9.090E-01

     Forces acting on atoms (cartesian axes, Ry/au):

     atom    1 type  1   force =    -0.00876414   -0.02730514    0.01000241
     atom    2 type  1   force =    -0.11504821   -0.01623021   -0.00608847
     atom    3 type  1   force =    -0.11449579    0.01385159   -0.00153245
     atom    4 type  1   force =     0.11654345   -0.01564245   -0.00710938
     atom    5 type  1   force =     0.11635377    0.01364828   -0.00066093
     atom    6 type  2   force =    -0.00867726   -0.01620441    0.00955809
     atom    7 type  2   force =    -0.00885480    0.01373539   -0.00778647
     atom    8 type  3   force =    -0.12693101    0.00334457   -0.00411495
     atom    9 type  3   force =     0.14893765    0.00319536   -0.00470449
     atom   10 type  3   force =    -0.02147201   -0.03281388   -0.05878415
     atom   11 type  3   force =    -0.01867110   -0.03613922    0.05826819
     atom   12 type  3   force =    -0.01683554    0.03778139   -0.05329622
     atom   13 type  3   force =    -0.01771449    0.02992365    0.06262121
     atom   14 type  3   force =     0.02212794   -0.03326034   -0.05726275
     atom   15 type  3   force =     0.01865546   -0.03452308    0.05584699
     atom   16 type  3   force =     0.01711819    0.03697452   -0.05084744
     atom   17 type  3   force =     0.01790102    0.03005168    0.06091536
     atom   18 type  4   force =    -0.00973211    0.02767905   -0.01449934
     atom   19 type  4   force =    -0.12992712   -0.00441637   -0.11302483
     atom   20 type  4   force =    -0.13217411    0.00556972    0.11737282
     atom   21 type  4   force =     0.13136941   -0.00537409   -0.11513862
     atom   22 type  4   force =     0.13354429    0.00637296    0.11881577
     atom   23 type  5   force =     0.00674652   -0.00021896    0.00144965
     The non-local contrib.  to forces
     atom    1 type  1   force =    -0.00827889   -0.02124104    0.03318198
     atom    2 type  1   force =    -0.24526249   -0.16335375    0.01561894
     atom    3 type  1   force =    -0.23891157    0.15859895   -0.02891438
     atom    4 type  1   force =     0.26054047   -0.15726721    0.01460173
     atom    5 type  1   force =     0.25474345    0.15279263   -0.02833651
     atom    6 type  2   force =    -0.01029070   -0.04744331   -0.06818198
     atom    7 type  2   force =    -0.01140615    0.05845023    0.06056660
     atom    8 type  3   force =    -0.27455314    0.00066597   -0.00609347
     atom    9 type  3   force =    -0.02515053    0.00167483   -0.00729266
     atom   10 type  3   force =    -0.20848250    0.00338179   -0.20795328
     atom   11 type  3   force =    -0.21610541    0.00684488    0.19621689
     atom   12 type  3   force =    -0.19704390   -0.01733912   -0.18053966
     atom   13 type  3   force =    -0.20653584   -0.00515631    0.20923373
     atom   14 type  3   force =     0.20884032    0.00174738   -0.20946954
     atom   15 type  3   force =     0.21704480    0.00834447    0.19722158
     atom   16 type  3   force =     0.19733862   -0.01749482   -0.18256231
     atom   17 type  3   force =     0.20578715   -0.00406706    0.21086072
     atom   18 type  4   force =    -0.01121821    0.05169377   -0.06555181
     atom   19 type  4   force =     0.06408994    0.00979586    0.06920624
     atom   20 type  4   force =     0.05953412   -0.01299302   -0.06316487
     atom   21 type  4   force =    -0.06074054    0.00928048    0.07921573
     atom   22 type  4   force =    -0.05725198   -0.01247378   -0.07322827
     atom   23 type  5   force =    -0.05517156   -0.00000905    0.00002135
     The ionic contribution  to forces
     atom    1 type  1   force =    -0.23268656   -4.69284481   14.10908599
     atom    2 type  1   force =   -39.64811810   -6.19003074    0.77964516
     atom    3 type  1   force =   -39.62081822    6.17677069   -0.71353784
     atom    4 type  1   force =    39.41262296   -6.39971664    0.77846512
     atom    5 type  1   force =    39.38442212    6.38680083   -0.71218843
     atom    6 type  2   force =    -0.24697475   -3.65905845  -14.01383770
     atom    7 type  2   force =    -0.24698840    3.69481508   14.04680847
     atom    8 type  3   force =   -52.03935811    0.07190413   -0.06500554
     atom    9 type  3   force =    50.04407476    0.07285463   -0.06608421
     atom   10 type  3   force =   -36.03708066   -2.12554228  -23.10702448
     atom   11 type  3   force =   -35.11120987   -0.87834301   22.11122160
     atom   12 type  3   force =   -35.22116969    0.82777276  -22.16039609
     atom   13 type  3   force =   -36.01118716    2.21210174   23.08986526
     atom   14 type  3   force =    35.92828389   -2.18474392  -23.18470354
     atom   15 type  3   force =    35.00339444   -0.93709615   22.18856452
     atom   16 type  3   force =    35.11358966    0.88613634  -22.23735882
     atom   17 type  3   force =    35.90234572    2.27129884   23.16754266
     atom   18 type  4   force =    -0.23043812    4.45997687  -13.96695996
     atom   19 type  4   force =   -35.86884733    0.95646331  -25.59303735
     atom   20 type  4   force =   -35.85170425   -0.95292836   25.57101179
     atom   21 type  4   force =    35.65241724    0.95508832  -25.82697273
     atom   22 type  4   force =    35.63653528   -0.95183219   25.80460120
     atom   23 type  5   force =     4.28889516    0.00015299    0.00029493
     The local contribution  to forces
     atom    1 type  1   force =     0.23098353    4.68685513  -14.14112431
     atom    2 type  1   force =    39.79816248    6.33912994   -0.81790729
     atom    3 type  1   force =    39.76460640   -6.32368907    0.72578968
     atom    4 type  1   force =   -39.57784109    6.54395171   -0.81698956
     atom    5 type  1   force =   -39.54325412   -6.52893835    0.72495484
     atom    6 type  2   force =     0.24837985    3.68292827   14.07702503
     atom    7 type  2   force =     0.24941884   -3.73921786  -14.12581827
     atom    8 type  3   force =    52.22883193   -0.07029561    0.05294753
     atom    9 type  3   force =   -49.88400226   -0.07219948    0.05451495
     atom   10 type  3   force =    36.25454403    2.07280731   23.27270138
     atom   11 type  3   force =    35.34249132    0.82844794  -22.26031476
     atom   12 type  3   force =    35.43183841   -0.75589520   22.30355019
     atom   13 type  3   force =    36.23092515   -2.16890955  -23.24672112
     atom   14 type  3   force =   -36.14567564    2.13156700   23.35101443
     atom   15 type  3   force =   -35.23621131    0.88501877  -22.33856114
     atom   16 type  3   force =   -35.32366117   -0.81291645   22.38221582
     atom   17 type  3   force =   -36.12161514   -2.22780719  -23.32546511
     atom   18 type  4   force =     0.23172422   -4.47599755   14.00320202
     atom   19 type  4   force =    35.68688626   -0.97099504   25.42002549
     atom   20 type  4   force =    35.67787820    0.97010070  -25.39548094
     atom   21 type  4   force =   -35.47261691   -0.96990882   25.64227099
     atom   22 type  4   force =   -35.46435519    0.96950451  -25.61791274
     atom   23 type  5   force =    -4.22818615   -0.00027488   -0.00160052
     The core correction contribution to forces
     atom    1 type  1   force =     0.00128544    0.00097811   -0.00080167
     atom    2 type  1   force =    -0.01242787   -0.00209013    0.00070505
     atom    3 type  1   force =    -0.01263018    0.00293950   -0.00133197
     atom    4 type  1   force =     0.01303320   -0.00278303    0.00085067
     atom    5 type  1   force =     0.01311306    0.00367003   -0.00159467
     atom    6 type  2   force =     0.00028592    0.00205082    0.00263665
     atom    7 type  2   force =     0.00032968   -0.00262191   -0.00217823
     atom    8 type  3   force =    -0.03304533    0.00034290   -0.00053285
     atom    9 type  3   force =     0.00423157    0.00020649   -0.00047204
     atom   10 type  3   force =    -0.02204004    0.00944851   -0.01647564
     atom   11 type  3   force =    -0.02381549    0.00962831    0.01705282
     atom   12 type  3   force =    -0.02209674   -0.00954401   -0.01604933
     atom   13 type  3   force =    -0.02205885   -0.00918185    0.01712106
     atom   14 type  3   force =     0.02278886    0.01061649   -0.01483550
     atom   15 type  3   force =     0.02411848    0.01152969    0.01520901
     atom   16 type  3   force =     0.02236753   -0.01134342   -0.01412904
     atom   17 type  3   force =     0.02255467   -0.01044244    0.01545569
     atom   18 type  4   force =     0.00045916   -0.00263543    0.00299891
     atom   19 type  4   force =    -0.00996540    0.00001316   -0.00931585
     atom   20 type  4   force =    -0.00982620    0.00031312    0.00911760
     atom   21 type  4   force =     0.01007006    0.00004902   -0.00978925
     atom   22 type  4   force =     0.00997709    0.00027834    0.00957993
     atom   23 type  5   force =     0.00000000    0.00000000    0.00000000
     The Hubbard contrib.    to forces
     atom    1 type  1   force =     0.00000000    0.00000000    0.00000000
     atom    2 type  1   force =     0.00000000    0.00000000    0.00000000
     atom    3 type  1   force =     0.00000000    0.00000000    0.00000000
     atom    4 type  1   force =     0.00000000    0.00000000    0.00000000
     atom    5 type  1   force =     0.00000000    0.00000000    0.00000000
     atom    6 type  2   force =     0.00000000    0.00000000    0.00000000
     atom    7 type  2   force =     0.00000000    0.00000000    0.00000000
     atom    8 type  3   force =     0.00000000    0.00000000    0.00000000
     atom    9 type  3   force =     0.00000000    0.00000000    0.00000000
     atom   10 type  3   force =     0.00000000    0.00000000    0.00000000
     atom   11 type  3   force =     0.00000000    0.00000000    0.00000000
     atom   12 type  3   force =     0.00000000    0.00000000    0.00000000
     atom   13 type  3   force =     0.00000000    0.00000000    0.00000000
     atom   14 type  3   force =     0.00000000    0.00000000    0.00000000
     atom   15 type  3   force =     0.00000000    0.00000000    0.00000000
     atom   16 type  3   force =     0.00000000    0.00000000    0.00000000
     atom   17 type  3   force =     0.00000000    0.00000000    0.00000000
     atom   18 type  4   force =     0.00000000    0.00000000    0.00000000
     atom   19 type  4   force =     0.00000000    0.00000000    0.00000000
     atom   20 type  4   force =     0.00000000    0.00000000    0.00000000
     atom   21 type  4   force =     0.00000000    0.00000000    0.00000000
     atom   22 type  4   force =     0.00000000    0.00000000    0.00000000
     atom   23 type  5   force =     0.00000000    0.00000000    0.00000000
     The SCF correction term to forces
     atom    1 type  1   force =    -0.00000000   -0.00000000    0.00000000
     atom    2 type  1   force =    -0.00000000    0.00000000    0.00000000
     atom    3 type  1   force =    -0.00000000   -0.00000000    0.00000000
     atom    4 type  1   force =     0.00000000    0.00000000    0.00000000
     atom    5 type  1   force =     0.00000000   -0.00000000    0.00000000
     atom    6 type  2   force =    -0.00000000    0.00000000    0.00000000
     atom    7 type  2   force =    -0.00000000    0.00000000    0.00000000
     atom    8 type  3   force =    -0.00000000    0.00000000    0.00000000
     atom    9 type  3   force =     0.00000000    0.00000000    0.00000000
     atom   10 type  3   force =    -0.00838345    0.00712676   -0.00116832
     atom   11 type  3   force =    -0.01000226   -0.00268138   -0.00704455
     atom   12 type  3   force =    -0.00833422   -0.00717709   -0.00099752
     atom   13 type  3   force =    -0.00882840    0.00110559   -0.00801391
     atom   14 type  3   force =     0.00791990    0.00758868   -0.00040480
     atom   15 type  3   force =     0.01033844   -0.00228389   -0.00772318
     atom   16 type  3   force =     0.00751294   -0.00737117   -0.00014928
     atom   17 type  3   force =     0.00885801    0.00110549   -0.00861479
     atom   18 type  4   force =    -0.00022977   -0.00532265    0.01067531
     atom   19 type  4   force =    -0.00206121    0.00034230   -0.00103956
     atom   20 type  4   force =    -0.00802659    0.00111324   -0.00524695
     atom   21 type  4   force =     0.00226895    0.00015288   -0.00099957
     atom   22 type  4   force =     0.00866849    0.00093205   -0.00536054
     atom   23 type  5   force =     0.00123846   -0.00005205    0.00159770

     Total force =     0.403789     Total SCF correction =     0.038178

     Entering Dynamics:    iteration =     3
                           time      =   0.0006 pico-seconds


ATOMIC_POSITIONS (angstrom)
Hf            2.6699999570        2.8271230292        6.6039642186    0   0   0
Hf            1.2529906802        1.2862841814        5.0584662261    0   0   0
Hf            1.2554868986        7.3898042948        5.0880677674    0   0   0
Hf            4.0870092338        1.2862841814        5.0584662261    0   0   0
Hf            4.0845130154        7.3898042948        5.0880677674    0   0   0
Nb            2.6699999570        2.7969306055        3.5155832167    0   0   0
Nb            2.6699999570        5.8763786763        6.6349979432    0   0   0
Ta            1.2093730560        4.3409278516        5.0711258323    0   0   0
Ta            4.1306268580        4.3409278516        5.0711258323    0   0   0
Ta            1.3072464942        1.3141144714        2.0587635777
Ta            1.3027830767        1.3083816131        8.0945933055
Ta            1.3040046148        7.3758355948        2.0462230611
Ta            1.3077058952        7.3650909655        8.0860174060
Ta            4.0327534943        1.3141144764        2.0587640202
Ta            4.0372167847        1.3083820191        8.0945926377
Ta            4.0359952753        7.3758353082        2.0462237084
Ta            4.0322940115        7.3650909227        8.0860169196
Zr            2.6699951468        5.8662992990        3.5273763259
Zr            1.2437687585        4.3220756934        1.9999420372
[...]
     atom  16 (R=0.064)  charge=  4.7920  magn= -0.0000
     atom  17 (R=0.064)  charge=  4.7890  magn= -0.0000
     atom  18 (R=0.111)  charge=  9.4538  magn=  0.0000
     atom  19 (R=0.111)  charge=  9.0004  magn= -0.0002
     atom  20 (R=0.111)  charge=  8.9961  magn=  0.0001
     atom  21 (R=0.111)  charge=  8.9978  magn= -0.0001
     atom  22 (R=0.111)  charge=  8.9936  magn=  0.0001
     atom  23 (R=0.064)  charge=  0.8714  magn= -0.0000

     total cpu time spent up to now is     2745.5 secs

     End of self-consistent calculation

 ------ SPIN UP ------------


          k = 0.0000 0.0000 0.0000 ( 61588 PWs)   bands (ev):

   -60.7966 -60.7845 -60.7517 -60.7394 -60.7181 -60.7028 -60.6744 -60.6591
   -60.4879 -60.0229 -54.4139 -54.3572 -54.2897 -54.2333 -52.7135 -46.2657
   -46.2526 -41.6577 -41.6404 -41.5520 -41.5496 -39.8079 -27.7970 -27.7857
   -27.7138 -27.6974 -27.6062 -27.5982 -27.4783 -27.4716 -27.3577 -27.3429
   -27.2832 -27.2696 -27.2633 -27.2448 -27.2330 -27.1826 -27.1687 -27.1210
   -27.0772 -26.9755 -26.9651 -26.9581 -26.9576 -26.8991 -26.8954 -26.8759
   -26.8658 -26.7987 -26.7757 -26.7057 -24.1951 -23.9826 -23.6785 -23.5956
   -23.3380 -23.1986 -23.1747 -23.0744 -22.9524 -22.8809 -22.8649 -22.6471
   -22.5040 -22.4536 -22.4055 -22.3545 -22.2956 -22.2390 -21.7739 -21.7068
   -21.6423 -20.2180 -19.9448 -19.8651 -19.8429 -19.6302 -19.6154 -19.6010
   -19.5878 -19.5832 -19.5417 -19.3947 -19.3762 -18.1567 -17.9495 -17.8300
     1.4039   2.5821   2.9186   3.1350   3.2731   3.4656   3.5171   3.6267
     3.7220   3.9075   3.9124   4.1205   4.2936   4.4921   4.5977   4.6884
     4.7585   4.8080   4.9981   5.0390   5.1114   5.2483   5.2945   5.2973
     5.4073   5.5497   5.5682   5.7194   5.7220   5.7506   5.7652   5.7894
     5.9160   6.1133   6.1920   6.2229   6.2566   6.3497   6.3551   6.3919
     6.5880   6.6162   6.6569   6.6733   6.7703   6.9229   6.9932   7.0180
     7.0857   7.1391   7.2479   7.2584   7.3162   7.4086   7.5509   7.5946
     7.6118   7.6596   7.8946   7.8980   8.0733   8.0916   8.1032   8.2099
     8.2686   8.3416   8.3474   8.3759   8.4026   8.5160   8.6284   8.6540
     8.7681   8.8878   8.9187   9.0463   9.0815   9.2540   9.2662

 ------ SPIN DOWN ----------


          k = 0.0000 0.0000 0.0000 ( 61588 PWs)   bands (ev):

   -60.7966 -60.7845 -60.7517 -60.7394 -60.7182 -60.7028 -60.6744 -60.6591
   -60.4879 -60.0229 -54.4139 -54.3572 -54.2897 -54.2333 -52.7135 -46.2657
   -46.2526 -41.6578 -41.6404 -41.5521 -41.5496 -39.8079 -27.7971 -27.7857
   -27.7138 -27.6974 -27.6062 -27.5982 -27.4784 -27.4716 -27.3578 -27.3429
   -27.2832 -27.2696 -27.2633 -27.2449 -27.2330 -27.1827 -27.1687 -27.1210
   -27.0772 -26.9755 -26.9651 -26.9580 -26.9576 -26.8991 -26.8954 -26.8760
   -26.8657 -26.7987 -26.7757 -26.7057 -24.1951 -23.9826 -23.6785 -23.5956
   -23.3380 -23.1986 -23.1747 -23.0744 -22.9524 -22.8809 -22.8649 -22.6471
   -22.5040 -22.4536 -22.4055 -22.3545 -22.2956 -22.2390 -21.7739 -21.7068
   -21.6423 -20.2181 -19.9447 -19.8652 -19.8430 -19.6303 -19.6154 -19.6011
   -19.5878 -19.5831 -19.5416 -19.3949 -19.3761 -18.1567 -17.9495 -17.8300
     1.4039   2.5821   2.9186   3.1350   3.2731   3.4656   3.5171   3.6267
     3.7220   3.9074   3.9124   4.1204   4.2936   4.4921   4.5977   4.6884
     4.7585   4.8080   4.9981   5.0390   5.1114   5.2482   5.2945   5.2973
     5.4073   5.5497   5.5682   5.7193   5.7220   5.7506   5.7652   5.7894
     5.9159   6.1133   6.1920   6.2229   6.2566   6.3497   6.3551   6.3919
     6.5880   6.6162   6.6569   6.6733   6.7703   6.9229   6.9932   7.0180
     7.0856   7.1391   7.2478   7.2584   7.3162   7.4085   7.5508   7.5946
     7.6118   7.6596   7.8945   7.8980   8.0732   8.0916   8.1031   8.2099
     8.2685   8.3416   8.3474   8.3759   8.4026   8.5159   8.6284   8.6539
     8.7680   8.8878   8.9187   9.0463   9.0815   9.2540   9.2662

     the Fermi energy is     7.2199 ev

!    total energy              =   -2942.94691184 Ry
     estimated scf accuracy    <       0.00036201 Ry
     smearing contrib. (-TS)   =      -0.09779126 Ry
     internal energy E=F+TS    =   -2942.84912058 Ry

     total magnetization       =    -0.00 Bohr mag/cell
     absolute magnetization    =     0.00 Bohr mag/cell

     convergence has been achieved in   5 iterations

     negative rho (up, down):  9.087E-01 9.087E-01

     Forces acting on atoms (cartesian axes, Ry/au):

     atom    1 type  1   force =    -0.00762322   -0.02773792    0.01208326
     atom    2 type  1   force =    -0.11742825   -0.01580294   -0.00663763
     atom    3 type  1   force =    -0.11684278    0.01369185   -0.00213408
     atom    4 type  1   force =     0.11797771   -0.01549706   -0.00777908
     atom    5 type  1   force =     0.11757114    0.01362636   -0.00096335
     atom    6 type  2   force =    -0.00793077   -0.01765912    0.00716605
     atom    7 type  2   force =    -0.00820009    0.01528475   -0.00512612
     atom    8 type  3   force =    -0.13772517    0.00332639   -0.00434322
     atom    9 type  3   force =    -0.17671802    0.00367417   -0.00565124
     atom   10 type  3   force =    -0.02254276   -0.03267775   -0.05878368
     atom   11 type  3   force =    -0.01991129   -0.03579984    0.05893890
     atom   12 type  3   force =    -0.01802952    0.03771011   -0.05353275
     atom   13 type  3   force =    -0.01873934    0.02944457    0.06283100
     atom   14 type  3   force =     0.02310672   -0.03318372   -0.05724884
     atom   15 type  3   force =     0.01994973   -0.03400507    0.05625662
     atom   16 type  3   force =     0.01833979    0.03681845   -0.05093900
     atom   17 type  3   force =     0.01898247    0.02975468    0.06134607
     atom   18 type  4   force =    -0.00883239    0.02811488   -0.01647646
     atom   19 type  4   force =    -0.13024494   -0.00452608   -0.11276869
     atom   20 type  4   force =    -0.13237672    0.00543868    0.11740089
     atom   21 type  4   force =     0.12931032   -0.00562115   -0.11499974
     atom   22 type  4   force =     0.13144369    0.00629992    0.11905142
     atom   23 type  5   force =     0.34646369   -0.00067418    0.00230966
     The non-local contrib.  to forces
     atom    1 type  1   force =    -0.00557894   -0.01843344    0.03018757
     atom    2 type  1   force =    -0.24482251   -0.16231567    0.01543229
     atom    3 type  1   force =    -0.23853926    0.15779566   -0.02932664
     atom    4 type  1   force =     0.25778825   -0.15793837    0.01446691
     atom    5 type  1   force =     0.25202618    0.15354027   -0.02846982
     atom    6 type  2   force =    -0.01206437   -0.04743697   -0.06990685
     atom    7 type  2   force =    -0.01315738    0.05862689    0.06223574
     atom    8 type  3   force =    -0.24695724    0.00057472   -0.00657422
     atom    9 type  3   force =    -0.04001459    0.00196924   -0.00797414
     atom   10 type  3   force =    -0.20806262    0.00297785   -0.20944579
     atom   11 type  3   force =    -0.21680257    0.00654395    0.19752240
     atom   12 type  3   force =    -0.19725404   -0.01716333   -0.18198444
     atom   13 type  3   force =    -0.20652598   -0.00478974    0.21069665
     atom   14 type  3   force =     0.20773453    0.00131175   -0.21022532
     atom   15 type  3   force =     0.21744527    0.00784693    0.19788989
     atom   16 type  3   force =     0.19764424   -0.01709145   -0.18340790
     atom   17 type  3   force =     0.20517264   -0.00345869    0.21169189
     atom   18 type  4   force =    -0.01228363    0.05191460   -0.06886465
     atom   19 type  4   force =     0.06525114    0.00972525    0.07094143
     atom   20 type  4   force =     0.06066145   -0.01337548   -0.06468309
     atom   21 type  4   force =    -0.06208444    0.00908773    0.07633143
     atom   22 type  4   force =    -0.05842751   -0.01244772   -0.07030854
     atom   23 type  5   force =    -0.11220514   -0.00002223    0.00011538
     The ionic contribution  to forces
     atom    1 type  1   force =    -0.30939554   -4.72935797   14.15761193
     atom    2 type  1   force =   -39.69419754   -6.19095947    0.77967051
     atom    3 type  1   force =   -39.66717927    6.17794881   -0.71297443
     atom    4 type  1   force =    39.41904608   -6.46902010    0.77810673
     atom    5 type  1   force =    39.39084861    6.45628208   -0.71149865
     atom    6 type  2   force =    -0.32749323   -3.69764572  -14.06519798
     atom    7 type  2   force =    -0.32753295    3.73341419   14.09816589
     atom    8 type  3   force =   -52.16181522    0.07203426   -0.06531834
     atom    9 type  3   force =    48.63178354    0.07455400   -0.06811580
     atom   10 type  3   force =   -36.06034310   -2.12304569  -23.10293095
     atom   11 type  3   force =   -35.13450703   -0.87585369   22.10717533
     atom   12 type  3   force =   -35.24515190    0.82595645  -22.15712385
     atom   13 type  3   force =   -36.03446668    2.20992575   23.08579663
     atom   14 type  3   force =    35.93334632   -2.19681032  -23.19868059
     atom   15 type  3   force =    35.00868007   -0.94902458   22.20251221
     atom   16 type  3   force =    35.11958910    0.89826797  -22.25164050
     atom   17 type  3   force =    35.90740004    2.28367509   23.18156005
     atom   18 type  4   force =    -0.30636758    4.49418362  -14.01398495
     atom   19 type  4   force =   -35.90453686    0.95600355  -25.58206338
     atom   20 type  4   force =   -35.88736299   -0.95285396   25.55992750
     atom   21 type  4   force =    35.65209780    0.95451081  -25.88812910
     atom   22 type  4   force =    35.63657194   -0.95141702   25.86564964
     atom   23 type  5   force =     6.36098640   -0.00076807    0.00148210
     The local contribution  to forces
     atom    1 type  1   force =     0.30609293    4.72307590  -14.18399223
     atom    2 type  1   force =    39.83602704    6.33974032   -0.82054120
     atom    3 type  1   force =    39.80306821   -6.32408546    0.72307768
     atom    4 type  1   force =   -39.57484578    6.61456331   -0.81905746
     atom    5 type  1   force =   -39.54118822   -6.59908856    0.72274378
     atom    6 type  2   force =     0.33122258    3.72290701   14.12048909
     atom    7 type  2   force =     0.33231820   -3.77964483  -14.17532698
     atom    8 type  3   force =    52.30624391   -0.07094789    0.05116167
     atom    9 type  3   force =   -48.77829274   -0.07439375    0.05457661
     atom   10 type  3   force =    36.26965263    2.07125439   23.26684319
     atom   11 type  3   force =    35.35867316    0.82819304  -22.25405824
     atom   12 type  3   force =    35.44730331   -0.75442280   22.29835322
     atom   13 type  3   force =    36.24671902   -2.16948669  -23.24129410
     atom   14 type  3   force =   -36.14347092    2.14606649   23.36357121
     atom   15 type  3   force =   -35.23472700    0.90048557  -22.35107682
     atom   16 type  3   force =   -35.32380746   -0.82609670   22.39495922
     atom   17 type  3   force =   -36.11992826   -2.24343845  -23.33843461
     atom   18 type  4   force =     0.30893012   -4.51307685   14.04546549
     atom   19 type  4   force =    35.71876493   -0.97071545   25.40563162
     atom   20 type  4   force =    35.71023694    0.97018966  -25.38095348
     atom   21 type  4   force =   -35.47171501   -0.97018081   25.70496911
     atom   22 type  4   force =   -35.46386201    0.96862693  -25.68043012
     atom   23 type  5   force =    -5.90337137    0.00012905   -0.00239505
     The core correction contribution to forces
     atom    1 type  1   force =     0.00162698    0.00128409   -0.00145348
     atom    2 type  1   force =    -0.01222115   -0.00204311    0.00070568
     atom    3 type  1   force =    -0.01244711    0.00291911   -0.00130747
     atom    4 type  1   force =     0.01301137   -0.00239021    0.00087327
     atom    5 type  1   force =     0.01312066    0.00328353   -0.00154740
     atom    6 type  2   force =     0.00044049    0.00207669    0.00273358
     atom    7 type  2   force =     0.00048375   -0.00265371   -0.00228124
     atom    8 type  3   force =    -0.03095216    0.00041191   -0.00060873
     atom    9 type  3   force =     0.00057061    0.00024849   -0.00055300
     atom   10 type  3   force =    -0.02172709    0.00957371   -0.01650926
     atom   11 type  3   force =    -0.02356356    0.00974432    0.01709655
     atom   12 type  3   force =    -0.02178035   -0.00969801   -0.01609079
     atom   13 type  3   force =    -0.02180387   -0.00926781    0.01716802
     atom   14 type  3   force =     0.02254056    0.01047160   -0.01502237
     atom   15 type  3   force =     0.02389033    0.01140301    0.01534252
     atom   16 type  3   force =     0.02213169   -0.01129590   -0.01427263
     atom   17 type  3   force =     0.02239561   -0.01026270    0.01565942
     atom   18 type  4   force =     0.00056818   -0.00272742    0.00319338
     atom   19 type  4   force =    -0.01000991    0.00001695   -0.00942697
     atom   20 type  4   force =    -0.00987258    0.00033320    0.00921416
     atom   21 type  4   force =     0.01006158    0.00005387   -0.00966389
     atom   22 type  4   force =     0.00996510    0.00027495    0.00945463
     atom   23 type  5   force =     0.00000000    0.00000000    0.00000000
     The Hubbard contrib.    to forces
     atom    1 type  1   force =     0.00000000    0.00000000    0.00000000
     atom    2 type  1   force =     0.00000000    0.00000000    0.00000000
     atom    3 type  1   force =     0.00000000    0.00000000    0.00000000
     atom    4 type  1   force =     0.00000000    0.00000000    0.00000000
     atom    5 type  1   force =     0.00000000    0.00000000    0.00000000
     atom    6 type  2   force =     0.00000000    0.00000000    0.00000000
     atom    7 type  2   force =     0.00000000    0.00000000    0.00000000
     atom    8 type  3   force =     0.00000000    0.00000000    0.00000000
     atom    9 type  3   force =     0.00000000    0.00000000    0.00000000
     atom   10 type  3   force =     0.00000000    0.00000000    0.00000000
     atom   11 type  3   force =     0.00000000    0.00000000    0.00000000
     atom   12 type  3   force =     0.00000000    0.00000000    0.00000000
     atom   13 type  3   force =     0.00000000    0.00000000    0.00000000
     atom   14 type  3   force =     0.00000000    0.00000000    0.00000000
     atom   15 type  3   force =     0.00000000    0.00000000    0.00000000
     atom   16 type  3   force =     0.00000000    0.00000000    0.00000000
     atom   17 type  3   force =     0.00000000    0.00000000    0.00000000
     atom   18 type  4   force =     0.00000000    0.00000000    0.00000000
     atom   19 type  4   force =     0.00000000    0.00000000    0.00000000
     atom   20 type  4   force =     0.00000000    0.00000000    0.00000000
     atom   21 type  4   force =     0.00000000    0.00000000    0.00000000
     atom   22 type  4   force =     0.00000000    0.00000000    0.00000000
     atom   23 type  5   force =     0.00000000    0.00000000    0.00000000
     The SCF correction term to forces
     atom    1 type  1   force =    -0.00000000   -0.00000000    0.00000000
     atom    2 type  1   force =    -0.00000000   -0.00000000    0.00000000
     atom    3 type  1   force =    -0.00000000   -0.00000000    0.00000000
     atom    4 type  1   force =     0.00000000   -0.00000000    0.00000000
     atom    5 type  1   force =     0.00000000   -0.00000000    0.00000000
     atom    6 type  2   force =    -0.00000000    0.00000000    0.00000000
     atom    7 type  2   force =    -0.00000000    0.00000000    0.00000000
     atom    8 type  3   force =    -0.00000000    0.00000000    0.00000000
     atom    9 type  3   force =     0.00000000    0.00000000    0.00000000
     atom   10 type  3   force =    -0.00209318    0.00661842    0.00189841
     atom   11 type  3   force =    -0.00374188   -0.00437103   -0.01015785
     atom   12 type  3   force =    -0.00117712   -0.00690578    0.00195238
     atom   13 type  3   force =    -0.00269242    0.00311948   -0.01089693
     atom   14 type  3   force =     0.00292564    0.00583319    0.00174751
     atom   15 type  3   force =     0.00463046   -0.00465957   -0.00977191
     atom   16 type  3   force =     0.00275162   -0.00690903    0.00206210
     atom   17 type  3   force =     0.00391184    0.00329586   -0.01049140
     atom   18 type  4   force =     0.00028992   -0.00212264    0.01635356
     atom   19 type  4   force =     0.00025518    0.00050004    0.00078788
     atom   20 type  4   force =    -0.00607014    0.00120169   -0.00746493
     atom   21 type  4   force =     0.00091978    0.00096368    0.00013198
     atom   22 type  4   force =     0.00716557    0.00131920   -0.00667491
     atom   23 type  5   force =     0.00102321    0.00004350    0.00174651

     Total force =     0.531580     Total SCF correction =     0.035032

     Entering Dynamics:    iteration =     9
                           time      =   0.0018 pico-seconds


ATOMIC_POSITIONS (angstrom)
Hf            2.6699999570        2.8271230292        6.6039642186    0   0   0
Hf            1.2529906802        1.2862841814        5.0584662261    0   0   0
Hf            1.2554868986        7.3898042948        5.0880677674    0   0   0
Hf            4.0870092338        1.2862841814        5.0584662261    0   0   0
Hf            4.0845130154        7.3898042948        5.0880677674    0   0   0
Nb            2.6699999570        2.7969306055        3.5155832167    0   0   0
Nb            2.6699999570        5.8763786763        6.6349979432    0   0   0
Ta            1.2093730560        4.3409278516        5.0711258323    0   0   0
Ta            4.1306268580        4.3409278516        5.0711258323    0   0   0
Ta            1.3071982805        1.3140504088        2.0586402082
Ta            1.3027412755        1.3083065773        8.0947061450
Ta            1.3039656690        7.3759103226        2.0461108120
Ta            1.3076667210        7.3651534447        8.0861386563
Ta            4.0328026507        1.3140497043        2.0586439289
Ta            4.0372584817        1.3083101843        8.0947001708
Ta            4.0360344306        7.3759081214        2.0461166769
Ta            4.0323335379        7.3651538715        8.0861346946
Zr            2.6699564912        5.8664074090        3.5273168262
Zr            1.2432429002        4.3220576780        1.9994808194
Zr            1.2397777958        4.3541489203        8.1502781455
Zr            4.0967612318        4.3220530107        1.9994711493
Zr            4.1002260467        4.3541526152        8.1502851039
H             5.5089803871        4.3399509660        5.0722189561


     kinetic energy (Ekin) =           0.81621883 Ry
     temperature           =        6136.70285781 K 
     Ekin + Etot (const)   =       -2942.13069301 Ry

     Writing config-only to output data dir outdir/pwscf.save/
     NEW-OLD atomic charge density approx. for the potential

     Check: negative core charge=   -0.000002

     negative rho (up, down):  9.087E-01 9.087E-01
     Generating pointlists ...
     new r_m :   0.0609 (alat units)  1.0744 (a.u.) for type    3
     new r_m :   0.0609 (alat units)  1.0744 (a.u.) for type    5

     total cpu time spent up to now is     2771.7 secs

     Self-consistent Calculation

     iteration #  1     ecut=   120.00 Ry     beta= 0.70
     Davidson diagonalization with overlap
     ethr =  1.00E-06,  avg # of iterations = 12.0

     negative rho (up, down):  9.087E-01 9.087E-01

     total cpu time spent up to now is     2853.1 secs

     total energy              =   -2942.88458110 Ry
     estimated scf accuracy    <       0.13372352 Ry

     total magnetization       =    -0.00 Bohr mag/cell
     absolute magnetization    =     0.00 Bohr mag/cell

     iteration #  2     ecut=   120.00 Ry     beta= 0.70
     Davidson diagonalization with overlap
