
     Program PWSCF v.7.2 starts on 16Jun2023 at 18:46:16 

     This program is part of the open-source Quantum ESPRESSO suite
     for quantum simulation of materials; please cite
         "P. Giannozzi et al., J. Phys.:Condens. Matter 21 395502 (2009);
         "P. Giannozzi et al., J. Phys.:Condens. Matter 29 465901 (2017);
         "P. Giannozzi et al., J. Chem. Phys. 152 154105 (2020);
          URL http://www.quantum-espresso.org", 
     in publications or presentations arising from this work. More details at
     http://www.quantum-espresso.org/quote

     Parallel version (MPI), running on    42 processors

     MPI processes distributed on     1 nodes
     172614 MiB available memory on the printing compute node when the environment starts

     Reading input from md_data/md_Hf5Nb2Ta10Zr5H_20steps_50eV_incident45_polar30.in
Warning: card &CELL ignored
Warning: card / ignored

     Current dimensions of program PWSCF are:
     Max number of different atomic species (ntypx) = 10
     Max number of k-points (npk) =  40000
     Max angular momentum in pseudopotentials (lmaxx) =  4

     File outdir/pwscf.md deleted, as requested

     gamma-point specific algorithms are used

     R & G space division:  proc/nbgrp/npool/nimage =      42
     Subspace diagonalization in iterative solution of the eigenvalue problem:
     one sub-group per band group will be used
     custom distributed-memory algorithm (size of sub-group:  2*  2 procs)


     Parallelization info
     --------------------
     sticks:   dense  smooth     PW     G-vecs:    dense   smooth      PW
     Min         262     262     63                23470    23470    2920
     Max         265     265     66                23484    23484    2942
     Sum       11057   11057   2753               986005   986005  123175

     Using Slab Decomposition



     bravais-lattice index     =            0
     lattice parameter (alat)  =      17.6500  a.u.
     unit-cell volume          =    5552.8853 (a.u.)^3
     number of atoms/cell      =           23
     number of atomic types    =            5
     number of electrons       =       277.00
     number of Kohn-Sham states=          167
     kinetic-energy cutoff     =     120.0000  Ry
     charge density cutoff     =     480.0000  Ry
     scf convergence threshold =      1.0E-03
     mixing beta               =       0.7000
     number of iterations used =            8  TF        mixing
     energy convergence thresh.=      0.0E+00
     force convergence thresh. =      0.0E+00
     Exchange-correlation=  SLA  PW   PBX  PBC
                           (   1   4   3   4   0   0   0)
     nstep                     =           20


     celldm(1)=  17.650041  celldm(2)=   0.000000  celldm(3)=   0.000000
     celldm(4)=   0.000000  celldm(5)=   0.000000  celldm(6)=   0.000000

     crystal axes: (cart. coord. in units of alat)
               a(1) = (   1.000000   0.000000   0.000000 )  
               a(2) = (   0.000000   0.929336   0.000000 )  
               a(3) = (   0.000000   0.000000   1.086698 )  

     reciprocal axes: (cart. coord. in units 2 pi/alat)
               b(1) = (  1.000000  0.000000  0.000000 )  
               b(2) = (  0.000000  1.076037  0.000000 )  
               b(3) = (  0.000000  0.000000  0.920219 )  


     PseudoPot. # 1 for Hf read from file:
     q-e/pseudo/hf_pbe_v1.uspp.F.UPF
     MD5 check sum: 8ee9378dfe14276e333edf04c5e4aa26
     Pseudo is Ultrasoft + core correction, Zval = 12.0
     Generated by new atomic code, or converted to UPF format
     Using radial grid of  921 points,  8 beta functions with: 
                l(1) =   0
                l(2) =   0
                l(3) =   0
                l(4) =   1
                l(5) =   1
                l(6) =   2
                l(7) =   2
                l(8) =   3
     Q(r) pseudized with  6 coefficients,  rinner =    1.200   1.200   1.200
                                                       1.200   1.200   1.200
                                                       1.200

     PseudoPot. # 2 for Nb read from file:
     q-e/pseudo/nb_pbe_v1.uspp.F.UPF
     MD5 check sum: 573aab8a2fa660278ed4a62cd769473f
     Pseudo is Ultrasoft + core correction, Zval = 13.0
     Generated by new atomic code, or converted to UPF format
     Using radial grid of  887 points,  6 beta functions with: 
                l(1) =   0
                l(2) =   0
                l(3) =   1
                l(4) =   1
                l(5) =   2
                l(6) =   2
     Q(r) pseudized with  6 coefficients,  rinner =    1.000   1.000   1.000
                                                       1.000   1.000

     PseudoPot. # 3 for Ta read from file:
     q-e/pseudo/ta_pbe_v1.uspp.F.UPF
     MD5 check sum: f8bbe9446314a3b8ea5d9f3e3836c939
     Pseudo is Ultrasoft + core correction, Zval = 13.0
     Generated by new atomic code, or converted to UPF format
     Using radial grid of  921 points,  7 beta functions with: 
                l(1) =   0
                l(2) =   0
                l(3) =   1
                l(4) =   1
                l(5) =   2
                l(6) =   2
                l(7) =   3
     Q(r) pseudized with  6 coefficients,  rinner =    1.300   1.300   1.300
                                                       1.300   1.300   1.300
                                                       1.300

     PseudoPot. # 4 for Zr read from file:
     q-e/pseudo/zr_pbe_v1.uspp.F.UPF
     MD5 check sum: 5db81b1e868ab7776c4564c113de050b
     Pseudo is Ultrasoft + core correction, Zval = 12.0
     Generated by new atomic code, or converted to UPF format
     Using radial grid of  887 points,  6 beta functions with: 
                l(1) =   0
                l(2) =   0
                l(3) =   1
                l(4) =   1
                l(5) =   2
                l(6) =   2
     Q(r) pseudized with  6 coefficients,  rinner =    1.200   1.200   1.200
                                                       1.200   1.200

     PseudoPot. # 5 for H  read from file:
     q-e/pseudo/h_pbe_v1.4.uspp.F.UPF
     MD5 check sum: 761ae9a214b05c3daf00ab9f6b793d6f
     Pseudo is Ultrasoft, Zval =  1.0
     Generated by new atomic code, or converted to UPF format
     Using radial grid of  615 points,  2 beta functions with: 
                l(1) =   0
                l(2) =   0
     Q(r) pseudized with  8 coefficients,  rinner =    0.700

     atomic species   valence    mass     pseudopotential
        Hf            12.00   178.49000     Hf( 1.00)
        Nb            13.00    92.90637     Nb( 1.00)
        Ta            13.00   180.94788     Ta( 1.00)
        Zr            12.00    91.22400     Zr( 1.00)
        H              1.00     2.01400     H ( 1.00)

     Starting magnetic structure 
     atomic species   magnetization
        Hf           0.000
        Nb           0.000
        Ta           0.000
        Zr           0.000
        H            0.000

     No symmetry found



   Cartesian axes

     site n.     atom                  positions (alat units)
         1           Hf  tau(   1) = (   0.2858672   0.3026898   0.7070626  )
         2           Hf  tau(   2) = (   0.1341532   0.1377178   0.5415917  )
         3           Hf  tau(   3) = (   0.1344204   0.7911996   0.5447610  )
         4           Hf  tau(   4) = (   0.4375813   0.1377178   0.5415917  )
         5           Hf  tau(   5) = (   0.4373140   0.7911996   0.5447610  )
         6           Nb  tau(   6) = (   0.2858672   0.2994572   0.3764008  )
         7           Nb  tau(   7) = (   0.2858672   0.6291626   0.7103852  )
         8           Ta  tau(   8) = (   0.1294832   0.4647675   0.5429471  )
         9           Ta  tau(   9) = (   0.4422513   0.4647675   0.5429471  )
        10           Ta  tau(  10) = (   0.1399628   0.1406984   0.2204260  )
        11           Ta  tau(  11) = (   0.1394848   0.1400847   0.8666573  )
        12           Ta  tau(  12) = (   0.1396156   0.7897030   0.2190832  )
        13           Ta  tau(  13) = (   0.1400119   0.7885528   0.8657390  )
        14           Ta  tau(  14) = (   0.4317717   0.1406984   0.2204260  )
        15           Ta  tau(  15) = (   0.4322496   0.1400847   0.8666573  )
        16           Ta  tau(  16) = (   0.4321189   0.7897030   0.2190832  )
        17           Ta  tau(  17) = (   0.4317226   0.7885528   0.8657390  )
        18           Zr  tau(  18) = (   0.2858672   0.6280820   0.3776642  )
        19           Zr  tau(  19) = (   0.1331729   0.4627493   0.2141328  )
        20           Zr  tau(  20) = (   0.1328036   0.4661802   0.8725649  )
        21           Zr  tau(  21) = (   0.4385616   0.4627493   0.2141328  )
        22           Zr  tau(  22) = (   0.4389309   0.4661802   0.8725649  )
        23           H   tau(  23) = (   0.5936660   0.5957971   0.6187673  )

     number of k points=     1  Gaussian smearing, width (Ry)=  0.0220
                       cart. coord. in units 2pi/alat
        k(    1) = (   0.0000000   0.0000000   0.0000000), wk =   1.0000000

     Dense  grid:   493003 G-vectors     FFT dimensions: ( 125, 120, 135)

     Estimated max dynamical RAM per process >     133.03 MB

     Estimated total dynamical RAM >       5.46 GB

     Check: negative core charge=   -0.000002
     Generating pointlists ...
     new r_m :   0.1076 (alat units)  1.9000 (a.u.) for type    1
     new r_m :   0.1098 (alat units)  1.9374 (a.u.) for type    2
     new r_m :   0.0883 (alat units)  1.5589 (a.u.) for type    3
     new r_m :   0.1112 (alat units)  1.9625 (a.u.) for type    4
     new r_m :   0.0883 (alat units)  1.5589 (a.u.) for type    5

     Initial potential from superposition of free atoms

     starting charge     266.9726, renormalised to     277.0000

     negative rho (up, down):  9.217E-01 9.217E-01
     Starting wfcs are  287 randomized atomic wfcs

     total cpu time spent up to now is       21.9 secs

     Self-consistent Calculation

     iteration #  1     ecut=   120.00 Ry     beta= 0.70
     Davidson diagonalization with overlap
     ethr =  1.00E-02,  avg # of iterations =  2.0

     negative rho (up, down):  9.948E-01 9.944E-01

     total cpu time spent up to now is       65.0 secs

     total energy              =   -2930.55383767 Ry
     estimated scf accuracy    <     276.97364830 Ry

     total magnetization       =    -0.00 Bohr mag/cell
     absolute magnetization    =     0.09 Bohr mag/cell

     iteration #  2     ecut=   120.00 Ry     beta= 0.70
     Davidson diagonalization with overlap
     ethr =  1.00E-02,  avg # of iterations =  5.0

     negative rho (up, down):  9.685E-01 9.700E-01

     total cpu time spent up to now is       98.3 secs

     total energy              =   -2942.24595345 Ry
     estimated scf accuracy    <      29.94278174 Ry

     total magnetization       =     0.07 Bohr mag/cell
     absolute magnetization    =     0.43 Bohr mag/cell

     iteration #  3     ecut=   120.00 Ry     beta= 0.70
     Davidson diagonalization with overlap
     ethr =  1.00E-02,  avg # of iterations =  2.0

     negative rho (up, down):  1.003E+00 1.008E+00

     total cpu time spent up to now is      117.3 secs

     total energy              =   -2942.68894531 Ry
     estimated scf accuracy    <      12.87522639 Ry

     total magnetization       =     0.03 Bohr mag/cell
     absolute magnetization    =     0.57 Bohr mag/cell

     iteration #  4     ecut=   120.00 Ry     beta= 0.70
     Davidson diagonalization with overlap
     ethr =  4.65E-03,  avg # of iterations =  3.0

     negative rho (up, down):  1.013E+00 1.013E+00

     total cpu time spent up to now is      136.4 secs

     total energy              =   -2942.90534738 Ry
     estimated scf accuracy    <       3.21002151 Ry

     total magnetization       =     0.07 Bohr mag/cell
     absolute magnetization    =     0.59 Bohr mag/cell

     iteration #  5     ecut=   120.00 Ry     beta= 0.70
     Davidson diagonalization with overlap
     ethr =  1.16E-03,  avg # of iterations =  8.0

     negative rho (up, down):  9.875E-01 9.882E-01

     total cpu time spent up to now is      161.3 secs

     total energy              =   -2943.07666100 Ry
     estimated scf accuracy    <       1.76536042 Ry

     total magnetization       =     0.05 Bohr mag/cell
     absolute magnetization    =     0.31 Bohr mag/cell

     iteration #  6     ecut=   120.00 Ry     beta= 0.70
     Davidson diagonalization with overlap
     ethr =  6.37E-04,  avg # of iterations =  2.0

     negative rho (up, down):  9.726E-01 9.735E-01

     total cpu time spent up to now is      191.7 secs

     total energy              =   -2943.12520242 Ry
     estimated scf accuracy    <       1.01352038 Ry

     total magnetization       =     0.02 Bohr mag/cell
     absolute magnetization    =     0.22 Bohr mag/cell

     iteration #  7     ecut=   120.00 Ry     beta= 0.70
     Davidson diagonalization with overlap
     ethr =  3.66E-04,  avg # of iterations =  2.0

     negative rho (up, down):  9.471E-01 9.481E-01

     total cpu time spent up to now is      229.0 secs

     total energy              =   -2943.07351159 Ry
     estimated scf accuracy    <       0.42312489 Ry

     total magnetization       =     0.03 Bohr mag/cell
     absolute magnetization    =     0.18 Bohr mag/cell

     iteration #  8     ecut=   120.00 Ry     beta= 0.70
     Davidson diagonalization with overlap
     ethr =  1.53E-04,  avg # of iterations =  2.5

     negative rho (up, down):  9.198E-01 9.203E-01

     total cpu time spent up to now is      257.1 secs

     total energy              =   -2943.07434518 Ry
     estimated scf accuracy    <       0.17504858 Ry

     total magnetization       =     0.04 Bohr mag/cell
     absolute magnetization    =     0.15 Bohr mag/cell

     iteration #  9     ecut=   120.00 Ry     beta= 0.70
     Davidson diagonalization with overlap
     ethr =  6.32E-05,  avg # of iterations = 14.0

     negative rho (up, down):  9.077E-01 9.077E-01

     total cpu time spent up to now is      278.6 secs

     total energy              =   -2943.06830538 Ry
     estimated scf accuracy    <       0.05780073 Ry

     total magnetization       =     0.03 Bohr mag/cell
     absolute magnetization    =     0.10 Bohr mag/cell

     iteration # 10     ecut=   120.00 Ry     beta= 0.70
     Davidson diagonalization with overlap
     ethr =  2.09E-05,  avg # of iterations =  6.0

     negative rho (up, down):  9.085E-01 9.085E-01

     total cpu time spent up to now is      299.3 secs

     total energy              =   -2943.07313508 Ry
     estimated scf accuracy    <       0.03153467 Ry

     total magnetization       =     0.03 Bohr mag/cell
     absolute magnetization    =     0.07 Bohr mag/cell

     iteration # 11     ecut=   120.00 Ry     beta= 0.70
     Davidson diagonalization with overlap
     ethr =  1.14E-05,  avg # of iterations =  3.5

     negative rho (up, down):  9.092E-01 9.092E-01

     total cpu time spent up to now is      317.7 secs

     total energy              =   -2943.07672409 Ry
     estimated scf accuracy    <       0.00756233 Ry

     total magnetization       =     0.03 Bohr mag/cell
     absolute magnetization    =     0.06 Bohr mag/cell

     iteration # 12     ecut=   120.00 Ry     beta= 0.70
     Davidson diagonalization with overlap
     c_bands:  1 eigenvalues not converged
     ethr =  2.73E-06,  avg # of iterations = 19.5

     negative rho (up, down):  9.092E-01 9.092E-01

     total cpu time spent up to now is      357.0 secs

     total energy              =   -2943.07917993 Ry
     estimated scf accuracy    <       0.00187852 Ry

     total magnetization       =     0.03 Bohr mag/cell
     absolute magnetization    =     0.04 Bohr mag/cell

     iteration # 13     ecut=   120.00 Ry     beta= 0.70
     Davidson diagonalization with overlap
     ethr =  6.78E-07,  avg # of iterations =  3.0

     negative rho (up, down):  9.090E-01 9.090E-01

     Magnetic moment per site  (integrated on atomic sphere of radius R)
     atom   1 (R=0.108)  charge=  9.1665    0.0000
     atom   2 (R=0.108)  charge=  8.8223   -0.0001
     atom   3 (R=0.108)  charge=  8.8213    0.0000
     atom   4 (R=0.108)  charge=  8.8221    0.0002
     atom   5 (R=0.108)  charge=  8.8164    0.0001
     atom   6 (R=0.110)  charge= 10.3492    0.0002
     atom   7 (R=0.110)  charge= 10.3526   -0.0001
     atom   8 (R=0.088)  charge=  8.1250    0.0001
     atom   9 (R=0.088)  charge=  8.1226    0.0003
     atom  10 (R=0.088)  charge=  8.1060   -0.0000
     atom  11 (R=0.088)  charge=  8.1030    0.0004
     atom  12 (R=0.088)  charge=  8.1062   -0.0003
     atom  13 (R=0.088)  charge=  8.1020    0.0002
     atom  14 (R=0.088)  charge=  8.1055    0.0010
     atom  15 (R=0.088)  charge=  8.1011    0.0013
     atom  16 (R=0.088)  charge=  8.1057   -0.0002
     atom  17 (R=0.088)  charge=  8.1086    0.0012
     atom  18 (R=0.111)  charge=  9.4534    0.0002
     atom  19 (R=0.111)  charge=  8.9984   -0.0001
     atom  20 (R=0.111)  charge=  8.9949   -0.0003
     atom  21 (R=0.111)  charge=  8.9973    0.0008
     atom  22 (R=0.111)  charge=  8.9979    0.0004
     atom  23 (R=0.088)  charge=  1.0020   -0.0000

     total cpu time spent up to now is      396.6 secs

     End of self-consistent calculation

 ------ SPIN UP ------------


          k = 0.0000 0.0000 0.0000 ( 61588 PWs)   bands (ev):

   -60.7868 -60.7825 -60.7452 -60.7382 -60.7075 -60.7024 -60.6634 -60.6581
   -60.5463 -60.4310 -54.3723 -54.3203 -54.2463 -54.1950 -52.7048 -46.2957
   -46.2630 -41.6629 -41.6387 -41.5675 -41.5376 -39.8072 -27.7881 -27.7825
   -27.7010 -27.6971 -27.6032 -27.5958 -27.4737 -27.4656 -27.4002 -27.3395
   -27.3166 -27.2782 -27.2664 -27.2473 -27.2314 -27.1812 -27.1709 -27.1605
   -27.1127 -27.0816 -27.0346 -26.9697 -26.9646 -26.9592 -26.9526 -26.9383
   -26.8942 -26.8889 -26.8616 -26.8581 -24.1625 -23.9463 -23.6553 -23.5529
   -23.3077 -23.1815 -23.1549 -23.0570 -22.9253 -22.8457 -22.8238 -22.5986
   -22.5239 -22.4641 -22.4035 -22.3708 -22.2783 -22.2401 -21.7631 -21.6985
   -21.6330 -20.2041 -19.9661 -19.8428 -19.8349 -19.6523 -19.6170 -19.6088
   -19.5984 -19.5841 -19.5495 -19.3878 -19.3766 -18.1525 -17.9497 -17.8240
     1.3802   2.6392   2.9284   3.1325   3.3269   3.4167   3.5041   3.6711
     3.6914   3.8109   3.9074   4.0414   4.1744   4.4992   4.6591   4.6879
     4.7568   4.8101   5.0358   5.1037   5.1795   5.2595   5.2812   5.3375
     5.3886   5.5448   5.5939   5.7116   5.7261   5.7482   5.7518   5.8054
     5.9521   6.0713   6.1649   6.2132   6.2692   6.2824   6.3539   6.3915
     6.4422   6.5916   6.6515   6.7008   6.8996   6.9520   7.0046   7.0677
     7.1002   7.1508   7.2565   7.2905   7.3128   7.4411   7.5453   7.5725
     7.6102   7.7654   7.8911   7.9011   8.0797   8.0925   8.1086   8.1886
     8.2397   8.2805   8.3460   8.3698   8.4507   8.5502   8.6350   8.6775
     8.8343   8.8996   8.9690   9.0650   9.1503   9.2307   9.2716

 ------ SPIN DOWN ----------


          k = 0.0000 0.0000 0.0000 ( 61588 PWs)   bands (ev):

   -60.7867 -60.7817 -60.7453 -60.7373 -60.7072 -60.7015 -60.6635 -60.6573
   -60.5461 -60.4305 -54.3723 -54.3202 -54.2463 -54.1949 -52.7049 -46.2957
   -46.2627 -41.6627 -41.6385 -41.5677 -41.5375 -39.8070 -27.7873 -27.7819
   -27.7009 -27.6958 -27.6024 -27.5952 -27.4733 -27.4652 -27.3999 -27.3391
   -27.3161 -27.2783 -27.2654 -27.2466 -27.2308 -27.1810 -27.1709 -27.1597
   -27.1122 -27.0810 -27.0337 -26.9693 -26.9636 -26.9588 -26.9515 -26.9378
   -26.8930 -26.8889 -26.8617 -26.8570 -24.1626 -23.9463 -23.6553 -23.5528
   -23.3076 -23.1814 -23.1549 -23.0569 -22.9253 -22.8457 -22.8237 -22.5985
   -22.5237 -22.4639 -22.4034 -22.3709 -22.2782 -22.2400 -21.7631 -21.6985
   -21.6329 -20.2037 -19.9664 -19.8426 -19.8351 -19.6518 -19.6170 -19.6089
   -19.5985 -19.5841 -19.5498 -19.3878 -19.3762 -18.1525 -17.9495 -17.8237
     1.3809   2.6397   2.9293   3.1329   3.3274   3.4178   3.5048   3.6715
     3.6920   3.8112   3.9084   4.0418   4.1752   4.4998   4.6596   4.6887
     4.7576   4.8105   5.0368   5.1040   5.1799   5.2598   5.2820   5.3382
     5.3898   5.5452   5.5943   5.7124   5.7266   5.7487   5.7521   5.8059
     5.9526   6.0723   6.1654   6.2138   6.2696   6.2831   6.3544   6.3919
     6.4432   6.5920   6.6521   6.7014   6.9002   6.9532   7.0063   7.0687
     7.1028   7.1518   7.2587   7.2927   7.3136   7.4439   7.5458   7.5737
     7.6112   7.7667   7.8919   7.9016   8.0810   8.0933   8.1092   8.1899
     8.2413   8.2810   8.3476   8.3705   8.4513   8.5510   8.6358   8.6781
     8.8350   8.9012   8.9699   9.0652   9.1510   9.2312   9.2685

     the Fermi energy is     7.2401 ev

!    total energy              =   -2943.08032297 Ry
     estimated scf accuracy    <       0.00050610 Ry
     smearing contrib. (-TS)   =      -0.10166050 Ry
     internal energy E=F+TS    =   -2942.97866247 Ry

     total magnetization       =     0.02 Bohr mag/cell
     absolute magnetization    =     0.04 Bohr mag/cell

     convergence has been achieved in  13 iterations

     negative rho (up, down):  9.090E-01 9.090E-01

     Forces acting on atoms (cartesian axes, Ry/au):

     atom    1 type  1   force =    -0.00141408   -0.02338039    0.00774231
     atom    2 type  1   force =    -0.11559468   -0.01708544   -0.00404424
     atom    3 type  1   force =    -0.11500897    0.01431533    0.00175490
     atom    4 type  1   force =     0.11700985   -0.00884508   -0.00641119
     atom    5 type  1   force =     0.13229524   -0.01316210    0.00510925
     atom    6 type  2   force =    -0.01080101   -0.01953414    0.00629556
     atom    7 type  2   force =    -0.02385448    0.00890800   -0.01426551
     atom    8 type  3   force =    -0.10964911    0.00397608   -0.00322071
     atom    9 type  3   force =     0.14224067    0.01966217   -0.00099316
     atom   10 type  3   force =    -0.01974145   -0.03041139   -0.05866891
     atom   11 type  3   force =    -0.02162289   -0.03403772    0.05701078
     atom   12 type  3   force =    -0.01851565    0.03607043   -0.05423154
     atom   13 type  3   force =    -0.01312145    0.03118922    0.06334642
     atom   14 type  3   force =     0.02084815   -0.03109191   -0.05958779
     atom   15 type  3   force =     0.01912445   -0.03812177    0.06026236
     atom   16 type  3   force =     0.01917770    0.03961113   -0.05218846
     atom   17 type  3   force =     0.01330899    0.04389863    0.06403316
     atom   18 type  4   force =    -0.00169947    0.02330536   -0.00685410
     atom   19 type  4   force =    -0.12986770   -0.00590228   -0.11607216
     atom   20 type  4   force =    -0.13027963    0.00458301    0.11744011
     atom   21 type  4   force =     0.12646243   -0.00881537   -0.11563928
     atom   22 type  4   force =     0.13637545    0.00058281    0.11489836
     atom   23 type  5   force =    -0.01567238    0.00428542   -0.00571615
     The non-local contrib.  to forces
     atom    1 type  1   force =     0.00144161   -0.00955386    0.02945167
     atom    2 type  1   force =    -0.24876473   -0.16055959    0.01342590
     atom    3 type  1   force =    -0.23884616    0.15381920   -0.02154883
     atom    4 type  1   force =     0.24696549   -0.16424918    0.02046037
     atom    5 type  1   force =     0.23156397    0.14851450   -0.01025887
     atom    6 type  2   force =     0.00694447   -0.05434547   -0.06760377
     atom    7 type  2   force =    -0.02177268    0.06722907    0.06370862
     atom    8 type  3   force =    -0.25912030    0.00521258    0.00020554
     atom    9 type  3   force =     0.15453506   -0.05139611   -0.01828809
     atom   10 type  3   force =    -0.21146329    0.00353863   -0.20727450
     atom   11 type  3   force =    -0.21495401    0.00435904    0.19835335
     atom   12 type  3   force =    -0.20721049   -0.02101447   -0.17681622
     atom   13 type  3   force =    -0.21154818   -0.00515649    0.20245167
     atom   14 type  3   force =     0.20892458    0.00273337   -0.21840437
     atom   15 type  3   force =     0.21568547    0.00354694    0.19633460
     atom   16 type  3   force =     0.20556137   -0.01963928   -0.18306335
     atom   17 type  3   force =     0.24856533   -0.02759330    0.17188606
     atom   18 type  4   force =    -0.01040276    0.05751636   -0.06173606
     atom   19 type  4   force =     0.06183730    0.00759102    0.07283917
     atom   20 type  4   force =     0.05780647   -0.02109874   -0.06350750
     atom   21 type  4   force =    -0.05934718    0.01118182    0.07148030
     atom   22 type  4   force =    -0.05977250   -0.01105685   -0.06297948
     atom   23 type  5   force =    -0.03358070   -0.01402106   -0.01503934
     The ionic contribution  to forces
     atom    1 type  1   force =    -0.21148423   -4.74111699   14.03294616
     atom    2 type  1   force =   -39.68751861   -6.11701304    0.74419821
     atom    3 type  1   force =   -39.69854438    6.20139056   -0.76883330
     atom    4 type  1   force =    39.52674118   -6.12771257    0.70722995
     atom    5 type  1   force =    38.99262325    6.86384475   -1.02602497
     atom    6 type  2   force =    -0.14513075   -3.63718137  -13.99541384
     atom    7 type  2   force =    -0.62971745    3.62977727   14.09308517
     atom    8 type  3   force =   -52.15479482   -0.01887936   -0.13220502
     atom    9 type  3   force =    50.83611550   -0.98504820   -0.69649733
     atom   10 type  3   force =   -36.05677644   -2.08281961  -23.07885383
     atom   11 type  3   force =   -35.14042818   -0.83727587   22.10781752
     atom   12 type  3   force =   -35.25094977    0.82836029  -22.15668633
     atom   13 type  3   force =   -36.06587933    2.24192734   23.12789986
     atom   14 type  3   force =    35.97839299   -2.08602008  -23.12166478
     atom   15 type  3   force =    35.01599250   -0.84497654   22.17944471
     atom   16 type  3   force =    35.11699233    0.89022369  -22.27246195
     atom   17 type  3   force =    35.74302534    2.46234464   23.42119564
     atom   18 type  4   force =    -0.29131078    4.36581002  -14.08205321
     atom   19 type  4   force =   -35.90229806    0.92322265  -25.55453660
     atom   20 type  4   force =   -35.90826210   -1.00855152   25.57887752
     atom   21 type  4   force =    35.76994862    0.87333795  -25.68709208
     atom   22 type  4   force =    35.54880398   -1.20463537   25.96864401
     atom   23 type  5   force =     4.61445920    0.41099132    0.61098450
     The local contribution  to forces
     atom    1 type  1   force =     0.21032212    4.72441945  -14.05888185
     atom    2 type  1   force =    39.84214906    6.25815147   -0.76788894
     atom    3 type  1   force =    39.84496045   -6.33708138    0.78548655
     atom    4 type  1   force =   -39.67784834    6.28337650   -0.74304364
     atom    5 type  1   force =   -39.10632266   -7.03013975    1.03614274
     atom    6 type  2   force =     0.13121821    3.66586269   14.06014083
     atom    7 type  2   force =     0.63283321   -3.68884580  -14.17899805
     atom    8 type  3   force =    52.33875806    0.01474732    0.12078082
     atom    9 type  3   force =   -50.86481132    1.06375969    0.70883275
     atom   10 type  3   force =    36.27434893    2.03971899   23.24567895
     atom   11 type  3   force =    35.36238695    0.79548394  -22.26763611
     atom   12 type  3   force =    35.46687179   -0.75386213   22.29662225
     atom   13 type  3   force =    36.29053633   -2.19234234  -23.28200712
     atom   14 type  3   force =   -36.19021933    2.04006034   23.29809312
     atom   15 type  3   force =   -35.24027132    0.79571783  -22.33106997
     atom   16 type  3   force =   -35.32628586   -0.81442454   22.42071438
     atom   17 type  3   force =   -36.00152270   -2.38013042  -23.54176336
     atom   18 type  4   force =     0.30546835   -4.39731356   14.13085221
     atom   19 type  4   force =    35.72051631   -0.94193270   25.37813064
     atom   20 type  4   force =    35.72929108    1.02711849  -25.40760995
     atom   21 type  4   force =   -35.59016880   -0.89577700   25.51479171
     atom   22 type  4   force =   -35.35960233    1.21238541  -25.80217281
     atom   23 type  5   force =    -4.59683316   -0.39339349   -0.60283597
     The core correction contribution to forces
     atom    1 type  1   force =     0.00059097    0.00138117   -0.00077715
     atom    2 type  1   force =    -0.01150407   -0.00120937    0.00021179
     atom    3 type  1   force =    -0.01199843    0.00243699   -0.00115930
     atom    4 type  1   force =     0.01212178   -0.00205622    0.00236414
     atom    5 type  1   force =     0.00643922    0.00743050   -0.00212134
     atom    6 type  2   force =    -0.00036740    0.00262524    0.00286403
     atom    7 type  2   force =     0.00113439   -0.00345588   -0.00255378
     atom    8 type  3   force =    -0.03139598    0.00095113    0.00019731
     atom    9 type  3   force =     0.01703765   -0.00917702   -0.00360447
     atom   10 type  3   force =    -0.02214790    0.00917186   -0.01669159
     atom   11 type  3   force =    -0.02418794    0.00873124    0.01830404
     atom   12 type  3   force =    -0.02207031   -0.01015515   -0.01536865
     atom   13 type  3   force =    -0.02287291   -0.00956328    0.01592152
     atom   14 type  3   force =     0.02168958    0.00978859   -0.01656607
     atom   15 type  3   force =     0.02338573    0.00982580    0.01576113
     atom   16 type  3   force =     0.02291659   -0.01126255   -0.01537289
     atom   17 type  3   force =     0.02479150   -0.00952019    0.01336925
     atom   18 type  4   force =     0.00055702   -0.00304836    0.00295390
     atom   19 type  4   force =    -0.00982242    0.00008939   -0.00955633
     atom   20 type  4   force =    -0.00971775    0.00076057    0.00909714
     atom   21 type  4   force =     0.00971124   -0.00003619   -0.00946629
     atom   22 type  4   force =     0.01024693    0.00059135    0.00851701
     atom   23 type  5   force =     0.00000000    0.00000000    0.00000000
     The Hubbard contrib.    to forces
     atom    1 type  1   force =     0.00000000    0.00000000    0.00000000
     atom    2 type  1   force =     0.00000000    0.00000000    0.00000000
     atom    3 type  1   force =     0.00000000    0.00000000    0.00000000
     atom    4 type  1   force =     0.00000000    0.00000000    0.00000000
     atom    5 type  1   force =     0.00000000    0.00000000    0.00000000
     atom    6 type  2   force =     0.00000000    0.00000000    0.00000000
     atom    7 type  2   force =     0.00000000    0.00000000    0.00000000
     atom    8 type  3   force =     0.00000000    0.00000000    0.00000000
     atom    9 type  3   force =     0.00000000    0.00000000    0.00000000
     atom   10 type  3   force =     0.00000000    0.00000000    0.00000000
     atom   11 type  3   force =     0.00000000    0.00000000    0.00000000
     atom   12 type  3   force =     0.00000000    0.00000000    0.00000000
     atom   13 type  3   force =     0.00000000    0.00000000    0.00000000
     atom   14 type  3   force =     0.00000000    0.00000000    0.00000000
     atom   15 type  3   force =     0.00000000    0.00000000    0.00000000
     atom   16 type  3   force =     0.00000000    0.00000000    0.00000000
     atom   17 type  3   force =     0.00000000    0.00000000    0.00000000
     atom   18 type  4   force =     0.00000000    0.00000000    0.00000000
     atom   19 type  4   force =     0.00000000    0.00000000    0.00000000
     atom   20 type  4   force =     0.00000000    0.00000000    0.00000000
     atom   21 type  4   force =     0.00000000    0.00000000    0.00000000
     atom   22 type  4   force =     0.00000000    0.00000000    0.00000000
     atom   23 type  5   force =     0.00000000    0.00000000    0.00000000
     The SCF correction term to forces
     atom    1 type  1   force =    -0.00198428    0.00150567    0.00446818
     atom    2 type  1   force =    -0.00965606    0.00356093    0.00547350
     atom    3 type  1   force =    -0.01028019   -0.00623421    0.00727447
     atom    4 type  1   force =     0.00933001    0.00181222    0.00604269
     atom    5 type  1   force =     0.00829173   -0.00279627    0.00683639
     atom    6 type  2   force =    -0.00316528    0.00352061    0.00577300
     atom    7 type  2   force =    -0.00603168    0.00421917    0.00995722
     atom    8 type  3   force =    -0.00279580    0.00196024    0.00726534
     atom    9 type  3   force =    -0.00033595    0.00153964    0.00802867
     atom   10 type  3   force =    -0.00340248   -0.00000542   -0.00206324
     atom   11 type  3   force =    -0.00413943   -0.00532024   -0.00036333
     atom   12 type  3   force =    -0.00485659   -0.00724229   -0.00251789
     atom   13 type  3   force =    -0.00305708   -0.00366018   -0.00145481
     atom   14 type  3   force =     0.00236060    0.00236170   -0.00158100
     atom   15 type  3   force =     0.00463234   -0.00221997   -0.00074341
     atom   16 type  3   force =     0.00029354   -0.00527036   -0.00253995
     atom   17 type  3   force =    -0.00125019   -0.00118627   -0.00118974
     atom   18 type  4   force =    -0.00571103    0.00035674    0.00259377
     atom   19 type  4   force =     0.00019944    0.00514318   -0.00348434
     atom   20 type  4   force =     0.00090295    0.00637004    0.00004760
     atom   21 type  4   force =    -0.00338118    0.00249388   -0.00588822
     atom   22 type  4   force =    -0.00300035    0.00331410    0.00235432
     atom   23 type  5   force =     0.00058255    0.00072447    0.00063935

     Total force =     0.507169     Total SCF correction =     0.037372


     Computing stress (Cartesian axis) and pressure


     negative rho (up, down):  9.090E-01 9.090E-01
          total   stress  (Ry/bohr**3)                   (kbar)     P=       82.86
   0.00065975   0.00000412  -0.00000312           97.05        0.61       -0.46
   0.00000412   0.00064344  -0.00000387            0.61       94.65       -0.57
  -0.00000312  -0.00000387   0.00038658           -0.46       -0.57       56.87


     Molecular Dynamics Calculation

     Starting temperature  =   300.00 K

     temperature is set once at start

     mass Hf               =   178.49
     mass Nb               =    92.91
     mass Ta               =   180.95
     mass Zr               =    91.22
     mass H                =     2.01
     Time step             =     4.20 a.u.,  0.2032 femto-seconds

     Entering Dynamics:    iteration =     1
                           time      =   0.0002 pico-seconds


ATOMIC_POSITIONS (angstrom)
Hf            2.6700627676        2.8271767946        6.6039958663
Hf            1.2530502150        1.2863381274        5.0584975356
Hf            1.2555464502        7.3898591417        5.0880992433
Hf            4.0870754419        1.2863383638        5.0584974677
Hf            4.0845796620        7.3898583534        5.0880993395
Nb            2.6700622128        2.7969839650        3.5156149893
Nb            2.6700614933        5.8764336035        6.6350285825
Ta            1.2094328041        4.3409824003        5.0711571667
Ta            4.1306937345        4.3409828442        5.0711572298
Ta            1.3073149766        1.3141761650        2.0588088753
Ta            1.3028505534        1.3084446089        8.0946122414
Ta            1.3040719492        7.3758815811        2.0462670706
Ta            1.3077732782        7.3651382673        8.0860354391
Ta            4.0328106710        1.3141761457        2.0588088493
Ta            4.0372749922        1.3084444934        8.0946123334
Ta            4.0360536858        7.3758816813        2.0462671284
Ta            4.0323523434        7.3651386269        8.0860354585
Zr            2.6700627127        5.8663415878        3.5274149712
Zr            1.2438901801        4.3221320694        2.0000249099
Zr            1.2404409506        4.3541779780        8.1497935673
Zr            4.0962352451        4.3221319059        2.0000249342
Zr            4.0996850078        4.3541777534        8.1497934246
H             5.4404482922        5.4743748270        5.7270959023


     kinetic energy (Ekin) =           4.04936699 Ry
     temperature           =       19374.07516086 K 
     Ekin + Etot (const)   =       -2939.03095598 Ry
     Ions kinetic stress =           71.52 (kbar)
                                    107.27          92.90          53.63
                                     92.90          80.47          46.45
                                     53.63          46.45          26.82



     Linear momentum :   -0.0000000000    0.0000000000   -0.0000000000

     File outdir/pwscf.msd.dat deleted, as requested

     Writing config-only to output data dir outdir/pwscf.save/
     NEW-OLD atomic charge density approx. for the potential

     Check: negative core charge=   -0.000002

     negative rho (up, down):  9.089E-01 9.089E-01
     Generating pointlists ...
     new r_m :   0.0818 (alat units)  1.4437 (a.u.) for type    3
     new r_m :   0.0818 (alat units)  1.4437 (a.u.) for type    5

     total cpu time spent up to now is      431.9 secs

     Self-consistent Calculation

     iteration #  1     ecut=   120.00 Ry     beta= 0.70
     Davidson diagonalization with overlap
     ethr =  1.00E-06,  avg # of iterations = 11.5

     negative rho (up, down):  9.089E-01 9.089E-01

     total cpu time spent up to now is      465.6 secs

     total energy              =   -2943.07525824 Ry
     estimated scf accuracy    <       0.04016024 Ry

     total magnetization       =     0.02 Bohr mag/cell
     absolute magnetization    =     0.03 Bohr mag/cell

     iteration #  2     ecut=   120.00 Ry     beta= 0.70
     Davidson diagonalization with overlap
     ethr =  1.45E-05,  avg # of iterations =  2.0

     negative rho (up, down):  9.089E-01 9.089E-01

     total cpu time spent up to now is      483.4 secs

     total energy              =   -2943.07776459 Ry
     estimated scf accuracy    <       0.02480433 Ry

     total magnetization       =     0.02 Bohr mag/cell
     absolute magnetization    =     0.03 Bohr mag/cell

     iteration #  3     ecut=   120.00 Ry     beta= 0.70
     Davidson diagonalization with overlap
     ethr =  8.95E-06,  avg # of iterations =  1.0

     negative rho (up, down):  9.090E-01 9.090E-01

     Magnetic moment per site  (integrated on atomic sphere of radius R)
     atom   1 (R=0.108)  charge=  9.1684   -0.0000
     atom   2 (R=0.108)  charge=  8.8205   -0.0000
     atom   3 (R=0.108)  charge=  8.8211    0.0000
     atom   4 (R=0.108)  charge=  8.8226    0.0000
     atom   5 (R=0.108)  charge=  8.8153    0.0001
     atom   6 (R=0.110)  charge= 10.3485    0.0000
     atom   7 (R=0.110)  charge= 10.3536    0.0000
     atom   8 (R=0.082)  charge=  7.4365    0.0000
     atom   9 (R=0.082)  charge=  7.4365    0.0001
     atom  10 (R=0.082)  charge=  7.4186    0.0001
     atom  11 (R=0.082)  charge=  7.4201    0.0003
     atom  12 (R=0.082)  charge=  7.4161   -0.0000
     atom  13 (R=0.082)  charge=  7.4171    0.0002
     atom  14 (R=0.082)  charge=  7.4183    0.0005
     atom  15 (R=0.082)  charge=  7.4195    0.0008
     atom  16 (R=0.082)  charge=  7.4173    0.0001
     atom  17 (R=0.082)  charge=  7.4241    0.0007
     atom  18 (R=0.111)  charge=  9.4524    0.0001
     atom  19 (R=0.111)  charge=  8.9958    0.0001
     atom  20 (R=0.111)  charge=  8.9948   -0.0001
     atom  21 (R=0.111)  charge=  8.9961    0.0008
     atom  22 (R=0.111)  charge=  8.9977    0.0006
     atom  23 (R=0.082)  charge=  0.9663    0.0000

     total cpu time spent up to now is      511.1 secs

     End of self-consistent calculation

 ------ SPIN UP ------------


          k = 0.0000 0.0000 0.0000 ( 61588 PWs)   bands (ev):

   -60.7663 -60.7627 -60.7225 -60.7208 -60.6892 -60.6815 -60.6461 -60.6342
   -60.5209 -60.3007 -54.3567 -54.3089 -54.2303 -54.1810 -52.6957 -46.2748
   -46.2549 -41.6432 -41.6257 -41.5466 -41.5242 -39.7988 -27.7730 -27.7590
   -27.6838 -27.6757 -27.5855 -27.5730 -27.4597 -27.4396 -27.3627 -27.3191
   -27.2914 -27.2554 -27.2510 -27.2277 -27.2092 -27.1625 -27.1453 -27.1377
   -27.0866 -26.9847 -26.9544 -26.9420 -26.9381 -26.9291 -26.9155 -26.8828
   -26.8733 -26.8594 -26.8462 -26.8336 -24.1475 -23.9308 -23.6418 -23.5393
   -23.2930 -23.1657 -23.1415 -23.0409 -22.9106 -22.8337 -22.8094 -22.5857
   -22.5079 -22.4518 -22.3880 -22.3546 -22.2651 -22.2252 -21.7514 -21.6863
   -21.6234 -20.1903 -19.9475 -19.8292 -19.8203 -19.6319 -19.5999 -19.5916
   -19.5799 -19.5694 -19.5305 -19.3690 -19.3620 -18.1421 -17.9391 -17.8152
     1.3524   2.5159   2.9456   3.1519   3.3391   3.4424   3.5189   3.6915
     3.7138   3.8254   3.9246   4.0580   4.1988   4.5174   4.6780   4.7001
     4.7806   4.8175   5.0512   5.1179   5.1931   5.2781   5.2962   5.3470
     5.4026   5.5618   5.6207   5.7315   5.7428   5.7658   5.7753   5.8271
     5.9698   6.0894   6.1853   6.2332   6.2835   6.3051   6.3696   6.4057
     6.4510   6.6125   6.6666   6.7174   6.9159   6.9706   7.0175   7.0810
     7.1087   7.1652   7.2661   7.2945   7.3303   7.4536   7.5609   7.5779
     7.6284   7.7766   7.9069   7.9197   8.0927   8.0987   8.1243   8.2013
     8.2599   8.3010   8.3625   8.3858   8.4761   8.5654   8.6478   8.6912
     8.8501   8.9079   8.9864   9.0804   9.1613   9.2614   9.2873

 ------ SPIN DOWN ----------


          k = 0.0000 0.0000 0.0000 ( 61588 PWs)   bands (ev):

   -60.7656 -60.7625 -60.7218 -60.7207 -60.6884 -60.6812 -60.6454 -60.6342
   -60.5208 -60.3006 -54.3567 -54.3089 -54.2303 -54.1810 -52.6957 -46.2747
   -46.2548 -41.6428 -41.6253 -41.5465 -41.5239 -39.7987 -27.7720 -27.7587
   -27.6829 -27.6754 -27.5846 -27.5725 -27.4588 -27.4395 -27.3624 -27.3187
   -27.2911 -27.2551 -27.2503 -27.2270 -27.2088 -27.1622 -27.1452 -27.1373
   -27.0865 -26.9845 -26.9536 -26.9415 -26.9372 -26.9288 -26.9152 -26.8820
   -26.8730 -26.8593 -26.8454 -26.8335 -24.1475 -23.9308 -23.6418 -23.5393
   -23.2930 -23.1656 -23.1414 -23.0409 -22.9106 -22.8336 -22.8094 -22.5857
   -22.5078 -22.4517 -22.3880 -22.3546 -22.2651 -22.2251 -21.7514 -21.6863
   -21.6234 -20.1897 -19.9474 -19.8286 -19.8201 -19.6313 -19.5995 -19.5915
   -19.5798 -19.5693 -19.5305 -19.3688 -19.3614 -18.1421 -17.9390 -17.8150
     1.3529   2.5162   2.9463   3.1521   3.3394   3.4433   3.5193   3.6916
     3.7142   3.8257   3.9255   4.0583   4.1993   4.5177   4.6783   4.7006
     4.7812   4.8178   5.0521   5.1182   5.1934   5.2785   5.2968   5.3475
     5.4036   5.5621   5.6209   5.7321   5.7433   5.7663   5.7755   5.8275
     5.9702   6.0901   6.1858   6.2337   6.2838   6.3056   6.3700   6.4062
     6.4519   6.6129   6.6671   6.7178   6.9164   6.9717   7.0190   7.0820
     7.1112   7.1660   7.2682   7.2961   7.3309   7.4558   7.5615   7.5791
     7.6294   7.7778   7.9075   7.9203   8.0936   8.0998   8.1249   8.2025
     8.2612   8.3015   8.3638   8.3865   8.4767   8.5662   8.6484   8.6919
     8.8506   8.9095   8.9872   9.0808   9.1619   9.2618   9.2863

     the Fermi energy is     7.2521 ev

!    total energy              =   -2943.07849595 Ry
     estimated scf accuracy    <       0.00092854 Ry
     smearing contrib. (-TS)   =      -0.10197523 Ry
     internal energy E=F+TS    =   -2942.97652072 Ry

     total magnetization       =     0.02 Bohr mag/cell
     absolute magnetization    =     0.03 Bohr mag/cell

     convergence has been achieved in   3 iterations

     negative rho (up, down):  9.090E-01 9.090E-01

     Forces acting on atoms (cartesian axes, Ry/au):

     atom    1 type  1   force =    -0.00404861   -0.02782616    0.01716450
     atom    2 type  1   force =    -0.12210312   -0.01578221    0.00605432
     atom    3 type  1   force =    -0.12160063    0.01261268    0.01210349
     atom    4 type  1   force =     0.12432583   -0.01070722    0.00429203
     atom    5 type  1   force =     0.13507667   -0.01328302    0.01549794
     atom    6 type  2   force =    -0.01185046   -0.02139911    0.00191586
     atom    7 type  2   force =    -0.02393274    0.00973569   -0.01547580
     atom    8 type  3   force =    -0.11376450    0.00521050    0.00077680
     atom    9 type  3   force =     0.12854257    0.00404384   -0.00867346
     atom   10 type  3   force =    -0.02116564   -0.02780561   -0.06280897
     atom   11 type  3   force =    -0.02201215   -0.03384994    0.05336975
     atom   12 type  3   force =    -0.02147609    0.03428160   -0.05931721
     atom   13 type  3   force =    -0.01297761    0.03191944    0.05988241
     atom   14 type  3   force =     0.02225236   -0.02929443   -0.06432334
     atom   15 type  3   force =     0.01958892   -0.03900309    0.05687493
     atom   16 type  3   force =     0.02272521    0.03748385   -0.05730715
     atom   17 type  3   force =     0.01286798    0.04403409    0.06032601
     atom   18 type  4   force =    -0.00203473    0.02434201   -0.00977381
     atom   19 type  4   force =    -0.12927959   -0.00550195   -0.11983328
     atom   20 type  4   force =    -0.13057513    0.00437882    0.11432658
     atom   21 type  4   force =     0.12485855   -0.00814884   -0.12103203
     atom   22 type  4   force =     0.13439940    0.00134739    0.11364877
     atom   23 type  5   force =     0.01218350    0.02321167    0.00231167
     The non-local contrib.  to forces
     atom    1 type  1   force =    -0.00023815   -0.01197723    0.03505454
     atom    2 type  1   force =    -0.25199604   -0.15912353    0.02009113
     atom    3 type  1   force =    -0.24356120    0.15191218   -0.01515054
     atom    4 type  1   force =     0.25036404   -0.16589609    0.02701696
     atom    5 type  1   force =     0.23803070    0.14548458   -0.00498382
     atom    6 type  2   force =     0.00803292   -0.05513494   -0.06880910
     atom    7 type  2   force =    -0.01811894    0.06766239    0.06564067
     atom    8 type  3   force =    -0.25994684    0.00481885    0.00456024
     atom    9 type  3   force =     0.13573497   -0.06528133   -0.02355407
     atom   10 type  3   force =    -0.21250856    0.00369612   -0.21116408
     atom   11 type  3   force =    -0.21412096    0.00495874    0.19595458
     atom   12 type  3   force =    -0.20780115   -0.02247767   -0.17941852
     atom   13 type  3   force =    -0.20824924   -0.00565853    0.20065313
     atom   14 type  3   force =     0.20819912    0.00383893   -0.22085735
     atom   15 type  3   force =     0.21317249    0.00232906    0.19488490
     atom   16 type  3   force =     0.20590190   -0.02163059   -0.18469217
     atom   17 type  3   force =     0.24058319   -0.02384358    0.17552306
     atom   18 type  4   force =    -0.01201689    0.05843511   -0.05962109
     atom   19 type  4   force =     0.06257291    0.00793210    0.07119999
     atom   20 type  4   force =     0.05790228   -0.02079853   -0.06444197
     atom   21 type  4   force =    -0.06010702    0.01146069    0.06777892
     atom   22 type  4   force =    -0.05905219   -0.01049714   -0.06098740
     atom   23 type  5   force =    -0.04045399   -0.02170853   -0.01952761
     The ionic contribution  to forces
     atom    1 type  1   force =    -0.23051333   -4.75959426   14.04552792
     atom    2 type  1   force =   -39.69633780   -6.12327467    0.74621100
     atom    3 type  1   force =   -39.71551150    6.20591663   -0.76513707
     atom    4 type  1   force =    39.53026125   -6.15127891    0.70999293
     atom    5 type  1   force =    39.03250380    6.90499639   -1.00467971
     atom    6 type  2   force =    -0.15995246   -3.65128040  -14.00686553
     atom    7 type  2   force =    -0.66585069    3.65847502   14.12355860
     atom    8 type  3   force =   -52.18406975   -0.01755870   -0.13024349
     atom    9 type  3   force =    50.61906509   -1.17343814   -0.80400061
     atom   10 type  3   force =   -36.06143857   -2.08590765  -23.08134361
     atom   11 type  3   force =   -35.14658683   -0.84190635   22.10899480
     atom   12 type  3   force =   -35.25769592    0.83042479  -22.15930612
     atom   13 type  3   force =   -36.07543283    2.24323681   23.12798661
     atom   14 type  3   force =    35.97973472   -2.09278996  -23.12733702
     atom   15 type  3   force =    35.02091873   -0.85806006   22.18327845
     atom   16 type  3   force =    35.12063572    0.89765172  -22.28021257
     atom   17 type  3   force =    35.77022945    2.46218383   23.41293250
     atom   18 type  4   force =    -0.31612326    4.38024656  -14.10178518
     atom   19 type  4   force =   -35.91023437    0.92398405  -25.55943619
     atom   20 type  4   force =   -35.92143731   -1.00584204   25.58266489
     atom   21 type  4   force =    35.76849130    0.87195126  -25.70891776
     atom   22 type  4   force =    35.55698101   -1.19755412   26.00240183
     atom   23 type  5   force =     4.94236357    0.57941820    0.68571531
     The local contribution  to forces
     atom    1 type  1   force =     0.21893091    4.72755559  -14.03203851
     atom    2 type  1   force =    39.82446108    6.26947428   -0.73048700
     atom    3 type  1   force =    39.83737829   -6.34762896    0.82475577
     atom    4 type  1   force =   -39.65854796    6.30368543   -0.70370734
     atom    5 type  1   force =   -39.13963129   -7.06613514    1.05784697
     atom    6 type  2   force =     0.13150410    3.67373088   14.07560009
     atom    7 type  2   force =     0.65815002   -3.70124882  -14.17329411
     atom    8 type  3   force =    52.34451678    0.01714568    0.15863752
     atom    9 type  3   force =   -50.60774388    1.27533072    0.86733047
     atom   10 type  3   force =    36.26294600    2.05706006   23.23606392
     atom   11 type  3   force =    35.35934365    0.79143316  -22.27372718
     atom   12 type  3   force =    35.44905984   -0.76617748   22.28201752
     atom   13 type  3   force =    36.28846785   -2.18499186  -23.28817689
     atom   14 type  3   force =   -36.17918649    2.05902504   23.28759750
     atom   15 type  3   force =   -35.23503228    0.79871582  -22.33995820
     atom   16 type  3   force =   -35.30998106   -0.83279101   22.40946715
     atom   17 type  3   force =   -36.01555790   -2.37449060  -23.54608220
     atom   18 type  4   force =     0.32283311   -4.41208263   14.15884423
     atom   19 type  4   force =    35.72265208   -0.94212840   25.36556332
     atom   20 type  4   force =    35.73883711    1.02580383  -25.41423766
     atom   21 type  4   force =   -35.59061484   -0.89322001   25.51055730
     atom   22 type  4   force =   -35.37241334    1.20812360  -25.83320613
     atom   23 type  5   force =    -4.89167423   -0.53660242   -0.66108329
     The core correction contribution to forces
     atom    1 type  1   force =     0.00064693    0.00125096   -0.00098990
     atom    2 type  1   force =    -0.01151605   -0.00115517    0.00031863
     atom    3 type  1   force =    -0.01218687    0.00256534   -0.00113712
     atom    4 type  1   force =     0.01223716   -0.00226689    0.00248735
     atom    5 type  1   force =     0.00698612    0.00698002   -0.00183205
     atom    6 type  2   force =    -0.00038860    0.00269527    0.00298904
     atom    7 type  2   force =     0.00093129   -0.00343013   -0.00262272
     atom    8 type  3   force =    -0.03108601    0.00092811    0.00008306
     atom    9 type  3   force =     0.01454275   -0.01064014   -0.00484048
     atom   10 type  3   force =    -0.02212119    0.00903708   -0.01680538
     atom   11 type  3   force =    -0.02425571    0.00889125    0.01822597
     atom   12 type  3   force =    -0.02207447   -0.01015589   -0.01535250
     atom   13 type  3   force =    -0.02256164   -0.00974414    0.01579863
     atom   14 type  3   force =     0.02173750    0.00956882   -0.01679411
     atom   15 type  3   force =     0.02315746    0.00987835    0.01580161
     atom   16 type  3   force =     0.02287305   -0.01121669   -0.01536073
     atom   17 type  3   force =     0.02420220   -0.00951874    0.01365516
     atom   18 type  4   force =     0.00059969   -0.00304470    0.00286477
     atom   19 type  4   force =    -0.00984603    0.00009793   -0.00957691
     atom   20 type  4   force =    -0.00974636    0.00076414    0.00916009
     atom   21 type  4   force =     0.00967720   -0.00002409   -0.00942830
     atom   22 type  4   force =     0.01015447    0.00055830    0.00848186
     atom   23 type  5   force =     0.00000000    0.00000000    0.00000000
     The Hubbard contrib.    to forces
     atom    1 type  1   force =     0.00000000    0.00000000    0.00000000
     atom    2 type  1   force =     0.00000000    0.00000000    0.00000000
     atom    3 type  1   force =     0.00000000    0.00000000    0.00000000
     atom    4 type  1   force =     0.00000000    0.00000000    0.00000000
     atom    5 type  1   force =     0.00000000    0.00000000    0.00000000
     atom    6 type  2   force =     0.00000000    0.00000000    0.00000000
     atom    7 type  2   force =     0.00000000    0.00000000    0.00000000
     atom    8 type  3   force =     0.00000000    0.00000000    0.00000000
     atom    9 type  3   force =     0.00000000    0.00000000    0.00000000
     atom   10 type  3   force =     0.00000000    0.00000000    0.00000000
     atom   11 type  3   force =     0.00000000    0.00000000    0.00000000
     atom   12 type  3   force =     0.00000000    0.00000000    0.00000000
     atom   13 type  3   force =     0.00000000    0.00000000    0.00000000
     atom   14 type  3   force =     0.00000000    0.00000000    0.00000000
     atom   15 type  3   force =     0.00000000    0.00000000    0.00000000
     atom   16 type  3   force =     0.00000000    0.00000000    0.00000000
     atom   17 type  3   force =     0.00000000    0.00000000    0.00000000
     atom   18 type  4   force =     0.00000000    0.00000000    0.00000000
     atom   19 type  4   force =     0.00000000    0.00000000    0.00000000
     atom   20 type  4   force =     0.00000000    0.00000000    0.00000000
     atom   21 type  4   force =     0.00000000    0.00000000    0.00000000
     atom   22 type  4   force =     0.00000000    0.00000000    0.00000000
     atom   23 type  5   force =     0.00000000    0.00000000    0.00000000
     The SCF correction term to forces
     atom    1 type  1   force =     0.00696210    0.01494805   -0.02868280
     atom    2 type  1   force =     0.01312275   -0.00169385   -0.02837269
     atom    3 type  1   force =     0.01211770   -0.00014326   -0.02952081
     atom    4 type  1   force =    -0.01015160    0.00505849   -0.02979112
     atom    5 type  1   force =    -0.00297560   -0.00459961   -0.02914670
     atom    6 type  2   force =     0.00879063    0.00859934    0.00070811
     atom    7 type  2   force =     0.00079265   -0.01171351   -0.02705148
     atom    8 type  3   force =     0.01665838   -0.00011418   -0.03055378
     atom    9 type  3   force =    -0.03321931   -0.02191802   -0.04190202
     atom   10 type  3   force =     0.01179373   -0.01168197    0.01214693
     atom   11 type  3   force =     0.00344475    0.00278251    0.00562832
     atom   12 type  3   force =     0.01687267    0.00267711    0.01444915
     atom   13 type  3   force =     0.00463530   -0.01091359    0.00532768
     atom   14 type  3   force =    -0.00839544   -0.00892800    0.01477439
     atom   15 type  3   force =    -0.00279042    0.00814301    0.00457492
     atom   16 type  3   force =    -0.01686734    0.00547967    0.01519791
     atom   17 type  3   force =    -0.00675191   -0.01028756    0.00600423
     atom   18 type  4   force =     0.00250968    0.00079693   -0.00836980
     atom   19 type  4   force =     0.00541287    0.00462163    0.01412326
     atom   20 type  4   force =     0.00370620    0.00446068    0.00288796
     atom   21 type  4   force =    -0.00275104    0.00169256    0.02068455
     atom   22 type  4   force =    -0.00143350    0.00072601   -0.00133465
     atom   23 type  5   force =     0.00178520    0.00211368   -0.00108599

     Total force =     0.511650     Total SCF correction =     0.117140
     SCF correction compared to forces is large: reduce conv_thr to get better values


     Computing stress (Cartesian axis) and pressure


     negative rho (up, down):  9.090E-01 9.090E-01
          total   stress  (Ry/bohr**3)                   (kbar)     P=       83.33
   0.00065627   0.00000916  -0.00000049           96.54        1.35       -0.07
   0.00000916   0.00065759  -0.00000173            1.35       96.74       -0.25
  -0.00000049  -0.00000173   0.00038552           -0.07       -0.25       56.71


     Entering Dynamics:    iteration =     2
                           time      =   0.0004 pico-seconds


ATOMIC_POSITIONS (angstrom)
Hf            2.6701253458        2.8272289634        6.6040284989
Hf            1.2531027435        1.2863911679        5.0585291926
Hf            1.2555990244        7.3899147123        5.0881314137
Hf            4.0871487838        1.2863919319        5.0585289556
Hf            4.0846540593        7.3899116498        5.0881318010
Nb            2.6701231623        2.7970349656        3.5156469730
Nb            2.6701203914        5.8764896039        6.6350575158
Ta            1.2094861131        4.3410372440        5.0711885451
Ta            4.1307678866        4.3410380658        5.0711881363
Ta            1.3073760710        1.3142281667        2.0588350856
Ta            1.3029115467        1.3084961660        8.0946483011
Ta            1.3041330608        7.3759389784        2.0462936041
Ta            1.3078350235        7.3651953927        8.0860720467
Ta            4.0328753717        1.3142280439        2.0588349479
Ta            4.0373394932        1.3084956431        8.0946486835
Ta            4.0361183659        7.3759393601        2.0462938335
Ta            4.0324162995        7.3651967978        8.0860721107
Zr            2.6701252400        5.8664000651        3.5274449147
Zr            1.2439312270        4.3221855566        2.0000363662
Zr            1.2404818290        4.3542331630        8.1498444207
Zr            4.0963192129        4.3221849323        2.0000362802
Zr            4.0997706032        4.3542323736        8.1498440592
H             5.3361181198        5.3841228689        5.6749169840


     kinetic energy (Ekin) =           4.04755090 Ry
     temperature           =       19365.38612685 K 
     Ekin + Etot (const)   =       -2939.03094505 Ry
     Ions kinetic stress =           71.48 (kbar)
                                    107.29          92.84          53.65
                                     92.84          80.34          46.42
                                     53.65          46.42          26.83



     Linear momentum :   -0.0000000000    0.0000000000   -0.0000000000

     Writing config-only to output data dir outdir/pwscf.save/
     NEW-OLD atomic charge density approx. for the potential

     Check: negative core charge=   -0.000002

     negative rho (up, down):  9.089E-01 9.089E-01
     Generating pointlists ...
     new r_m :   0.0753 (alat units)  1.3287 (a.u.) for type    3
     new r_m :   0.0753 (alat units)  1.3287 (a.u.) for type    5

     total cpu time spent up to now is      573.7 secs

     Self-consistent Calculation

     iteration #  1     ecut=   120.00 Ry     beta= 0.70
     Davidson diagonalization with overlap
     c_bands:  1 eigenvalues not converged
     c_bands:  1 eigenvalues not converged
     ethr =  1.00E-06,  avg # of iterations = 20.0

     negative rho (up, down):  9.091E-01 9.091E-01

     total cpu time spent up to now is      614.5 secs

     total energy              =   -2943.03642656 Ry
     estimated scf accuracy    <       0.28070962 Ry

     total magnetization       =     0.02 Bohr mag/cell
     absolute magnetization    =     0.02 Bohr mag/cell

     iteration #  2     ecut=   120.00 Ry     beta= 0.70
     Davidson diagonalization with overlap
     ethr =  1.01E-04,  avg # of iterations =  2.0

     negative rho (up, down):  9.091E-01 9.091E-01

     total cpu time spent up to now is      632.2 secs

     total energy              =   -2943.05367161 Ry
     estimated scf accuracy    <       0.18323686 Ry

     total magnetization       =     0.02 Bohr mag/cell
     absolute magnetization    =     0.02 Bohr mag/cell

     iteration #  3     ecut=   120.00 Ry     beta= 0.70
     Davidson diagonalization with overlap
     ethr =  6.62E-05,  avg # of iterations =  1.0

     negative rho (up, down):  9.090E-01 9.090E-01

     total cpu time spent up to now is      648.4 secs

     total energy              =   -2943.06380270 Ry
     estimated scf accuracy    <       0.00479942 Ry

     total magnetization       =     0.02 Bohr mag/cell
     absolute magnetization    =     0.02 Bohr mag/cell

     iteration #  4     ecut=   120.00 Ry     beta= 0.70
     Davidson diagonalization with overlap
     ethr =  1.73E-06,  avg # of iterations = 16.0

     negative rho (up, down):  9.089E-01 9.089E-01

     total cpu time spent up to now is      687.5 secs

     total energy              =   -2943.06396309 Ry
     estimated scf accuracy    <       0.00221766 Ry

     total magnetization       =     0.02 Bohr mag/cell
     absolute magnetization    =     0.02 Bohr mag/cell

     iteration #  5     ecut=   120.00 Ry     beta= 0.70
     Davidson diagonalization with overlap
     ethr =  8.01E-07,  avg # of iterations =  1.5

     negative rho (up, down):  9.089E-01 9.089E-01

     Magnetic moment per site  (integrated on atomic sphere of radius R)
     atom   1 (R=0.108)  charge=  9.1680    0.0000
     atom   2 (R=0.108)  charge=  8.8214    0.0000
     atom   3 (R=0.108)  charge=  8.8214    0.0001
     atom   4 (R=0.108)  charge=  8.8232    0.0000
     atom   5 (R=0.108)  charge=  8.8157    0.0000
     atom   6 (R=0.110)  charge= 10.3503   -0.0000
     atom   7 (R=0.110)  charge= 10.3513    0.0001
     atom   8 (R=0.075)  charge=  6.6165   -0.0000
     atom   9 (R=0.075)  charge=  6.6287   -0.0000
     atom  10 (R=0.075)  charge=  6.6017    0.0000
     atom  11 (R=0.075)  charge=  6.5994    0.0001
     atom  12 (R=0.075)  charge=  6.6015    0.0001
     atom  13 (R=0.075)  charge=  6.5998    0.0001
     atom  14 (R=0.075)  charge=  6.6008    0.0003
     atom  15 (R=0.075)  charge=  6.5978    0.0004
     atom  16 (R=0.075)  charge=  6.6013    0.0003
     atom  17 (R=0.075)  charge=  6.6003    0.0004
     atom  18 (R=0.111)  charge=  9.4537   -0.0000
     atom  19 (R=0.111)  charge=  8.9978    0.0001
     atom  20 (R=0.111)  charge=  8.9928    0.0001
     atom  21 (R=0.111)  charge=  8.9969    0.0008
     atom  22 (R=0.111)  charge=  8.9957    0.0006
     atom  23 (R=0.075)  charge=  0.9273    0.0000

     total cpu time spent up to now is      722.9 secs

     End of self-consistent calculation

 ------ SPIN UP ------------


          k = 0.0000 0.0000 0.0000 ( 61588 PWs)   bands (ev):

   -60.7754 -60.7674 -60.7326 -60.7222 -60.6979 -60.6814 -60.6528 -60.6424
   -60.5321 -60.2528 -54.3633 -54.3143 -54.2356 -54.1824 -52.7006 -46.2798
   -46.2602 -41.6413 -41.6294 -41.5485 -41.5290 -39.8005 -27.7759 -27.7696
   -27.6911 -27.6823 -27.5875 -27.5805 -27.4617 -27.4539 -27.3643 -27.3259
   -27.2954 -27.2666 -27.2518 -27.2307 -27.2129 -27.1698 -27.1600 -27.1411
   -27.0957 -26.9677 -26.9538 -26.9479 -26.9394 -26.9238 -26.9066 -26.8799
   -26.8791 -26.8583 -26.8488 -26.8399 -24.1513 -23.9341 -23.6472 -23.5480
   -23.2974 -23.1695 -23.1481 -23.0441 -22.9143 -22.8426 -22.8157 -22.5935
   -22.5141 -22.4592 -22.3941 -22.3582 -22.2694 -22.2278 -21.7556 -21.6900
   -21.6287 -20.1957 -19.9462 -19.8316 -19.8279 -19.6287 -19.5999 -19.5965
   -19.5837 -19.5751 -19.5336 -19.3691 -19.3668 -18.1460 -17.9423 -17.8182
     1.2942   2.3918   2.9353   3.1432   3.3261   3.4453   3.5103   3.6844
     3.7127   3.8173   3.9177   4.0515   4.1961   4.5027   4.6724   4.6920
     4.7732   4.8057   5.0450   5.1062   5.1862   5.2729   5.2913   5.3347
     5.3952   5.5550   5.6228   5.7258   5.7358   5.7606   5.7692   5.8229
     5.9668   6.0836   6.1799   6.2279   6.2760   6.3091   6.3651   6.3938
     6.4416   6.6102   6.6614   6.7121   6.9090   6.9686   7.0086   7.0777
     7.1043   7.1602   7.2558   7.2806   7.3250   7.4492   7.5584   7.5618
     7.6224   7.7670   7.9028   7.9172   8.0853   8.0928   8.1183   8.1923
     8.2532   8.2964   8.3573   8.3807   8.4801   8.5601   8.6409   8.6843
     8.8457   8.9062   8.9827   9.0763   9.1490   9.2598   9.2793

 ------ SPIN DOWN ----------


          k = 0.0000 0.0000 0.0000 ( 61588 PWs)   bands (ev):

   -60.7751 -60.7671 -60.7324 -60.7217 -60.6975 -60.6810 -60.6526 -60.6420
   -60.5321 -60.2528 -54.3633 -54.3142 -54.2355 -54.1824 -52.7006 -46.2798
   -46.2602 -41.6409 -41.6290 -41.5483 -41.5286 -39.8006 -27.7754 -27.7691
   -27.6907 -27.6816 -27.5871 -27.5800 -27.4613 -27.4534 -27.3642 -27.3256
   -27.2953 -27.2663 -27.2513 -27.2304 -27.2124 -27.1697 -27.1597 -27.1407
   -27.0956 -26.9675 -26.9535 -26.9473 -26.9389 -26.9234 -26.9064 -26.8793
   -26.8787 -26.8581 -26.8484 -26.8396 -24.1512 -23.9341 -23.6471 -23.5479
   -23.2974 -23.1695 -23.1481 -23.0441 -22.9143 -22.8426 -22.8156 -22.5935
   -22.5141 -22.4592 -22.3940 -22.3581 -22.2694 -22.2278 -21.7556 -21.6900
   -21.6286 -20.1952 -19.9459 -19.8312 -19.8274 -19.6281 -19.5993 -19.5963
   -19.5836 -19.5746 -19.5334 -19.3687 -19.3662 -18.1461 -17.9423 -17.8182
     1.2944   2.3921   2.9360   3.1434   3.3263   3.4460   3.5107   3.6846
     3.7129   3.8175   3.9184   4.0518   4.1965   4.5029   4.6727   4.6925
     4.7736   4.8059   5.0458   5.1065   5.1865   5.2733   5.2918   5.3351
     5.3959   5.5553   5.6230   5.7262   5.7363   5.7610   5.7694   5.8232
     5.9671   6.0842   6.1803   6.2283   6.2764   6.3095   6.3654   6.3942
     6.4424   6.6106   6.6618   6.7125   6.9094   6.9694   7.0098   7.0787
     7.1063   7.1609   7.2579   7.2818   7.3255   7.4509   7.5591   7.5628
     7.6232   7.7679   7.9033   7.9178   8.0861   8.0937   8.1189   8.1932
     8.2544   8.2968   8.3585   8.3813   8.4806   8.5608   8.6414   8.6849
     8.8461   8.9076   8.9835   9.0767   9.1499   9.2622   9.2800

     the Fermi energy is     7.2450 ev

!    total energy              =   -2943.06373461 Ry
     estimated scf accuracy    <       0.00040576 Ry
     smearing contrib. (-TS)   =      -0.10241489 Ry
     internal energy E=F+TS    =   -2942.96131972 Ry

     total magnetization       =     0.02 Bohr mag/cell
     absolute magnetization    =     0.02 Bohr mag/cell

     convergence has been achieved in   5 iterations

     negative rho (up, down):  9.089E-01 9.089E-01

     Forces acting on atoms (cartesian axes, Ry/au):

     atom    1 type  1   force =    -0.00154183   -0.02327214    0.00640002
     atom    2 type  1   force =    -0.11609498   -0.01606408   -0.00723540
     atom    3 type  1   force =    -0.11615083    0.01304239   -0.00216520
     atom    4 type  1   force =     0.12010898   -0.00919733   -0.01021196
     atom    5 type  1   force =     0.12767798   -0.01273913    0.00040237
     atom    6 type  2   force =    -0.01128407   -0.02165555    0.00616148
     atom    7 type  2   force =    -0.02350272    0.00895294   -0.01197918
     atom    8 type  3   force =    -0.11165587    0.00514048   -0.00223231
     atom    9 type  3   force =     0.07822559   -0.03876662   -0.03902907
     atom   10 type  3   force =    -0.01875783   -0.02991077   -0.05639340
     atom   11 type  3   force =    -0.02095284   -0.03325243    0.05808712
     atom   12 type  3   force =    -0.01769025    0.03533448   -0.05274075
     atom   13 type  3   force =    -0.01187153    0.03054387    0.06517603
     atom   14 type  3   force =     0.01997361   -0.03153868   -0.05770680
     atom   15 type  3   force =     0.01721695   -0.03710696    0.06173624
     atom   16 type  3   force =     0.01845080    0.03939648   -0.05044016
     atom   17 type  3   force =     0.01048492    0.04173453    0.06627842
     atom   18 type  4   force =    -0.00056386    0.02517943   -0.00755229
     atom   19 type  4   force =    -0.12975711   -0.00511785   -0.11369312
     atom   20 type  4   force =    -0.12899754    0.00448901    0.11704383
     atom   21 type  4   force =     0.12552311   -0.00816230   -0.11323871
     atom   22 type  4   force =     0.13113397    0.00141679    0.11611536
     atom   23 type  5   force =     0.06002534    0.06155344    0.02721750
     The non-local contrib.  to forces
     atom    1 type  1   force =     0.00192898   -0.00825749    0.02674508
     atom    2 type  1   force =    -0.24737390   -0.16060824    0.01225129
     atom    3 type  1   force =    -0.23990082    0.15299955   -0.02412328
     atom    4 type  1   force =     0.24713091   -0.16613478    0.01781563
     atom    5 type  1   force =     0.24089609    0.14131026   -0.01408502
     atom    6 type  2   force =     0.00912786   -0.05457216   -0.06896800
     atom    7 type  2   force =    -0.01491844    0.06693267    0.06521501
     atom    8 type  3   force =    -0.25440320    0.00276099   -0.00264201
     atom    9 type  3   force =     0.09796170   -0.09383509   -0.04798687
     atom   10 type  3   force =    -0.21061836    0.00034555   -0.21072727
     atom   11 type  3   force =    -0.21638910    0.00704694    0.19792784
     atom   12 type  3   force =    -0.20300411   -0.02083146   -0.17681184
     atom   13 type  3   force =    -0.20836086   -0.00723012    0.20403240
     atom   14 type  3   force =     0.20551185    0.00220105   -0.21813327
     atom   15 type  3   force =     0.21346623    0.00334587    0.19802197
     atom   16 type  3   force =     0.20104905   -0.01974160   -0.18055246
     atom   17 type  3   force =     0.23532998   -0.02078561    0.18583879
     atom   18 type  4   force =    -0.01164710    0.05825784   -0.06109217
     atom   19 type  4   force =     0.06363190    0.00893344    0.07466961
     atom   20 type  4   force =     0.05887847   -0.01999325   -0.06464251
     atom   21 type  4   force =    -0.05962832    0.01218732    0.07145239
     atom   22 type  4   force =    -0.05914982   -0.01108456   -0.05941978
     atom   23 type  5   force =    -0.04914267   -0.03128756   -0.02483645
     The ionic contribution  to forces
     atom    1 type  1   force =    -0.25057955   -4.77914185   14.06000538
     atom    2 type  1   force =   -39.70518078   -6.12980122    0.74817680
     atom    3 type  1   force =   -39.73125112    6.21061875   -0.76152972
     atom    4 type  1   force =    39.53380570   -6.17693704    0.71277783
     atom    5 type  1   force =    39.07941201    6.93607880   -0.98003578
     atom    6 type  2   force =    -0.17607766   -3.66661376  -14.01980985
     atom    7 type  2   force =    -0.69820644    3.69039016   14.15630505
     atom    8 type  3   force =   -52.21512273   -0.01628217   -0.12835747
     atom    9 type  3   force =    50.34403126   -1.41190486   -0.94049671
     atom   10 type  3   force =   -36.06605863   -2.08907396  -23.08384192
     atom   11 type  3   force =   -35.15242304   -0.84645334   22.11021433
     atom   12 type  3   force =   -35.26416482    0.83242667  -22.16184224
     atom   13 type  3   force =   -36.08361280    2.24435246   23.12803557
     atom   14 type  3   force =    35.98114799   -2.10006489  -23.13314778
     atom   15 type  3   force =    35.02582243   -0.87103430   22.18721674
     atom   16 type  3   force =    35.12488409    0.90475506  -22.28700305
     atom   17 type  3   force =    35.79678051    2.45924593   23.40230579
     atom   18 type  4   force =    -0.34132589    4.39693350  -14.12275694
     atom   19 type  4   force =   -35.91831708    0.92483319  -25.56430937
     atom   20 type  4   force =   -35.93400155   -1.00306583   25.58645428
     atom   21 type  4   force =    35.76739957    0.87111356  -25.73185033
     atom   22 type  4   force =    35.56854259   -1.18733989   26.03365810
     atom   23 type  5   force =     5.31449594    0.80696504    0.78983130
     The local contribution  to forces
     atom    1 type  1   force =     0.24630898    4.76266912  -14.09403842
     atom    2 type  1   force =    39.85275017    6.27647330   -0.78756088
     atom    3 type  1   force =    39.87114548   -6.35175343    0.76398571
     atom    4 type  1   force =   -39.67796582    6.33827687   -0.76366587
     atom    5 type  1   force =   -39.20745608   -7.09362789    0.97247154
     atom    6 type  2   force =     0.15685688    3.69198302   14.08075969
     atom    7 type  2   force =     0.68694571   -3.74975314  -14.25155966
     atom    8 type  3   force =    52.39516113    0.01572163    0.10796525
     atom    9 type  3   force =   -50.38248717    1.47669830    0.93416675
     atom   10 type  3   force =    36.28616583    2.04449481   23.26172345
     atom   11 type  3   force =    35.37976349    0.80042972  -22.26647820
     atom   12 type  3   force =    35.47771560   -0.75891006   22.30693869
     atom   13 type  3   force =    36.30600038   -2.19575872  -23.27895151
     atom   14 type  3   force =   -36.19356972    2.04937724   23.31670054
     atom   15 type  3   force =   -35.25401382    0.82616830  -22.33729733
     atom   16 type  3   force =   -35.33461384   -0.82672028   22.43822933
     atom   17 type  3   force =   -36.05213889   -2.38669714  -23.53193546
     atom   18 type  4   force =     0.35338691   -4.42380651   14.16163589
     atom   19 type  4   force =    35.73503265   -0.94025428   25.39244765
     atom   20 type  4   force =    35.76003259    1.02400205  -25.41349034
     atom   21 type  4   force =   -35.59150174   -0.89200930   25.56481823
     atom   22 type  4   force =   -35.39453945    1.19509420  -25.86641038
     atom   23 type  5   force =    -5.20678282   -0.71500814   -0.74137099
     The core correction contribution to forces
     atom    1 type  1   force =     0.00079036    0.00129044   -0.00128225
     atom    2 type  1   force =    -0.01135013   -0.00137216    0.00028967
     atom    3 type  1   force =    -0.01208028    0.00280484   -0.00125639
     atom    4 type  1   force =     0.01212097   -0.00242834    0.00236829
     atom    5 type  1   force =     0.00753596    0.00637294   -0.00152218
     atom    6 type  2   force =    -0.00034185    0.00282764    0.00314727
     atom    7 type  2   force =     0.00080478   -0.00338835   -0.00262409
     atom    8 type  3   force =    -0.03078483    0.00077149    0.00002900
     atom    9 type  3   force =     0.01166747   -0.01250387   -0.00629883
     atom   10 type  3   force =    -0.02192907    0.00901346   -0.01679416
     atom   11 type  3   force =    -0.02465196    0.00903251    0.01834390
     atom   12 type  3   force =    -0.02194312   -0.01017324   -0.01536094
     atom   13 type  3   force =    -0.02267034   -0.00975049    0.01598997
     atom   14 type  3   force =     0.02165340    0.00955639   -0.01685708
     atom   15 type  3   force =     0.02331790    0.00974937    0.01610322
     atom   16 type  3   force =     0.02257468   -0.01116377   -0.01519994
     atom   17 type  3   force =     0.02409618   -0.00924472    0.01442269
     atom   18 type  4   force =     0.00063914   -0.00304203    0.00288926
     atom   19 type  4   force =    -0.00989253    0.00005884   -0.00965386
     atom   20 type  4   force =    -0.00973800    0.00072565    0.00917655
     atom   21 type  4   force =     0.00966330   -0.00007793   -0.00945162
     atom   22 type  4   force =     0.01007869    0.00054566    0.00839107
     atom   23 type  5   force =     0.00000000    0.00000000    0.00000000
     The Hubbard contrib.    to forces
     atom    1 type  1   force =     0.00000000    0.00000000    0.00000000
     atom    2 type  1   force =     0.00000000    0.00000000    0.00000000
     atom    3 type  1   force =     0.00000000    0.00000000    0.00000000
     atom    4 type  1   force =     0.00000000    0.00000000    0.00000000
     atom    5 type  1   force =     0.00000000    0.00000000    0.00000000
     atom    6 type  2   force =     0.00000000    0.00000000    0.00000000
     atom    7 type  2   force =     0.00000000    0.00000000    0.00000000
     atom    8 type  3   force =     0.00000000    0.00000000    0.00000000
     atom    9 type  3   force =     0.00000000    0.00000000    0.00000000
     atom   10 type  3   force =     0.00000000    0.00000000    0.00000000
     atom   11 type  3   force =     0.00000000    0.00000000    0.00000000
     atom   12 type  3   force =     0.00000000    0.00000000    0.00000000
     atom   13 type  3   force =     0.00000000    0.00000000    0.00000000
     atom   14 type  3   force =     0.00000000    0.00000000    0.00000000
     atom   15 type  3   force =     0.00000000    0.00000000    0.00000000
     atom   16 type  3   force =     0.00000000    0.00000000    0.00000000
     atom   17 type  3   force =     0.00000000    0.00000000    0.00000000
     atom   18 type  4   force =     0.00000000    0.00000000    0.00000000
     atom   19 type  4   force =     0.00000000    0.00000000    0.00000000
     atom   20 type  4   force =     0.00000000    0.00000000    0.00000000
     atom   21 type  4   force =     0.00000000    0.00000000    0.00000000
     atom   22 type  4   force =     0.00000000    0.00000000    0.00000000
     atom   23 type  5   force =     0.00000000    0.00000000    0.00000000
     The SCF correction term to forces
     atom    1 type  1   force =     0.00002770    0.00023151    0.01360329
     atom    2 type  1   force =    -0.00492205   -0.00069188    0.01824078
     atom    3 type  1   force =    -0.00404579   -0.00156346    0.01939154
     atom    4 type  1   force =     0.00503551   -0.00191016    0.01912522
     atom    5 type  1   force =     0.00730829   -0.00280936    0.02220685
     atom    6 type  2   force =    -0.00083100    0.00478358    0.00966543
     atom    7 type  2   force =     0.00188996    0.00483547    0.01931757
     atom    8 type  3   force =    -0.00648794    0.00223242    0.01940597
     atom    9 type  3   force =     0.00707063    0.00284277    0.02021965
     atom   10 type  3   force =    -0.00629931    0.00537324   -0.00812044
     atom   11 type  3   force =    -0.00723393   -0.00324439   -0.00328768
     atom   12 type  3   force =    -0.00627549   -0.00711356   -0.00703136
     atom   13 type  3   force =    -0.00320961   -0.00100539   -0.00529734
     atom   14 type  3   force =     0.00524838    0.00745539   -0.00763615
     atom   15 type  3   force =     0.00864250   -0.00527234   -0.00367529
     atom   16 type  3   force =     0.00457512   -0.00766905   -0.00728097
     atom   17 type  3   force =     0.00643543   -0.00072006   -0.00572032
     atom   18 type  4   force =    -0.00159863   -0.00309950    0.01040473
     atom   19 type  4   force =    -0.00019376    0.00137484   -0.00821409
     atom   20 type  4   force =    -0.00415076    0.00288426   -0.00182108
     atom   21 type  4   force =    -0.00039141    0.00068791   -0.00957431
     atom   22 type  4   force =     0.00622025    0.00426525   -0.00147059
     atom   23 type  5   force =     0.00147319    0.00094796    0.00222669

     Total force =     0.500372     Total SCF correction =     0.067262
     SCF correction compared to forces is large: reduce conv_thr to get better values


     Computing stress (Cartesian axis) and pressure


     negative rho (up, down):  9.089E-01 9.089E-01
          total   stress  (Ry/bohr**3)                   (kbar)     P=       85.70
   0.00069155   0.00002586   0.00000866          101.73        3.80        1.27
   0.00002586   0.00066685   0.00000717            3.80       98.10        1.05
   0.00000866   0.00000717   0.00038932            1.27        1.05       57.27


     Entering Dynamics:    iteration =     3
                           time      =   0.0006 pico-seconds


ATOMIC_POSITIONS (angstrom)
[...]
     3.7236   3.8268   3.9306   4.0619   4.1993   4.5114   4.6802   4.6978
     4.7840   4.8147   5.0539   5.1171   5.1966   5.2861   5.3002   5.3445
     5.4027   5.5623   5.6465   5.7372   5.7456   5.7700   5.7804   5.8397
     5.9782   6.0906   6.1877   6.2411   6.2876   6.3257   6.3757   6.3987
     6.4454   6.6187   6.6710   6.7242   6.9179   6.9779   7.0134   7.0874
     7.1115   7.1680   7.2531   7.2852   7.3335   7.4568   7.5577   7.5642
     7.6362   7.7754   7.9113   7.9377   8.0862   8.1057   8.1278   8.1953
     8.2645   8.3100   8.3686   8.3905   8.4938   8.5682   8.6468   8.6902
     8.8526   8.9121   8.9911   9.0861   9.1547   9.2759   9.2882

     the Fermi energy is     7.2503 ev

!    total energy              =   -2943.04215067 Ry
     estimated scf accuracy    <       0.00020069 Ry
     smearing contrib. (-TS)   =      -0.10285469 Ry
     internal energy E=F+TS    =   -2942.93929598 Ry

     total magnetization       =     0.00 Bohr mag/cell
     absolute magnetization    =     0.00 Bohr mag/cell

     convergence has been achieved in   5 iterations

     negative rho (up, down):  9.090E-01 9.090E-01

     Forces acting on atoms (cartesian axes, Ry/au):

     atom    1 type  1   force =    -0.00391624   -0.02471892    0.01439822
     atom    2 type  1   force =    -0.11804206   -0.01598205    0.00216860
     atom    3 type  1   force =    -0.11724689    0.01169684    0.00737606
     atom    4 type  1   force =     0.12329113   -0.01091690   -0.00102141
     atom    5 type  1   force =     0.12814153   -0.01561868    0.01173269
     atom    6 type  2   force =    -0.01536527   -0.02467557   -0.00081455
     atom    7 type  2   force =    -0.02276796    0.00860989   -0.01161781
     atom    8 type  3   force =    -0.11651673    0.00667836    0.00094367
     atom    9 type  3   force =     0.04157610   -0.07434715   -0.06030749
     atom   10 type  3   force =    -0.02015904   -0.02667422   -0.05998165
     atom   11 type  3   force =    -0.02326011   -0.03298904    0.05410352
     atom   12 type  3   force =    -0.01958696    0.03333016   -0.05644703
     atom   13 type  3   force =    -0.01200275    0.03114316    0.06094773
     atom   14 type  3   force =     0.02066446   -0.02872371   -0.06118994
     atom   15 type  3   force =     0.01863837   -0.03878302    0.05864572
     atom   16 type  3   force =     0.01974113    0.03773757   -0.05469242
     atom   17 type  3   force =     0.01103206    0.04050676    0.06152319
     atom   18 type  4   force =    -0.00089587    0.02347405   -0.00905092
     atom   19 type  4   force =    -0.12751009   -0.00474516   -0.11560256
     atom   20 type  4   force =    -0.12877087    0.00483255    0.11281697
     atom   21 type  4   force =     0.12264932   -0.00801290   -0.11591610
     atom   22 type  4   force =     0.12994022    0.00355634    0.11200112
     atom   23 type  5   force =     0.11036652    0.10462162    0.04998441
     The non-local contrib.  to forces
     atom    1 type  1   force =     0.00420089   -0.00674714    0.02690464
     atom    2 type  1   force =    -0.24752599   -0.16126393    0.01765726
     atom    3 type  1   force =    -0.24026081    0.15252269   -0.01870483
     atom    4 type  1   force =     0.24808597   -0.16928950    0.02270830
     atom    5 type  1   force =     0.24649128    0.13465925   -0.00930833
     atom    6 type  2   force =     0.01087584   -0.05310493   -0.06589924
     atom    7 type  2   force =    -0.01046797    0.06911061    0.06679520
     atom    8 type  3   force =    -0.25501022    0.00265996    0.00063163
     atom    9 type  3   force =     0.09012064   -0.09658343   -0.04771853
     atom   10 type  3   force =    -0.21440008    0.00039071   -0.21425759
     atom   11 type  3   force =    -0.21746338    0.00706626    0.19617736
     atom   12 type  3   force =    -0.20500222   -0.02210281   -0.17769038
     atom   13 type  3   force =    -0.20564868   -0.00678630    0.20241674
     atom   14 type  3   force =     0.20792723    0.00384672   -0.21826924
     atom   15 type  3   force =     0.21267852    0.00145398    0.19703232
     atom   16 type  3   force =     0.20261722   -0.02072225   -0.18041599
     atom   17 type  3   force =     0.22781480   -0.01606710    0.19042254
     atom   18 type  4   force =    -0.01168666    0.05910727   -0.05694383
     atom   19 type  4   force =     0.06368343    0.00957427    0.07287818
     atom   20 type  4   force =     0.05776112   -0.01940242   -0.06561103
     atom   21 type  4   force =    -0.05996260    0.01230614    0.06997175
     atom   22 type  4   force =    -0.05701403   -0.00991362   -0.05880602
     atom   23 type  5   force =    -0.05590165   -0.03991796   -0.02952627
     The ionic contribution  to forces
     atom    1 type  1   force =    -0.29971902   -4.80167568   14.23414741
     atom    2 type  1   force =   -39.72733531   -6.15792176    0.76069842
     atom    3 type  1   force =   -39.71973037    6.19527444   -0.74787819
     atom    4 type  1   force =    39.56546484   -6.29911152    0.74530221
     atom    5 type  1   force =    39.15184014    6.82901740   -0.93074283
     atom    6 type  2   force =    -0.32184475   -3.78844855  -14.21286257
     atom    7 type  2   force =    -0.60665649    3.69661126   14.18671303
     atom    8 type  3   force =   -52.35230844    0.03603243   -0.09551488
     atom    9 type  3   force =    50.06264907   -1.32982249   -0.92669088
     atom   10 type  3   force =   -36.06051531   -2.08798856  -23.06925055
     atom   11 type  3   force =   -35.14082020   -0.83954315   22.08698035
     atom   12 type  3   force =   -35.25079963    0.81429516  -22.13611407
     atom   13 type  3   force =   -36.05803410    2.21747145   23.09168668
     atom   14 type  3   force =    35.97291201   -2.11973987  -23.13640105
     atom   15 type  3   force =    35.02438815   -0.86805895   22.16561825
     atom   16 type  3   force =    35.12489388    0.88082872  -22.25016805
     atom   17 type  3   force =    35.81063829    2.39666677   23.32576471
     atom   18 type  4   force =    -0.33481686    4.48212663  -14.15125022
     atom   19 type  4   force =   -35.90052527    0.93776466  -25.51761884
     atom   20 type  4   force =   -35.89397541   -0.98494296   25.51921051
     atom   21 type  4   force =    35.76020705    0.91163876  -25.73330921
     atom   22 type  4   force =    35.57785454   -1.13230418   25.90819766
     atom   23 type  5   force =     5.61623320    1.01182999    0.88348211
     The local contribution  to forces
     atom    1 type  1   force =     0.29069341    4.78173465  -14.23789606
     atom    2 type  1   force =    39.86679249    6.30447523   -0.76357191
     atom    3 type  1   force =    39.85428887   -6.33969418    0.78852138
     atom    4 type  1   force =   -39.69891590    6.45970716   -0.75981803
     atom    5 type  1   force =   -39.27234799   -6.98936753    0.96890696
     atom    6 type  2   force =     0.29832923    3.81551910   14.28251493
     atom    7 type  2   force =     0.59935199   -3.75013893  -14.25280091
     atom    8 type  3   force =    52.51800688   -0.03166128    0.10938877
     atom    9 type  3   force =   -50.11030030    1.36905071    0.93548487
     atom   10 type  3   force =    36.27731755    2.05647768   23.23911469
     atom   11 type  3   force =    35.35531944    0.78920606  -22.25265781
     atom   12 type  3   force =    35.45731929   -0.75201476   22.27203755
     atom   13 type  3   force =    36.27400730   -2.16896653  -23.25476430
     atom   14 type  3   force =   -36.18038041    2.08429164   23.31027257
     atom   15 type  3   force =   -35.23671126    0.81400545  -22.32517815
     atom   16 type  3   force =   -35.32794737   -0.81530375   22.39093408
     atom   17 type  3   force =   -36.04588698   -2.33364839  -23.47660839
     atom   18 type  4   force =     0.34659615   -4.51740372   14.20674919
     atom   19 type  4   force =    35.72126371   -0.95281186   25.33705906
     atom   20 type  4   force =    35.71373866    1.00879554  -25.35385985
     atom   21 type  4   force =   -35.58678095   -0.93339266   25.55561907
     atom   22 type  4   force =   -35.39414235    1.14975002  -25.75075627
     atom   23 type  5   force =    -5.44854846   -0.86690426   -0.80190005
     The core correction contribution to forces
     atom    1 type  1   force =     0.00102934    0.00144540   -0.00181421
     atom    2 type  1   force =    -0.01126707   -0.00142073    0.00029838
     atom    3 type  1   force =    -0.01204387    0.00289094   -0.00130439
     atom    4 type  1   force =     0.01214272   -0.00253786    0.00230368
     atom    5 type  1   force =     0.00799896    0.00599638   -0.00144246
     atom    6 type  2   force =    -0.00038628    0.00282992    0.00313517
     atom    7 type  2   force =     0.00065466   -0.00350023   -0.00270850
     atom    8 type  3   force =    -0.03059454    0.00068302   -0.00008661
     atom    9 type  3   force =     0.01011282   -0.01315859   -0.00692759
     atom   10 type  3   force =    -0.02216978    0.00889777   -0.01696151
     atom   11 type  3   force =    -0.02472401    0.00914020    0.01832309
     atom   12 type  3   force =    -0.02216199   -0.01014616   -0.01536109
     atom   13 type  3   force =    -0.02241420   -0.00975778    0.01591387
     atom   14 type  3   force =     0.02175934    0.00947877   -0.01692574
     atom   15 type  3   force =     0.02312954    0.00971614    0.01624740
     atom   16 type  3   force =     0.02263420   -0.01100384   -0.01516622
     atom   17 type  3   force =     0.02341683   -0.00907319    0.01493381
     atom   18 type  4   force =     0.00066845   -0.00312155    0.00282770
     atom   19 type  4   force =    -0.00986468    0.00002447   -0.00959233
     atom   20 type  4   force =    -0.00972118    0.00070847    0.00919183
     atom   21 type  4   force =     0.00966173   -0.00007819   -0.00943316
     atom   22 type  4   force =     0.01005126    0.00052288    0.00829346
     atom   23 type  5   force =     0.00000000    0.00000000    0.00000000
     The Hubbard contrib.    to forces
     atom    1 type  1   force =     0.00000000    0.00000000    0.00000000
     atom    2 type  1   force =     0.00000000    0.00000000    0.00000000
     atom    3 type  1   force =     0.00000000    0.00000000    0.00000000
     atom    4 type  1   force =     0.00000000    0.00000000    0.00000000
     atom    5 type  1   force =     0.00000000    0.00000000    0.00000000
     atom    6 type  2   force =     0.00000000    0.00000000    0.00000000
     atom    7 type  2   force =     0.00000000    0.00000000    0.00000000
     atom    8 type  3   force =     0.00000000    0.00000000    0.00000000
     atom    9 type  3   force =     0.00000000    0.00000000    0.00000000
     atom   10 type  3   force =     0.00000000    0.00000000    0.00000000
     atom   11 type  3   force =     0.00000000    0.00000000    0.00000000
     atom   12 type  3   force =     0.00000000    0.00000000    0.00000000
     atom   13 type  3   force =     0.00000000    0.00000000    0.00000000
     atom   14 type  3   force =     0.00000000    0.00000000    0.00000000
     atom   15 type  3   force =     0.00000000    0.00000000    0.00000000
     atom   16 type  3   force =     0.00000000    0.00000000    0.00000000
     atom   17 type  3   force =     0.00000000    0.00000000    0.00000000
     atom   18 type  4   force =     0.00000000    0.00000000    0.00000000
     atom   19 type  4   force =     0.00000000    0.00000000    0.00000000
     atom   20 type  4   force =     0.00000000    0.00000000    0.00000000
     atom   21 type  4   force =     0.00000000    0.00000000    0.00000000
     atom   22 type  4   force =     0.00000000    0.00000000    0.00000000
     atom   23 type  5   force =     0.00000000    0.00000000    0.00000000
     The SCF correction term to forces
     atom    1 type  1   force =     0.00020319    0.00048406   -0.00612061
     atom    2 type  1   force =     0.00161787    0.00010935   -0.01209059
     atom    3 type  1   force =     0.00082335    0.00066316   -0.01243495
     atom    4 type  1   force =    -0.00316244    0.00027503   -0.01069461
     atom    5 type  1   force =    -0.00551681    0.00403602   -0.01485768
     atom    6 type  2   force =    -0.00201526   -0.00151091   -0.00687988
     atom    7 type  2   force =    -0.00532610   -0.00351261   -0.00879366
     atom    8 type  3   force =     0.00371365   -0.00107556   -0.01265228
     atom    9 type  3   force =    -0.01068208   -0.00387316   -0.01363240
     atom   10 type  3   force =    -0.00006738   -0.00449161    0.00219627
     atom   11 type  3   force =     0.00475209    0.00110179    0.00610349
     atom   12 type  3   force =     0.00138165    0.00325895    0.00150392
     atom   13 type  3   force =     0.00041099   -0.00085746    0.00651771
     atom   14 type  3   force =    -0.00122966   -0.00664077    0.00095649
     atom   15 type  3   force =    -0.00452254    0.00406057    0.00574886
     atom   16 type  3   force =    -0.00213275    0.00389889    0.00094673
     atom   17 type  3   force =    -0.00462683    0.00258887    0.00783349
     atom   18 type  4   force =    -0.00133289    0.00272563   -0.00961079
     atom   19 type  4   force =    -0.00174322    0.00066350    0.00249434
     atom   20 type  4   force =     0.00374998   -0.00036588    0.00470848
     atom   21 type  4   force =    -0.00015186    0.00147325    0.00205841
     atom   22 type  4   force =    -0.00648514   -0.00453855    0.00589525
     atom   23 type  5   force =    -0.00109252   -0.00042594   -0.00124842

     Total force =     0.519442     Total SCF correction =     0.044958


     Computing stress (Cartesian axis) and pressure


     negative rho (up, down):  9.090E-01 9.090E-01
          total   stress  (Ry/bohr**3)                   (kbar)     P=       87.67
   0.00069826   0.00004078   0.00001632          102.72        6.00        2.40
   0.00004078   0.00069014   0.00001276            6.00      101.52        1.88
   0.00001632   0.00001276   0.00039946            2.40        1.88       58.76


     Entering Dynamics:    iteration =    20
                           time      =   0.0041 pico-seconds


ATOMIC_POSITIONS (angstrom)
Hf            2.6713074734        2.8279641656        6.6047318503
Hf            1.2528909067        1.2871914252        5.0590792438
Hf            1.2553916823        7.3910269502        5.0887329026
Hf            4.0897109258        1.2872188452        5.0590639602
Hf            4.0871844846        7.3908338016        5.0887651092
Nb            2.6713995339        2.7977514589        3.5164889993
Nb            2.6709316776        5.8776960348        6.6353313892
Ta            1.2092804541        4.3421310042        5.0717982958
Ta            4.1123618390        4.3237278645        5.0609265688
Ta            1.3082315283        1.3148724853        2.0587315934
Ta            1.3038008201        1.3090860753        8.0958428751
Ta            1.3050439182        7.3773089668        2.0462290860
Ta            1.3088168428        7.3665175807        8.0873307369
Ta            4.0342218190        1.3148937632        2.0587441786
Ta            4.0386605004        1.3090666386        8.0958838076
Ta            4.0374604867        7.3773321144        2.0462643319
Ta            4.0336805885        7.3665820323        8.0873152304
Zr            2.6713851559        5.8679192153        3.5279158507
Zr            1.2421356730        4.3230482836        1.9980080290
Zr            1.2386812187        4.3552948394        8.1529573971
Zr            4.1002739021        4.3230083586        1.9980414550
Zr            4.1037777561        4.3552679731        8.1529697197
H             5.3375958724        5.4090739203        5.6838259588


     kinetic energy (Ekin) =           4.01109357 Ry
     temperature           =       19190.95716442 K 
     Ekin + Etot (const)   =       -2939.03105710 Ry
     Ions kinetic stress =           70.84 (kbar)
                                    103.15          92.02          52.67
                                     92.02          82.28          47.09
                                     52.67          47.09          27.09



     Linear momentum :   -0.0000000000    0.0000000000   -0.0000000000

     The maximum number of steps has been reached.

     End of molecular dynamics calculation

     diffusion coefficients :
     atom     1   D =       0.00000001 cm^2/s
     atom     2   D =       0.00000000 cm^2/s
     atom     3   D =       0.00000001 cm^2/s
     atom     4   D =       0.00000003 cm^2/s
     atom     5   D =       0.00000004 cm^2/s
     atom     6   D =       0.00000001 cm^2/s
     atom     7   D =       0.00000001 cm^2/s
     atom     8   D =       0.00000001 cm^2/s
     atom     9   D =       0.00000301 cm^2/s
     atom    10   D =       0.00000001 cm^2/s
     atom    11   D =       0.00000001 cm^2/s
     atom    12   D =       0.00000001 cm^2/s
     atom    13   D =       0.00000002 cm^2/s
     atom    14   D =       0.00000001 cm^2/s
     atom    15   D =       0.00000002 cm^2/s
     atom    16   D =       0.00000002 cm^2/s
     atom    17   D =       0.00000002 cm^2/s
     atom    18   D =       0.00000002 cm^2/s
     atom    19   D =       0.00000003 cm^2/s
     atom    20   D =       0.00000006 cm^2/s
     atom    21   D =       0.00000009 cm^2/s
     atom    22   D =       0.00000012 cm^2/s
     atom    23   D =       0.00031292 cm^2/s

     < D > =       0.00001376 cm^2/s

     Writing all to output data dir outdir/pwscf.save/

     init_run     :     18.96s CPU     21.04s WALL (       1 calls)
     electrons    :   2633.67s CPU   3102.22s WALL (      20 calls)
     update_pot   :     19.18s CPU     23.18s WALL (      19 calls)
     forces       :    251.04s CPU    285.51s WALL (      20 calls)
     stress       :    354.26s CPU    389.11s WALL (      20 calls)

     Called by init_run:
     wfcinit      :     16.25s CPU     17.94s WALL (       1 calls)
     potinit      :      0.48s CPU      0.50s WALL (       1 calls)
     hinit0       :      0.96s CPU      1.06s WALL (       1 calls)

     Called by electrons:
     c_bands      :   2093.10s CPU   2480.14s WALL (     101 calls)
     sum_band     :    357.58s CPU    410.14s WALL (     101 calls)
     v_of_rho     :     11.20s CPU     13.16s WALL (     121 calls)
     newd         :    199.25s CPU    230.54s WALL (     121 calls)
     mix_rho      :      1.04s CPU      1.35s WALL (     101 calls)

     Called by c_bands:
     init_us_2    :      4.17s CPU      4.32s WALL (     486 calls)
     init_us_2:cp :      4.16s CPU      4.32s WALL (     486 calls)
     regterg      :   2078.47s CPU   2462.52s WALL (     202 calls)

     Called by *egterg:
     rdiaghg      :     72.94s CPU     91.67s WALL (    1692 calls)
     h_psi        :   1101.96s CPU   1214.29s WALL (    1732 calls)
     s_psi        :    368.27s CPU    368.93s WALL (    1732 calls)
     g_psi        :      0.74s CPU      0.78s WALL (    1528 calls)

     Called by h_psi:
     h_psi:calbec :    532.38s CPU    609.54s WALL (    1732 calls)
     vloc_psi     :    108.55s CPU    142.40s WALL (    1732 calls)
     add_vuspsi   :    459.56s CPU    460.82s WALL (    1732 calls)

     General routines
     calbec       :    924.70s CPU   1067.79s WALL (    2134 calls)
     fft          :      9.27s CPU     26.97s WALL (    2514 calls)
     ffts         :      0.22s CPU      0.31s WALL (     101 calls)
     fftw         :    116.24s CPU    153.42s WALL (  105948 calls)

     Parallel routines

     PWSCF        :  55m 5.72s CPU      1h 4m WALL


   This run was terminated on:  19:50:31  16Jun2023            

=------------------------------------------------------------------------------=
   JOB DONE.
=------------------------------------------------------------------------------=
