
     Program PWSCF v.7.2 starts on 15Jun2023 at 16:38:19 

     This program is part of the open-source Quantum ESPRESSO suite
     for quantum simulation of materials; please cite
         "P. Giannozzi et al., J. Phys.:Condens. Matter 21 395502 (2009);
         "P. Giannozzi et al., J. Phys.:Condens. Matter 29 465901 (2017);
         "P. Giannozzi et al., J. Chem. Phys. 152 154105 (2020);
          URL http://www.quantum-espresso.org", 
     in publications or presentations arising from this work. More details at
     http://www.quantum-espresso.org/quote

     Parallel version (MPI), running on    42 processors

     MPI processes distributed on     1 nodes
     173817 MiB available memory on the printing compute node when the environment starts

     Reading input from md_data/md_Hf5Nb2Ta10Zr5H_20steps_50eV_incident75_polar0.in
Warning: card &CELL ignored
Warning: card / ignored

     Current dimensions of program PWSCF are:
     Max number of different atomic species (ntypx) = 10
     Max number of k-points (npk) =  40000
     Max angular momentum in pseudopotentials (lmaxx) =  4

     File outdir/pwscf.md deleted, as requested

     gamma-point specific algorithms are used

     R & G space division:  proc/nbgrp/npool/nimage =      42
     Subspace diagonalization in iterative solution of the eigenvalue problem:
     one sub-group per band group will be used
     custom distributed-memory algorithm (size of sub-group:  2*  2 procs)


     Parallelization info
     --------------------
     sticks:   dense  smooth     PW     G-vecs:    dense   smooth      PW
     Min         262     262     63                23470    23470    2920
     Max         265     265     66                23484    23484    2942
     Sum       11057   11057   2753               986005   986005  123175

     Using Slab Decomposition



     bravais-lattice index     =            0
     lattice parameter (alat)  =      17.6500  a.u.
     unit-cell volume          =    5552.8853 (a.u.)^3
     number of atoms/cell      =           23
     number of atomic types    =            5
     number of electrons       =       277.00
     number of Kohn-Sham states=          167
     kinetic-energy cutoff     =     120.0000  Ry
     charge density cutoff     =     480.0000  Ry
     scf convergence threshold =      1.0E-03
     mixing beta               =       0.7000
     number of iterations used =            8  TF        mixing
     energy convergence thresh.=      0.0E+00
     force convergence thresh. =      0.0E+00
     Exchange-correlation=  SLA  PW   PBX  PBC
                           (   1   4   3   4   0   0   0)
     nstep                     =           20


     celldm(1)=  17.650041  celldm(2)=   0.000000  celldm(3)=   0.000000
     celldm(4)=   0.000000  celldm(5)=   0.000000  celldm(6)=   0.000000

     crystal axes: (cart. coord. in units of alat)
               a(1) = (   1.000000   0.000000   0.000000 )  
               a(2) = (   0.000000   0.929336   0.000000 )  
               a(3) = (   0.000000   0.000000   1.086698 )  

     reciprocal axes: (cart. coord. in units 2 pi/alat)
               b(1) = (  1.000000  0.000000  0.000000 )  
               b(2) = (  0.000000  1.076037  0.000000 )  
               b(3) = (  0.000000  0.000000  0.920219 )  


     PseudoPot. # 1 for Hf read from file:
     q-e/pseudo/hf_pbe_v1.uspp.F.UPF
     MD5 check sum: 8ee9378dfe14276e333edf04c5e4aa26
     Pseudo is Ultrasoft + core correction, Zval = 12.0
     Generated by new atomic code, or converted to UPF format
     Using radial grid of  921 points,  8 beta functions with: 
                l(1) =   0
                l(2) =   0
                l(3) =   0
                l(4) =   1
                l(5) =   1
                l(6) =   2
                l(7) =   2
                l(8) =   3
     Q(r) pseudized with  6 coefficients,  rinner =    1.200   1.200   1.200
                                                       1.200   1.200   1.200
                                                       1.200

     PseudoPot. # 2 for Nb read from file:
     q-e/pseudo/nb_pbe_v1.uspp.F.UPF
     MD5 check sum: 573aab8a2fa660278ed4a62cd769473f
     Pseudo is Ultrasoft + core correction, Zval = 13.0
     Generated by new atomic code, or converted to UPF format
     Using radial grid of  887 points,  6 beta functions with: 
                l(1) =   0
                l(2) =   0
                l(3) =   1
                l(4) =   1
                l(5) =   2
                l(6) =   2
     Q(r) pseudized with  6 coefficients,  rinner =    1.000   1.000   1.000
                                                       1.000   1.000

     PseudoPot. # 3 for Ta read from file:
     q-e/pseudo/ta_pbe_v1.uspp.F.UPF
     MD5 check sum: f8bbe9446314a3b8ea5d9f3e3836c939
     Pseudo is Ultrasoft + core correction, Zval = 13.0
     Generated by new atomic code, or converted to UPF format
     Using radial grid of  921 points,  7 beta functions with: 
                l(1) =   0
                l(2) =   0
                l(3) =   1
                l(4) =   1
                l(5) =   2
                l(6) =   2
                l(7) =   3
     Q(r) pseudized with  6 coefficients,  rinner =    1.300   1.300   1.300
                                                       1.300   1.300   1.300
                                                       1.300

     PseudoPot. # 4 for Zr read from file:
     q-e/pseudo/zr_pbe_v1.uspp.F.UPF
     MD5 check sum: 5db81b1e868ab7776c4564c113de050b
     Pseudo is Ultrasoft + core correction, Zval = 12.0
     Generated by new atomic code, or converted to UPF format
     Using radial grid of  887 points,  6 beta functions with: 
                l(1) =   0
                l(2) =   0
                l(3) =   1
                l(4) =   1
                l(5) =   2
                l(6) =   2
     Q(r) pseudized with  6 coefficients,  rinner =    1.200   1.200   1.200
                                                       1.200   1.200

     PseudoPot. # 5 for H  read from file:
     q-e/pseudo/h_pbe_v1.4.uspp.F.UPF
     MD5 check sum: 761ae9a214b05c3daf00ab9f6b793d6f
     Pseudo is Ultrasoft, Zval =  1.0
     Generated by new atomic code, or converted to UPF format
     Using radial grid of  615 points,  2 beta functions with: 
                l(1) =   0
                l(2) =   0
     Q(r) pseudized with  8 coefficients,  rinner =    0.700

     atomic species   valence    mass     pseudopotential
        Hf            12.00   178.49000     Hf( 1.00)
        Nb            13.00    92.90637     Nb( 1.00)
        Ta            13.00   180.94788     Ta( 1.00)
        Zr            12.00    91.22400     Zr( 1.00)
        H              1.00     2.01400     H ( 1.00)

     Starting magnetic structure 
     atomic species   magnetization
        Hf           0.000
        Nb           0.000
        Ta           0.000
        Zr           0.000
        H            0.000

     No symmetry found



   Cartesian axes

     site n.     atom                  positions (alat units)
         1           Hf  tau(   1) = (   0.2858672   0.3026898   0.7070626  )
         2           Hf  tau(   2) = (   0.1341532   0.1377178   0.5415917  )
         3           Hf  tau(   3) = (   0.1344204   0.7911996   0.5447610  )
         4           Hf  tau(   4) = (   0.4375813   0.1377178   0.5415917  )
         5           Hf  tau(   5) = (   0.4373140   0.7911996   0.5447610  )
         6           Nb  tau(   6) = (   0.2858672   0.2994572   0.3764008  )
         7           Nb  tau(   7) = (   0.2858672   0.6291626   0.7103852  )
         8           Ta  tau(   8) = (   0.1294832   0.4647675   0.5429471  )
         9           Ta  tau(   9) = (   0.4422513   0.4647675   0.5429471  )
        10           Ta  tau(  10) = (   0.1399628   0.1406984   0.2204260  )
        11           Ta  tau(  11) = (   0.1394848   0.1400847   0.8666573  )
        12           Ta  tau(  12) = (   0.1396156   0.7897030   0.2190832  )
        13           Ta  tau(  13) = (   0.1400119   0.7885528   0.8657390  )
        14           Ta  tau(  14) = (   0.4317717   0.1406984   0.2204260  )
        15           Ta  tau(  15) = (   0.4322496   0.1400847   0.8666573  )
        16           Ta  tau(  16) = (   0.4321189   0.7897030   0.2190832  )
        17           Ta  tau(  17) = (   0.4317226   0.7885528   0.8657390  )
        18           Zr  tau(  18) = (   0.2858672   0.6280820   0.3776642  )
        19           Zr  tau(  19) = (   0.1331729   0.4627493   0.2141328  )
        20           Zr  tau(  20) = (   0.1328036   0.4661802   0.8725649  )
        21           Zr  tau(  21) = (   0.4385616   0.4627493   0.2141328  )
        22           Zr  tau(  22) = (   0.4389309   0.4661802   0.8725649  )
        23           H   tau(  23) = (   0.4976729   0.6715045   0.5430600  )

     number of k points=     1  Gaussian smearing, width (Ry)=  0.0220
                       cart. coord. in units 2pi/alat
        k(    1) = (   0.0000000   0.0000000   0.0000000), wk =   1.0000000

     Dense  grid:   493003 G-vectors     FFT dimensions: ( 125, 120, 135)

     Estimated max dynamical RAM per process >     133.03 MB

     Estimated total dynamical RAM >       5.46 GB

     Check: negative core charge=   -0.000002
     Generating pointlists ...
     new r_m :   0.0553 (alat units)  0.9761 (a.u.) for type    1
     new r_m :   0.1098 (alat units)  1.9374 (a.u.) for type    2
     new r_m :   0.0883 (alat units)  1.5583 (a.u.) for type    3
     new r_m :   0.1112 (alat units)  1.9625 (a.u.) for type    4
     new r_m :   0.0553 (alat units)  0.9761 (a.u.) for type    5

     Initial potential from superposition of free atoms

     starting charge     266.9726, renormalised to     277.0000

     negative rho (up, down):  9.211E-01 9.211E-01
     Starting wfcs are  287 randomized atomic wfcs

     total cpu time spent up to now is       12.1 secs

     Self-consistent Calculation

     iteration #  1     ecut=   120.00 Ry     beta= 0.70
     Davidson diagonalization with overlap
     ethr =  1.00E-02,  avg # of iterations =  2.0

     negative rho (up, down):  9.927E-01 9.923E-01

     total cpu time spent up to now is       31.2 secs

     total energy              =   -2930.58431981 Ry
     estimated scf accuracy    <     275.85505655 Ry

     total magnetization       =    -0.00 Bohr mag/cell
     absolute magnetization    =     0.09 Bohr mag/cell

     iteration #  2     ecut=   120.00 Ry     beta= 0.70
     Davidson diagonalization with overlap
     ethr =  1.00E-02,  avg # of iterations =  5.0

     negative rho (up, down):  9.673E-01 9.665E-01

     total cpu time spent up to now is       52.9 secs

     total energy              =   -2941.92298597 Ry
     estimated scf accuracy    <      29.81418509 Ry

     total magnetization       =    -0.02 Bohr mag/cell
     absolute magnetization    =     0.11 Bohr mag/cell

     iteration #  3     ecut=   120.00 Ry     beta= 0.70
     Davidson diagonalization with overlap
     ethr =  1.00E-02,  avg # of iterations =  2.0

     negative rho (up, down):  1.001E+00 9.999E-01

     total cpu time spent up to now is       71.1 secs

     total energy              =   -2942.29453221 Ry
     estimated scf accuracy    <      13.12204740 Ry

     total magnetization       =    -0.02 Bohr mag/cell
     absolute magnetization    =     0.11 Bohr mag/cell

     iteration #  4     ecut=   120.00 Ry     beta= 0.70
     Davidson diagonalization with overlap
     ethr =  4.74E-03,  avg # of iterations =  5.0

     negative rho (up, down):  1.003E+00 1.002E+00

     total cpu time spent up to now is       89.9 secs

     total energy              =   -2942.62701708 Ry
     estimated scf accuracy    <       2.93715729 Ry

     total magnetization       =    -0.07 Bohr mag/cell
     absolute magnetization    =     0.19 Bohr mag/cell

     iteration #  5     ecut=   120.00 Ry     beta= 0.70
     Davidson diagonalization with overlap
     ethr =  1.06E-03,  avg # of iterations =  7.0

     negative rho (up, down):  9.797E-01 9.785E-01

     total cpu time spent up to now is      112.0 secs

     total energy              =   -2942.76049617 Ry
     estimated scf accuracy    <       1.26550550 Ry

     total magnetization       =    -0.01 Bohr mag/cell
     absolute magnetization    =     0.12 Bohr mag/cell

     iteration #  6     ecut=   120.00 Ry     beta= 0.70
     Davidson diagonalization with overlap
     ethr =  4.57E-04,  avg # of iterations =  3.0

     negative rho (up, down):  9.705E-01 9.694E-01

     total cpu time spent up to now is      129.9 secs

     total energy              =   -2942.77546172 Ry
     estimated scf accuracy    <       1.10134664 Ry

     total magnetization       =    -0.02 Bohr mag/cell
     absolute magnetization    =     0.09 Bohr mag/cell

     iteration #  7     ecut=   120.00 Ry     beta= 0.70
     Davidson diagonalization with overlap
     ethr =  3.98E-04,  avg # of iterations =  2.0

     negative rho (up, down):  9.411E-01 9.409E-01

     total cpu time spent up to now is      159.1 secs

     total energy              =   -2942.73884484 Ry
     estimated scf accuracy    <       0.30874565 Ry

     total magnetization       =    -0.02 Bohr mag/cell
     absolute magnetization    =     0.08 Bohr mag/cell

     iteration #  8     ecut=   120.00 Ry     beta= 0.70
     Davidson diagonalization with overlap
     ethr =  1.11E-04,  avg # of iterations =  8.0

     negative rho (up, down):  9.201E-01 9.202E-01

     total cpu time spent up to now is      200.2 secs

     total energy              =   -2942.73037887 Ry
     estimated scf accuracy    <       0.28067786 Ry

     total magnetization       =    -0.02 Bohr mag/cell
     absolute magnetization    =     0.06 Bohr mag/cell

     iteration #  9     ecut=   120.00 Ry     beta= 0.70
     Davidson diagonalization with overlap
     ethr =  1.01E-04,  avg # of iterations =  2.0

     negative rho (up, down):  9.088E-01 9.088E-01

     total cpu time spent up to now is      226.0 secs

     total energy              =   -2942.73325608 Ry
     estimated scf accuracy    <       0.07252185 Ry

     total magnetization       =    -0.01 Bohr mag/cell
     absolute magnetization    =     0.05 Bohr mag/cell

     iteration # 10     ecut=   120.00 Ry     beta= 0.70
     Davidson diagonalization with overlap
     ethr =  2.62E-05,  avg # of iterations = 13.5

     negative rho (up, down):  9.070E-01 9.070E-01

     total cpu time spent up to now is      248.0 secs

     total energy              =   -2942.73556940 Ry
     estimated scf accuracy    <       0.04271114 Ry

     total magnetization       =    -0.01 Bohr mag/cell
     absolute magnetization    =     0.04 Bohr mag/cell

     iteration # 11     ecut=   120.00 Ry     beta= 0.70
     Davidson diagonalization with overlap
     ethr =  1.54E-05,  avg # of iterations =  2.0

     negative rho (up, down):  9.080E-01 9.080E-01

     total cpu time spent up to now is      265.9 secs

     total energy              =   -2942.73935278 Ry
     estimated scf accuracy    <       0.01183771 Ry

     total magnetization       =    -0.01 Bohr mag/cell
     absolute magnetization    =     0.03 Bohr mag/cell

     iteration # 12     ecut=   120.00 Ry     beta= 0.70
     Davidson diagonalization with overlap
     ethr =  4.27E-06,  avg # of iterations =  7.5

     negative rho (up, down):  9.081E-01 9.081E-01

     total cpu time spent up to now is      286.6 secs

     total energy              =   -2942.74252292 Ry
     estimated scf accuracy    <       0.00209314 Ry

     total magnetization       =    -0.01 Bohr mag/cell
     absolute magnetization    =     0.03 Bohr mag/cell

     iteration # 13     ecut=   120.00 Ry     beta= 0.70
     Davidson diagonalization with overlap
     ethr =  7.56E-07,  avg # of iterations =  5.0

     negative rho (up, down):  9.078E-01 9.078E-01

     Magnetic moment per site  (integrated on atomic sphere of radius R)
     atom   1 (R=0.055)  charge=  2.8629  magn=  0.0000
     atom   2 (R=0.055)  charge=  2.8460  magn= -0.0000
     atom   3 (R=0.055)  charge=  2.8453  magn=  0.0000
     atom   4 (R=0.055)  charge=  2.8470  magn= -0.0000
     atom   5 (R=0.055)  charge=  2.8630  magn= -0.0000
     atom   6 (R=0.110)  charge= 10.3436  magn= -0.0003
     atom   7 (R=0.110)  charge= 10.3481  magn= -0.0001
     atom   8 (R=0.088)  charge=  8.1217  magn=  0.0000
     atom   9 (R=0.088)  charge=  8.1184  magn=  0.0002
     atom  10 (R=0.088)  charge=  8.1018  magn= -0.0001
     atom  11 (R=0.088)  charge=  8.0980  magn= -0.0008
     atom  12 (R=0.088)  charge=  8.1012  magn= -0.0003
     atom  13 (R=0.088)  charge=  8.1020  magn= -0.0001
     atom  14 (R=0.088)  charge=  8.1021  magn= -0.0003
     atom  15 (R=0.088)  charge=  8.0979  magn= -0.0004
     atom  16 (R=0.088)  charge=  8.1038  magn= -0.0006
     atom  17 (R=0.088)  charge=  8.1015  magn= -0.0003
     atom  18 (R=0.111)  charge=  9.4520  magn= -0.0000
     atom  19 (R=0.111)  charge=  9.0008  magn=  0.0002
     atom  20 (R=0.111)  charge=  8.9923  magn=  0.0003
     atom  21 (R=0.111)  charge=  9.0060  magn=  0.0001
     atom  22 (R=0.111)  charge=  8.9943  magn=  0.0003
     atom  23 (R=0.055)  charge=  0.8274  magn= -0.0000

     total cpu time spent up to now is      315.5 secs

     End of self-consistent calculation

 ------ SPIN UP ------------


          k = 0.0000 0.0000 0.0000 ( 61588 PWs)   bands (ev):

   -60.7790 -60.7747 -60.7334 -60.7312 -60.7002 -60.6813 -60.6572 -60.6375
   -60.5822 -60.5531 -54.3879 -54.3452 -54.2522 -53.8434 -52.6875 -46.2860
   -46.2489 -41.6527 -41.6283 -41.5524 -41.5452 -39.8274 -27.7803 -27.7715
   -27.6944 -27.6827 -27.6003 -27.5836 -27.4721 -27.4616 -27.4432 -27.3309
   -27.3161 -27.2652 -27.2618 -27.2497 -27.2172 -27.1990 -27.1858 -27.1611
   -27.1494 -27.1337 -27.1089 -27.0794 -26.9553 -26.9523 -26.9407 -26.9363
   -26.8834 -26.8785 -26.8540 -26.8413 -24.2483 -24.0584 -23.6804 -23.5489
   -23.3074 -23.1739 -23.1125 -23.0477 -22.9246 -22.9197 -22.7252 -22.5713
   -22.5100 -22.4506 -22.3856 -22.3128 -22.2629 -22.1294 -21.7462 -21.6909
   -21.6172 -20.2140 -19.9293 -19.8552 -19.8544 -19.6195 -19.6080 -19.6036
   -19.5905 -19.5752 -19.5365 -19.3862 -19.3561 -18.1770 -17.9768 -17.8265
     0.8704   2.0013   2.9353   3.1362   3.3526   3.4481   3.5308   3.5680
     3.6726   3.9023   3.9157   4.1276   4.1944   4.4805   4.5073   4.6954
     4.7378   4.9590   5.0279   5.1139   5.1752   5.2694   5.2882   5.3458
     5.4083   5.5330   5.5628   5.7032   5.7321   5.7393   5.7661   5.8985
     6.0376   6.0673   6.1876   6.1989   6.2405   6.2970   6.3633   6.3983
     6.5092   6.5967   6.6498   6.7104   6.7947   6.9908   7.0270   7.0742
     7.1139   7.1346   7.2773   7.3121   7.3302   7.4551   7.5431   7.5596
     7.6183   7.7909   7.8715   7.9062   8.0679   8.0919   8.1159   8.2214
     8.2423   8.2536   8.3633   8.3776   8.4048   8.5301   8.6584   8.7033
     8.8611   8.9124   9.0193   9.0800   9.0880   9.2047   9.2498

 ------ SPIN DOWN ----------


          k = 0.0000 0.0000 0.0000 ( 61588 PWs)   bands (ev):

   -60.7792 -60.7751 -60.7337 -60.7316 -60.7005 -60.6819 -60.6575 -60.6381
   -60.5820 -60.5528 -54.3879 -54.3452 -54.2522 -53.8434 -52.6874 -46.2860
   -46.2495 -41.6526 -41.6279 -41.5523 -41.5449 -39.8275 -27.7808 -27.7721
   -27.6949 -27.6833 -27.6007 -27.5840 -27.4724 -27.4619 -27.4437 -27.3312
   -27.3164 -27.2655 -27.2622 -27.2499 -27.2177 -27.1988 -27.1860 -27.1615
   -27.1493 -27.1342 -27.1088 -27.0790 -26.9557 -26.9528 -26.9413 -26.9368
   -26.8839 -26.8793 -26.8545 -26.8420 -24.2484 -24.0585 -23.6805 -23.5489
   -23.3075 -23.1741 -23.1126 -23.0477 -22.9246 -22.9198 -22.7252 -22.5715
   -22.5102 -22.4509 -22.3857 -22.3132 -22.2633 -22.1295 -21.7460 -21.6907
   -21.6172 -20.2139 -19.9287 -19.8549 -19.8542 -19.6196 -19.6078 -19.6034
   -19.5904 -19.5748 -19.5361 -19.3861 -19.3556 -18.1772 -17.9769 -17.8267
     0.8705   2.0011   2.9347   3.1360   3.3524   3.4476   3.5306   3.5679
     3.6725   3.9021   3.9150   4.1274   4.1943   4.4805   4.5071   4.6951
     4.7375   4.9586   5.0274   5.1136   5.1750   5.2690   5.2881   5.3455
     5.4079   5.5329   5.5626   5.7032   5.7318   5.7391   5.7660   5.8982
     6.0373   6.0670   6.1873   6.1987   6.2402   6.2968   6.3632   6.3980
     6.5090   6.5966   6.6494   6.7100   6.7945   6.9904   7.0265   7.0738
     7.1128   7.1338   7.2760   7.3111   7.3294   7.4547   7.5424   7.5599
     7.6176   7.7904   7.8713   7.9059   8.0675   8.0911   8.1156   8.2206
     8.2419   8.2534   8.3624   8.3771   8.4047   8.5303   8.6581   8.7033
     8.8612   8.9112   9.0191   9.0800   9.0875   9.2044   9.2495

     the Fermi energy is     7.2484 ev

!    total energy              =   -2942.74362993 Ry
     estimated scf accuracy    <       0.00061312 Ry
     smearing contrib. (-TS)   =      -0.10067391 Ry
     internal energy E=F+TS    =   -2942.64295601 Ry

     total magnetization       =    -0.01 Bohr mag/cell
     absolute magnetization    =     0.02 Bohr mag/cell

     convergence has been achieved in  13 iterations

     negative rho (up, down):  9.078E-01 9.078E-01

     Forces acting on atoms (cartesian axes, Ry/au):

     atom    1 type  1   force =    -0.00277943   -0.02753841   -0.00173358
     atom    2 type  1   force =    -0.12753954   -0.00894560   -0.00558343
     atom    3 type  1   force =    -0.11788469    0.00893695    0.00262686
     atom    4 type  1   force =     0.13029024   -0.02046020   -0.00677564
     atom    5 type  1   force =    -0.19577969    0.64336477    0.01753175
     atom    6 type  2   force =     0.00260804   -0.01520940    0.02220906
     atom    7 type  2   force =    -0.01787329    0.00726237   -0.00614348
     atom    8 type  3   force =    -0.10684072    0.00285561   -0.00532486
     atom    9 type  3   force =     0.10650854    0.04803316   -0.00873513
     atom   10 type  3   force =    -0.02691485   -0.02905036   -0.05883871
     atom   11 type  3   force =    -0.02478992   -0.03553473    0.05780105
     atom   12 type  3   force =    -0.01178787    0.03550545   -0.05735807
     atom   13 type  3   force =    -0.01380626    0.03027725    0.06280976
     atom   14 type  3   force =     0.01906299   -0.03461032   -0.06446657
     atom   15 type  3   force =     0.01839676   -0.04036796    0.06247659
     atom   16 type  3   force =     0.01633794    0.04511088   -0.05640077
     atom   17 type  3   force =     0.01603731    0.03969607    0.06232580
     atom   18 type  4   force =    -0.01618715    0.01481181   -0.00857044
     atom   19 type  4   force =    -0.12245042   -0.00701829   -0.11576178
     atom   20 type  4   force =    -0.12804880    0.00489821    0.11742615
     atom   21 type  4   force =     0.11941832   -0.00306527   -0.11701550
     atom   22 type  4   force =     0.12653290    0.00717266    0.12031458
     atom   23 type  5   force =     0.35748957   -0.66612465   -0.01281363
     The non-local contrib.  to forces
     atom    1 type  1   force =    -0.00698662   -0.01159578    0.02789577
     atom    2 type  1   force =    -0.24519230   -0.16321721    0.01412376
     atom    3 type  1   force =    -0.22373198    0.16146925   -0.02687942
     atom    4 type  1   force =     0.24491036   -0.22141054    0.01346445
     atom    5 type  1   force =     0.27999798    0.01762450   -0.02535810
     atom    6 type  2   force =     0.00539314   -0.04250603   -0.07160943
     atom    7 type  2   force =     0.00009750    0.05423789    0.06622236
     atom    8 type  3   force =    -0.25749118    0.00693580   -0.00824907
     atom    9 type  3   force =     0.23155772    0.07412185   -0.01275468
     atom   10 type  3   force =    -0.21858774    0.01004510   -0.20712944
     atom   11 type  3   force =    -0.22695939    0.00966480    0.19985829
     atom   12 type  3   force =    -0.19920729   -0.02664750   -0.18030067
     atom   13 type  3   force =    -0.20607580   -0.01030559    0.20931847
     atom   14 type  3   force =     0.21613198    0.00590426   -0.21180317
     atom   15 type  3   force =     0.22477111    0.00758846    0.20061491
     atom   16 type  3   force =     0.20843379   -0.01936811   -0.17427522
     atom   17 type  3   force =     0.21226978   -0.00280003    0.20565768
     atom   18 type  4   force =     0.00132424    0.04511595   -0.07438731
     atom   19 type  4   force =     0.05852960    0.00571217    0.07320537
     atom   20 type  4   force =     0.05523705   -0.01468758   -0.06807207
     atom   21 type  4   force =    -0.06455539    0.01432830    0.06801525
     atom   22 type  4   force =    -0.05828094   -0.00986980   -0.05839293
     atom   23 type  5   force =    -0.06389692    0.09157003   -0.00046788
     The ionic contribution  to forces
     atom    1 type  1   force =    -0.15183538   -4.70290880   14.08754532
     atom    2 type  1   force =   -39.76873304   -6.05119775    0.77956478
     atom    3 type  1   force =   -39.97332288    6.23970586   -0.71218721
     atom    4 type  1   force =    39.58006401   -5.88953230    0.77845846
     atom    5 type  1   force =    37.71646470    9.87332434   -0.66043374
     atom    6 type  2   force =    -0.16123622   -3.66381830  -13.99031155
     atom    7 type  2   force =    -0.79213766    3.39791162   14.52746969
     atom    8 type  3   force =   -52.33158457   -0.10504210   -0.06499728
     atom    9 type  3   force =    51.61631347   -1.58062218   -0.06581536
     atom   10 type  3   force =   -36.10526154   -2.04838780  -23.11452537
     atom   11 type  3   force =   -35.17935331   -0.80135187   22.11874824
     atom   12 type  3   force =   -35.35709191    0.84236906  -22.24258516
     atom   13 type  3   force =   -36.14844192    2.22629776   23.17297774
     atom   14 type  3   force =    35.99835661   -2.00660565  -23.19163876
     atom   15 type  3   force =    35.07311647   -0.75937237   22.19592752
     atom   16 type  3   force =    35.10914673    0.97363771  -22.59992384
     atom   17 type  3   force =    35.89673870    2.35851028   23.53515001
     atom   18 type  4   force =    -0.73997833    4.17999773  -14.41117406
     atom   19 type  4   force =   -35.97186484    0.88799773  -25.59936487
     atom   20 type  4   force =   -35.95546355   -1.02230449   25.57811473
     atom   21 type  4   force =    35.81194034    0.75859488  -25.80799232
     atom   22 type  4   force =    35.79482895   -1.15189306   25.79034750
     atom   23 type  5   force =     6.03933518   -1.95531030   -0.10335450
     The local contribution  to forces
     atom    1 type  1   force =     0.15477972    4.68608858  -14.12392691
     atom    2 type  1   force =    39.90094890    6.20283775   -0.80553201
     atom    3 type  1   force =    40.09084559   -6.39575756    0.74106072
     atom    4 type  1   force =   -39.71223848    6.09307967   -0.80567002
     atom    5 type  1   force =   -38.21546031   -9.22518003    0.70014558
     atom    6 type  2   force =     0.15924009    3.70084110   14.06088341
     atom    7 type  2   force =     0.77214791   -3.43725902  -14.60000723
     atom    8 type  3   force =    52.50638610    0.10203133    0.05636687
     atom    9 type  3   force =   -51.75858967    1.55661332    0.05525497
     atom   10 type  3   force =    36.31680843    2.00824134   23.27973295
     atom   11 type  3   force =    35.40561355    0.74299481  -22.27919568
     atom   12 type  3   force =    35.56685962   -0.77386235   22.37833399
     atom   13 type  3   force =    36.36413658   -2.17871694  -23.33487890
     atom   14 type  3   force =   -36.21253501    1.96349183   23.35576902
     atom   15 type  3   force =   -35.30412487    0.69737068  -22.35117477
     atom   16 type  3   force =   -35.31826290   -0.90912958   22.72921619
     atom   17 type  3   force =   -36.11679314   -2.31233391  -23.69148871
     atom   18 type  4   force =     0.72647753   -4.21784343   14.45607029
     atom   19 type  4   force =    35.80489336   -0.90324814   25.42146525
     atom   20 type  4   force =    35.77593051    1.04554074  -25.40040038
     atom   21 type  4   force =   -35.63785889   -0.77373023   25.63372477
     atom   22 type  4   force =   -35.61372299    1.17404290  -25.61704146
     atom   23 type  5   force =    -5.61778608    1.19728652    0.08962532
     The core correction contribution to forces
     atom    1 type  1   force =    -0.00081491    0.00077724   -0.00095699
     atom    2 type  1   force =    -0.01044071   -0.00031291    0.00097187
     atom    3 type  1   force =    -0.00762831    0.00577552   -0.00155320
     atom    4 type  1   force =     0.01306895   -0.00689584    0.00045097
     atom    5 type  1   force =     0.01943081   -0.01947781   -0.00126950
     atom    6 type  2   force =    -0.00038728    0.00211866    0.00299366
     atom    7 type  2   force =     0.00005988   -0.00276870   -0.00270190
     atom    8 type  3   force =    -0.03062779   -0.00022326   -0.00036114
     atom    9 type  3   force =     0.02416739   -0.00132422   -0.00101179
     atom   10 type  3   force =    -0.02355661    0.00943932   -0.01728141
     atom   11 type  3   force =    -0.02527869    0.00954094    0.01834439
     atom   12 type  3   force =    -0.02168392   -0.01122334   -0.01554173
     atom   13 type  3   force =    -0.02167441   -0.01031752    0.01675585
     atom   14 type  3   force =     0.02204952    0.00906824   -0.01806750
     atom   15 type  3   force =     0.02383239    0.00978761    0.01826882
     atom   16 type  3   force =     0.02247235   -0.00956915   -0.01408669
     atom   17 type  3   force =     0.02217311   -0.00858733    0.01529736
     atom   18 type  4   force =     0.00005409   -0.00259296    0.00368228
     atom   19 type  4   force =    -0.00956564    0.00019047   -0.00958769
     atom   20 type  4   force =    -0.00954256    0.00043624    0.00941312
     atom   21 type  4   force =     0.00996710   -0.00016188   -0.00919579
     atom   22 type  4   force =     0.00975026    0.00020354    0.00873524
     atom   23 type  5   force =     0.00000000    0.00000000    0.00000000
     The Hubbard contrib.    to forces
     atom    1 type  1   force =     0.00000000    0.00000000    0.00000000
     atom    2 type  1   force =     0.00000000    0.00000000    0.00000000
     atom    3 type  1   force =     0.00000000    0.00000000    0.00000000
     atom    4 type  1   force =     0.00000000    0.00000000    0.00000000
     atom    5 type  1   force =     0.00000000    0.00000000    0.00000000
     atom    6 type  2   force =     0.00000000    0.00000000    0.00000000
     atom    7 type  2   force =     0.00000000    0.00000000    0.00000000
     atom    8 type  3   force =     0.00000000    0.00000000    0.00000000
     atom    9 type  3   force =     0.00000000    0.00000000    0.00000000
     atom   10 type  3   force =     0.00000000    0.00000000    0.00000000
     atom   11 type  3   force =     0.00000000    0.00000000    0.00000000
     atom   12 type  3   force =     0.00000000    0.00000000    0.00000000
     atom   13 type  3   force =     0.00000000    0.00000000    0.00000000
     atom   14 type  3   force =     0.00000000    0.00000000    0.00000000
     atom   15 type  3   force =     0.00000000    0.00000000    0.00000000
     atom   16 type  3   force =     0.00000000    0.00000000    0.00000000
     atom   17 type  3   force =     0.00000000    0.00000000    0.00000000
     atom   18 type  4   force =     0.00000000    0.00000000    0.00000000
     atom   19 type  4   force =     0.00000000    0.00000000    0.00000000
     atom   20 type  4   force =     0.00000000    0.00000000    0.00000000
     atom   21 type  4   force =     0.00000000    0.00000000    0.00000000
     atom   22 type  4   force =     0.00000000    0.00000000    0.00000000
     atom   23 type  5   force =     0.00000000    0.00000000    0.00000000
     The SCF correction term to forces
     atom    1 type  1   force =     0.00221120    0.00000284    0.00706147
     atom    2 type  1   force =    -0.00398895    0.00284701    0.00464041
     atom    3 type  1   force =    -0.00391367   -0.00235364    0.00153822
     atom    4 type  1   force =     0.00461885    0.00420128    0.00587274
     atom    5 type  1   force =     0.00392057   -0.00302374    0.00379975
     atom    6 type  2   force =    -0.00026826   -0.01194235    0.01960522
     atom    7 type  2   force =     0.00209253   -0.00495694    0.00222585
     atom    8 type  3   force =     0.00661017   -0.00094368    0.01126800
     atom    9 type  3   force =    -0.00680692   -0.00085313    0.01494396
     atom   10 type  3   force =     0.00381605   -0.00848583   -0.00028321
     atom   11 type  3   force =     0.00132136    0.00351908   -0.00060194
     atom   12 type  3   force =    -0.00053094    0.00477206    0.00208774
     atom   13 type  3   force =    -0.00161725    0.00322203   -0.00201115
     atom   14 type  3   force =    -0.00480666   -0.00656652    0.00062607
     atom   15 type  3   force =     0.00093509    0.00416014   -0.00180765
     atom   16 type  3   force =    -0.00531859    0.00944249    0.00202103
     atom   17 type  3   force =     0.00178231    0.00480954   -0.00293830
     atom   18 type  4   force =    -0.00393123    0.01003701    0.01659061
     atom   19 type  4   force =    -0.00430947    0.00223196   -0.00212762
     atom   20 type  4   force =     0.00592320   -0.00418421   -0.00227702
     atom   21 type  4   force =     0.00005860   -0.00219384   -0.00221517
     atom   22 type  4   force =    -0.00590894   -0.00540844   -0.00398154
     atom   23 type  5   force =    -0.00002917    0.00023157    0.00073566

     Total force =     1.122328     Total SCF correction =     0.046868


     Computing stress (Cartesian axis) and pressure


     negative rho (up, down):  9.078E-01 9.078E-01
          total   stress  (Ry/bohr**3)                   (kbar)     P=      100.32
   0.00072791  -0.00011992  -0.00000194          107.08      -17.64       -0.29
  -0.00011992   0.00091479  -0.00001084          -17.64      134.57       -1.59
  -0.00000194  -0.00001084   0.00040318           -0.29       -1.59       59.31


     Molecular Dynamics Calculation

     Starting temperature  =   300.00 K

     temperature is set once at start

     mass Hf               =   178.49
     mass Nb               =    92.91
     mass Ta               =   180.95
     mass Zr               =    91.22
     mass H                =     2.01
     Time step             =     4.20 a.u.,  0.2032 femto-seconds

     Entering Dynamics:    iteration =     1
                           time      =   0.0002 pico-seconds


ATOMIC_POSITIONS (angstrom)
Hf            2.6700228879        2.8272081009        6.6039641689
Hf            1.2530100318        1.2863697865        5.0584660659
Hf            1.2555065272        7.3898904130        5.0880678428
Hf            4.0870359824        1.2863694562        5.0584660317
Hf            4.0845304092        7.3899086145        5.0880682704
Nb            2.6700231114        2.7970156290        3.5155844408
Nb            2.6700219825        5.8764649384        6.6349976046
Ta            1.2093930430        4.3410137942        5.0711256816
Ta            4.1306528828        4.3410150727        5.0711255851
Ta            1.3072749330        1.3142076290        2.0587774450
Ta            1.3028106233        1.3084759921        8.0945808382
Ta            1.3040322991        7.3759129907        2.0462355566
Ta            1.3077334183        7.3651696670        8.0860039983
Ta            4.0327707800        1.3142074717        2.0587772857
Ta            4.0372351311        1.3084758554        8.0945809705
Ta            4.0360137649        7.3759132625        2.0462355837
Ta            4.0323125801        7.3651699336        8.0860039846
Zr            2.6700220590        5.8663725366        3.5273834493
Zr            1.2438507559        4.3221634323        1.9999935018
Zr            1.2404012354        4.3542094212        8.1497621410
Zr            4.0961950091        4.3221636542        1.9999934314
Zr            4.0996446148        4.3542095489        8.1497623031
H             4.6109691545        6.1276008756        5.0721472147


     kinetic energy (Ekin) =           4.04967501 Ry
     temperature           =       19375.54887284 K 
     Ekin + Etot (const)   =       -2938.69395492 Ry
     Ions kinetic stress =           71.52 (kbar)
                                     14.38          53.65           0.00
                                     53.65         200.19           0.00
                                      0.00           0.00           0.00



     Linear momentum :    0.0000000000   -0.0000000000    0.0000000000

     File outdir/pwscf.msd.dat deleted, as requested

     Writing config-only to output data dir outdir/pwscf.save/
     NEW-OLD atomic charge density approx. for the potential

     Check: negative core charge=   -0.000002

     negative rho (up, down):  9.080E-01 9.080E-01
     Generating pointlists ...
     new r_m :   0.0817 (alat units)  1.4421 (a.u.) for type    3

     total cpu time spent up to now is      378.4 secs

     Self-consistent Calculation

     iteration #  1     ecut=   120.00 Ry     beta= 0.70
     Davidson diagonalization with overlap
     ethr =  1.00E-06,  avg # of iterations =  9.0

     negative rho (up, down):  9.083E-01 9.083E-01

     total cpu time spent up to now is      414.7 secs

     total energy              =   -2942.86187641 Ry
     estimated scf accuracy    <       0.08037463 Ry

     total magnetization       =    -0.01 Bohr mag/cell
     absolute magnetization    =     0.02 Bohr mag/cell

     iteration #  2     ecut=   120.00 Ry     beta= 0.70
     Davidson diagonalization with overlap
     ethr =  2.90E-05,  avg # of iterations =  2.0

     negative rho (up, down):  9.082E-01 9.082E-01

     total cpu time spent up to now is      431.8 secs

     total energy              =   -2942.86850547 Ry
     estimated scf accuracy    <       0.03410688 Ry

     total magnetization       =    -0.01 Bohr mag/cell
     absolute magnetization    =     0.01 Bohr mag/cell

     iteration #  3     ecut=   120.00 Ry     beta= 0.70
     Davidson diagonalization with overlap
     ethr =  1.23E-05,  avg # of iterations =  1.0

     negative rho (up, down):  9.083E-01 9.083E-01

     total cpu time spent up to now is      447.4 secs

     total energy              =   -2942.87047659 Ry
     estimated scf accuracy    <       0.00230084 Ry

     total magnetization       =    -0.01 Bohr mag/cell
     absolute magnetization    =     0.01 Bohr mag/cell

     iteration #  4     ecut=   120.00 Ry     beta= 0.70
     Davidson diagonalization with overlap
     ethr =  8.31E-07,  avg # of iterations =  2.0

     negative rho (up, down):  9.084E-01 9.084E-01

     Magnetic moment per site  (integrated on atomic sphere of radius R)
     atom   1 (R=0.055)  charge=  2.8629  magn=  0.0000
     atom   2 (R=0.055)  charge=  2.8456  magn= -0.0000
     atom   3 (R=0.055)  charge=  2.8450  magn= -0.0000
     atom   4 (R=0.055)  charge=  2.8467  magn= -0.0000
     atom   5 (R=0.055)  charge=  2.8598  magn= -0.0000
     atom   6 (R=0.110)  charge= 10.3475  magn= -0.0001
     atom   7 (R=0.110)  charge= 10.3473  magn= -0.0001
     atom   8 (R=0.082)  charge=  7.4239  magn=  0.0000
     atom   9 (R=0.082)  charge=  7.4299  magn=  0.0000
     atom  10 (R=0.082)  charge=  7.4080  magn= -0.0001
     atom  11 (R=0.082)  charge=  7.4066  magn= -0.0004
     atom  12 (R=0.082)  charge=  7.4097  magn= -0.0001
     atom  13 (R=0.082)  charge=  7.4072  magn= -0.0000
     atom  14 (R=0.082)  charge=  7.4097  magn= -0.0001
     atom  15 (R=0.082)  charge=  7.4091  magn= -0.0002
     atom  16 (R=0.082)  charge=  7.4089  magn= -0.0003
     atom  17 (R=0.082)  charge=  7.4069  magn= -0.0002
     atom  18 (R=0.111)  charge=  9.4535  magn= -0.0000
     atom  19 (R=0.111)  charge=  8.9908  magn= -0.0001
     atom  20 (R=0.111)  charge=  8.9939  magn=  0.0001
     atom  21 (R=0.111)  charge=  8.9911  magn= -0.0002
     atom  22 (R=0.111)  charge=  8.9952  magn=  0.0000
     atom  23 (R=0.055)  charge=  0.7454  magn= -0.0000

     total cpu time spent up to now is      471.3 secs

     End of self-consistent calculation

 ------ SPIN UP ------------


          k = 0.0000 0.0000 0.0000 ( 61588 PWs)   bands (ev):

   -60.7557 -60.7549 -60.7101 -60.7096 -60.6839 -60.6677 -60.6389 -60.6237
   -60.5598 -60.5057 -54.3567 -54.2977 -54.2243 -53.9051 -52.6677 -46.2764
   -46.2541 -41.6204 -41.6170 -41.5370 -41.5161 -39.8368 -27.7639 -27.7545
   -27.6781 -27.6657 -27.5772 -27.5627 -27.4517 -27.4392 -27.4234 -27.3105
   -27.2956 -27.2432 -27.2386 -27.2348 -27.2027 -27.1788 -27.1682 -27.1431
   -27.1244 -27.1185 -27.0814 -27.0451 -26.9335 -26.9325 -26.9246 -26.9200
   -26.8655 -26.8625 -26.8361 -26.8261 -24.1768 -23.9915 -23.6410 -23.5270
   -23.2817 -23.1492 -23.0776 -22.9853 -22.9131 -22.8717 -22.7149 -22.5813
   -22.5118 -22.4522 -22.3721 -22.3036 -22.2560 -22.1781 -21.7299 -21.6716
   -21.6007 -20.1819 -19.9203 -19.8259 -19.8198 -19.6012 -19.5899 -19.5862
   -19.5735 -19.5606 -19.5253 -19.3480 -19.3457 -18.1848 -17.9830 -17.8282
     0.5524   1.9134   2.9494   3.1501   3.3658   3.4633   3.5444   3.5922
     3.6800   3.9064   3.9283   4.1420   4.2189   4.4902   4.5433   4.7064
     4.7527   4.9580   5.0364   5.1272   5.2009   5.2794   5.3019   5.3753
     5.4072   5.5425   5.5744   5.7067   5.7473   5.7574   5.7812   5.9087
     6.0575   6.0877   6.2028   6.2286   6.2658   6.3177   6.3710   6.3962
     6.5231   6.6084   6.6598   6.7231   6.8059   7.0077   7.0365   7.1030
     7.1278   7.1441   7.2893   7.3274   7.3482   7.4720   7.5566   7.5744
     7.6341   7.8274   7.8836   7.9142   8.0737   8.1092   8.1294   8.2310
     8.2539   8.2662   8.3771   8.3950   8.4315   8.5450   8.6736   8.7111
     8.8726   8.9219   9.0238   9.0670   9.0979   9.2127   9.2528

 ------ SPIN DOWN ----------


          k = 0.0000 0.0000 0.0000 ( 61588 PWs)   bands (ev):

   -60.7559 -60.7551 -60.7104 -60.7098 -60.6841 -60.6681 -60.6392 -60.6241
   -60.5597 -60.5056 -54.3567 -54.2978 -54.2244 -53.9052 -52.6677 -46.2764
   -46.2542 -41.6203 -41.6170 -41.5369 -41.5161 -39.8369 -27.7643 -27.7549
   -27.6785 -27.6661 -27.5775 -27.5629 -27.4520 -27.4395 -27.4236 -27.3107
   -27.2958 -27.2434 -27.2389 -27.2349 -27.2030 -27.1788 -27.1684 -27.1434
   -27.1244 -27.1188 -27.0814 -27.0451 -26.9338 -26.9328 -26.9250 -26.9204
   -26.8658 -26.8630 -26.8364 -26.8265 -24.1768 -23.9915 -23.6411 -23.5270
   -23.2818 -23.1493 -23.0776 -22.9853 -22.9131 -22.8718 -22.7149 -22.5813
   -22.5119 -22.4523 -22.3722 -22.3037 -22.2561 -22.1781 -21.7299 -21.6716
   -21.6007 -20.1820 -19.9201 -19.8259 -19.8199 -19.6012 -19.5899 -19.5863
   -19.5734 -19.5606 -19.5253 -19.3481 -19.3456 -18.1848 -17.9830 -17.8283
     0.5523   1.9131   2.9489   3.1500   3.3655   3.4628   3.5443   3.5920
     3.6799   3.9063   3.9278   4.1418   4.2188   4.4901   4.5431   4.7062
     4.7525   4.9577   5.0361   5.1270   5.2008   5.2791   5.3017   5.3750
     5.4069   5.5424   5.5743   5.7067   5.7471   5.7572   5.7810   5.9086
     6.0572   6.0874   6.2026   6.2284   6.2655   6.3175   6.3708   6.3959
     6.5228   6.6083   6.6596   6.7228   6.8057   7.0072   7.0359   7.1023
     7.1270   7.1434   7.2883   7.3268   7.3473   7.4715   7.5560   7.5743
     7.6336   7.8270   7.8833   7.9139   8.0733   8.1086   8.1291   8.2303
     8.2535   8.2659   8.3763   8.3948   8.4312   8.5448   8.6734   8.7107
     8.8724   8.9210   9.0237   9.0668   9.0976   9.2125   9.2523

     the Fermi energy is     7.2638 ev

!    total energy              =   -2942.87035914 Ry
     estimated scf accuracy    <       0.00044240 Ry
     smearing contrib. (-TS)   =      -0.10056674 Ry
     internal energy E=F+TS    =   -2942.76979239 Ry

     total magnetization       =    -0.01 Bohr mag/cell
     absolute magnetization    =     0.01 Bohr mag/cell

     convergence has been achieved in   4 iterations

     negative rho (up, down):  9.084E-01 9.084E-01

     Forces acting on atoms (cartesian axes, Ry/au):

     atom    1 type  1   force =    -0.00027703   -0.03054508    0.00374208
     atom    2 type  1   force =    -0.12617376   -0.01247866   -0.00164772
     atom    3 type  1   force =    -0.11695614    0.01121821    0.00358518
     atom    4 type  1   force =     0.13767417   -0.01838738   -0.00230707
     atom    5 type  1   force =    -0.05397174    0.41245138    0.01685462
     atom    6 type  2   force =     0.00287759   -0.01842669    0.02107316
     atom    7 type  2   force =    -0.01847147    0.00684871   -0.00606523
     atom    8 type  3   force =    -0.10488490    0.00273694   -0.00240096
     atom    9 type  3   force =     0.09757236    0.02875559   -0.00474716
     atom   10 type  3   force =    -0.02643554   -0.03281264   -0.06132235
     atom   11 type  3   force =    -0.02487808   -0.03454835    0.05629754
     atom   12 type  3   force =    -0.01081321    0.03715073   -0.05874469
     atom   13 type  3   force =    -0.01462390    0.03104987    0.06101031
     atom   14 type  3   force =     0.01721960   -0.03729748   -0.06602178
     atom   15 type  3   force =     0.01804812   -0.03974681    0.06007354
     atom   16 type  3   force =     0.01397713    0.04999299   -0.05775462
     atom   17 type  3   force =     0.01715597    0.04275712    0.05976549
     atom   18 type  4   force =    -0.01617058    0.02081795   -0.00564117
     atom   19 type  4   force =    -0.12444645   -0.00520968   -0.11813107
     atom   20 type  4   force =    -0.12606833    0.00410764    0.11536808
     atom   21 type  4   force =     0.12019338   -0.00606693   -0.11928490
     atom   22 type  4   force =     0.12495416    0.00285215    0.11723331
     atom   23 type  5   force =     0.21449864   -0.41521958   -0.01093459
     The non-local contrib.  to forces
     atom    1 type  1   force =    -0.00452984   -0.01175764    0.03059277
     atom    2 type  1   force =    -0.24745864   -0.16060883    0.01605767
     atom    3 type  1   force =    -0.22739335    0.15740692   -0.02556035
     atom    4 type  1   force =     0.24940568   -0.22579477    0.01650856
     atom    5 type  1   force =     0.20911687    0.13234608   -0.02102087
     atom    6 type  2   force =     0.00524076   -0.04222969   -0.07039280
     atom    7 type  2   force =     0.00138894    0.05501193    0.07004164
     atom    8 type  3   force =    -0.25536636    0.00718562   -0.00434506
     atom    9 type  3   force =     0.21459755    0.06372870   -0.00761650
     atom   10 type  3   force =    -0.21536483    0.00715275   -0.20769345
     atom   11 type  3   force =    -0.22441984    0.00942267    0.19977755
     atom   12 type  3   force =    -0.19518263   -0.02504163   -0.18050409
     atom   13 type  3   force =    -0.20309297   -0.00894377    0.20809707
     atom   14 type  3   force =     0.21308776    0.00270091   -0.21015093
     atom   15 type  3   force =     0.22243566    0.00668090    0.19746277
     atom   16 type  3   force =     0.20601911   -0.01685035   -0.17276246
     atom   17 type  3   force =     0.21092198   -0.00170369    0.20225504
     atom   18 type  4   force =     0.00198439    0.04878372   -0.07267512
     atom   19 type  4   force =     0.05698900    0.00725142    0.07444569
     atom   20 type  4   force =     0.05536508   -0.01480959   -0.06977956
     atom   21 type  4   force =    -0.06499232    0.01332792    0.06815186
     atom   22 type  4   force =    -0.05893215   -0.01231895   -0.05939436
     atom   23 type  5   force =    -0.04744113    0.05230316   -0.00132514
     The ionic contribution  to forces
     atom    1 type  1   force =    -0.16191304   -4.72778130   14.09754584
     atom    2 type  1   force =   -39.76733844   -6.06364521    0.77957983
     atom    3 type  1   force =   -39.96816881    6.25424395   -0.71221177
     atom    4 type  1   force =    39.58937845   -5.94081595    0.77857667
     atom    5 type  1   force =    38.26179236    9.35366166   -0.67298784
     atom    6 type  2   force =    -0.17159540   -3.69040563  -14.00081366
     atom    7 type  2   force =    -0.82624267    3.44925113   14.56640424
     atom    8 type  3   force =   -52.35816974   -0.10947990   -0.06500207
     atom    9 type  3   force =    51.53526308   -1.88450268   -0.06602475
     atom   10 type  3   force =   -36.10518896   -2.05508632  -23.11364704
     atom   11 type  3   force =   -35.17928523   -0.80800712   22.11785997
     atom   12 type  3   force =   -35.35631320    0.84863591  -22.24083109
     atom   13 type  3   force =   -36.14765137    2.23266324   23.17123579
     atom   14 type  3   force =    36.00164607   -2.02313775  -23.18656645
     atom   15 type  3   force =    35.07640877   -0.77581525   22.19081253
     atom   16 type  3   force =    35.12043306    0.98771228  -22.57664339
     atom   17 type  3   force =    35.90819339    2.37293077   23.51166586
     atom   18 type  4   force =    -0.77277436    4.22758929  -14.44784751
     atom   19 type  4   force =   -35.97817424    0.88789288  -25.60530472
     atom   20 type  4   force =   -35.96176539   -1.02221495   25.58403833
     atom   21 type  4   force =    35.81183666    0.75591230  -25.83293390
     atom   22 type  4   force =    35.79479622   -1.15401205   25.81537334
     atom   23 type  5   force =     5.65483278   -1.11558931   -0.09227820
     The local contribution  to forces
     atom    1 type  1   force =     0.17331279    4.70429770  -14.11104568
     atom    2 type  1   force =    39.89736054    6.20650898   -0.78931143
     atom    3 type  1   force =    40.09337979   -6.39899664    0.74711028
     atom    4 type  1   force =   -39.70588986    6.14565415   -0.78686284
     atom    5 type  1   force =   -38.53892345   -9.05920712    0.71953149
     atom    6 type  2   force =     0.17412582    3.69599274   14.10140180
     atom    7 type  2   force =     0.81807725   -3.49043922  -14.64093932
     atom    8 type  3   force =    52.54111543    0.10434774    0.08444682
     atom    9 type  3   force =   -51.66295924    1.86841336    0.09091844
     atom   10 type  3   force =    36.31640219    1.98877287   23.27102419
     atom   11 type  3   force =    35.40249344    0.75508828  -22.27759385
     atom   12 type  3   force =    35.55659904   -0.76197465   22.37583746
     atom   13 type  3   force =    36.34946717   -2.17569556  -23.33477208
     atom   14 type  3   force =   -36.21735462    1.96024769   23.34489101
     atom   15 type  3   force =   -35.29600229    0.72014124  -22.34691206
     atom   16 type  3   force =   -35.33495980   -0.89095080   22.71198236
     atom   17 type  3   force =   -36.11315511   -2.30637928  -23.67934395
     atom   18 type  4   force =     0.76019154   -4.23221154   14.52942095
     atom   19 type  4   force =    35.79557934   -0.89869105   25.41766965
     atom   20 type  4   force =    35.78635564    1.03581442  -25.40922065
     atom   21 type  4   force =   -35.62920673   -0.78007299   25.65471479
     atom   22 type  4   force =   -35.61479107    1.15976134  -25.65523850
     atom   23 type  5   force =    -5.39384200    0.64704039    0.08454031
     The core correction contribution to forces
     atom    1 type  1   force =    -0.00054555    0.00069409   -0.00106790
     atom    2 type  1   force =    -0.01064436   -0.00029043    0.00093646
     atom    3 type  1   force =    -0.00829713    0.00570045   -0.00145106
     atom    4 type  1   force =     0.01378125   -0.00729464    0.00051090
     atom    5 type  1   force =     0.01005621   -0.00889869   -0.00108281
     atom    6 type  2   force =    -0.00037752    0.00207950    0.00296363
     atom    7 type  2   force =     0.00011928   -0.00279802   -0.00295908
     atom    8 type  3   force =    -0.03050633   -0.00020459   -0.00033577
     atom    9 type  3   force =     0.02173544   -0.00284226   -0.00102267
     atom   10 type  3   force =    -0.02337888    0.00954498   -0.01682188
     atom   11 type  3   force =    -0.02511811    0.00950679    0.01781769
     atom   12 type  3   force =    -0.02128195   -0.01095914   -0.01564154
     atom   13 type  3   force =    -0.02138228   -0.01004498    0.01671720
     atom   14 type  3   force =     0.02201217    0.00906995   -0.01787968
     atom   15 type  3   force =     0.02368668    0.00965399    0.01791281
     atom   16 type  3   force =     0.02252085   -0.00970576   -0.01410710
     atom   17 type  3   force =     0.02201807   -0.00881948    0.01525766
     atom   18 type  4   force =     0.00011669   -0.00255660    0.00387741
     atom   19 type  4   force =    -0.00950664    0.00012386   -0.00970681
     atom   20 type  4   force =    -0.00950911    0.00039037    0.00949331
     atom   21 type  4   force =     0.00998875   -0.00014638   -0.00920107
     atom   22 type  4   force =     0.00978209    0.00025145    0.00870731
     atom   23 type  5   force =     0.00000000    0.00000000    0.00000000
     The Hubbard contrib.    to forces
     atom    1 type  1   force =     0.00000000    0.00000000    0.00000000
     atom    2 type  1   force =     0.00000000    0.00000000    0.00000000
     atom    3 type  1   force =     0.00000000    0.00000000    0.00000000
     atom    4 type  1   force =     0.00000000    0.00000000    0.00000000
     atom    5 type  1   force =     0.00000000    0.00000000    0.00000000
     atom    6 type  2   force =     0.00000000    0.00000000    0.00000000
     atom    7 type  2   force =     0.00000000    0.00000000    0.00000000
     atom    8 type  3   force =     0.00000000    0.00000000    0.00000000
     atom    9 type  3   force =     0.00000000    0.00000000    0.00000000
     atom   10 type  3   force =     0.00000000    0.00000000    0.00000000
     atom   11 type  3   force =     0.00000000    0.00000000    0.00000000
     atom   12 type  3   force =     0.00000000    0.00000000    0.00000000
     atom   13 type  3   force =     0.00000000    0.00000000    0.00000000
     atom   14 type  3   force =     0.00000000    0.00000000    0.00000000
     atom   15 type  3   force =     0.00000000    0.00000000    0.00000000
     atom   16 type  3   force =     0.00000000    0.00000000    0.00000000
     atom   17 type  3   force =     0.00000000    0.00000000    0.00000000
     atom   18 type  4   force =     0.00000000    0.00000000    0.00000000
     atom   19 type  4   force =     0.00000000    0.00000000    0.00000000
     atom   20 type  4   force =     0.00000000    0.00000000    0.00000000
     atom   21 type  4   force =     0.00000000    0.00000000    0.00000000
     atom   22 type  4   force =     0.00000000    0.00000000    0.00000000
     atom   23 type  5   force =     0.00000000    0.00000000    0.00000000
     The SCF correction term to forces
     atom    1 type  1   force =    -0.00620713    0.00410729   -0.01158924
     atom    2 type  1   force =     0.00230142    0.00566206   -0.00821655
     atom    3 type  1   force =    -0.00608237   -0.00703124   -0.00360822
     atom    4 type  1   force =    -0.00860708    0.00996907   -0.01034666
     atom    5 type  1   force =     0.00438054   -0.00534532   -0.00689164
     atom    6 type  2   force =    -0.00412180    0.01624162   -0.01139211
     atom    7 type  2   force =    -0.01141999   -0.00407187    0.00208099
     atom    8 type  3   force =    -0.00156363    0.00099330   -0.01647118
     atom    9 type  3   force =    -0.01067019   -0.01593629   -0.02030799
     atom   10 type  3   force =     0.00148921    0.01690832    0.00650953
     atom   11 type  3   force =     0.00184593   -0.00045373   -0.00087011
     atom   12 type  3   force =     0.00575980   -0.01340454    0.00308827
     atom   13 type  3   force =     0.00842982   -0.00682383    0.00042603
     atom   14 type  3   force =    -0.00177750    0.01392695    0.00437797
     atom   15 type  3   force =    -0.00808642   -0.00030247    0.00149120
     atom   16 type  3   force =     0.00035818   -0.02010715   -0.00553033
     atom   17 type  3   force =    -0.01042808   -0.01316596    0.01062459
     atom   18 type  4   force =    -0.00529456   -0.02068169   -0.01772319
     atom   19 type  4   force =     0.01106037   -0.00168155    0.00545882
     atom   20 type  4   force =     0.00387972    0.00503262    0.00153035
     atom   21 type  4   force =    -0.00703871    0.00501745    0.00067713
     atom   22 type  4   force =    -0.00550666    0.00927560    0.00847923
     atom   23 type  5   force =     0.00134327    0.00113142   -0.00117785

     Total force =     0.791034     Total SCF correction =     0.073560


     Computing stress (Cartesian axis) and pressure


     negative rho (up, down):  9.084E-01 9.084E-01
          total   stress  (Ry/bohr**3)                   (kbar)     P=       94.71
   0.00066968  -0.00006787  -0.00000404           98.51       -9.98       -0.59
  -0.00006787   0.00086641  -0.00001074           -9.98      127.45       -1.58
  -0.00000404  -0.00001074   0.00039538           -0.59       -1.58       58.16


     Entering Dynamics:    iteration =     2
                           time      =   0.0004 pico-seconds


ATOMIC_POSITIONS (angstrom)
Hf            2.6700458029        2.8272914199        6.6039643338
Hf            1.2530221436        1.2864546756        5.0584658112
Hf            1.2555194448        7.3899771748        5.0880681238
Hf            4.0870706307        1.2864536759        5.0584657049
Hf            4.0845447061        7.3900366004        5.0880697405
Nb            2.6700465830        2.7970986211        3.5155879880
Nb            2.6700419718        5.8765519554        6.6349965974
Ta            1.2094070936        4.3410998917        5.0711253950
Ta            4.1306844302        4.3411039214        5.0711250692
Ta            1.3072956857        1.3142908115        2.0587723090
Ta            1.3028315243        1.3085588928        8.0945856604
Ta            1.3040543641        7.3760019600        2.0462306084
Ta            1.3077552105        7.3652581430        8.0860092290
Ta            4.0327953048        1.3142902430        2.0587717245
Ta            4.0372596838        1.3085583250        8.0945861387
Ta            4.0360380290        7.3760032305        2.0462307186
Ta            4.0323370156        7.3652593388        8.0860091312
Zr            2.6700423455        5.8664615671        3.5273823349
Zr            1.2438529214        4.3222483152        1.9999737410
Zr            1.2404029044        4.3542960191        8.1497816849
Zr            4.0962382173        4.3222486628        1.9999734708
Zr            4.0996887568        4.3542961335        8.1497822186
H             4.5747641346        5.9812386635        5.0720590298


     kinetic energy (Ekin) =           4.17658925 Ry
     temperature           =       19982.76628365 K 
     Ekin + Etot (const)   =       -2938.69376988 Ry
     Ions kinetic stress =           73.76 (kbar)
                                     13.30          52.60           0.02
                                     52.60         207.98           0.09
                                      0.02           0.09           0.00



     Linear momentum :    0.0000000000   -0.0000000000    0.0000000000

     Writing config-only to output data dir outdir/pwscf.save/
     NEW-OLD atomic charge density approx. for the potential

     Check: negative core charge=   -0.000002

     negative rho (up, down):  9.085E-01 9.085E-01
     Generating pointlists ...
     new r_m :   0.0750 (alat units)  1.3245 (a.u.) for type    3
     new r_m :   0.1084 (alat units)  1.9137 (a.u.) for type    4

     total cpu time spent up to now is      533.9 secs

     Self-consistent Calculation

     iteration #  1     ecut=   120.00 Ry     beta= 0.70
     Davidson diagonalization with overlap
     ethr =  1.00E-06,  avg # of iterations = 18.5

     negative rho (up, down):  9.087E-01 9.087E-01

     total cpu time spent up to now is      574.8 secs

     total energy              =   -2942.93139697 Ry
     estimated scf accuracy    <       0.09472232 Ry

     total magnetization       =    -0.01 Bohr mag/cell
     absolute magnetization    =     0.01 Bohr mag/cell

     iteration #  2     ecut=   120.00 Ry     beta= 0.70
     Davidson diagonalization with overlap
     ethr =  3.42E-05,  avg # of iterations =  2.0

     negative rho (up, down):  9.088E-01 9.088E-01

     total cpu time spent up to now is      592.4 secs

     total energy              =   -2942.93927462 Ry
     estimated scf accuracy    <       0.02893076 Ry

     total magnetization       =    -0.01 Bohr mag/cell
     absolute magnetization    =     0.01 Bohr mag/cell

     iteration #  3     ecut=   120.00 Ry     beta= 0.70
     Davidson diagonalization with overlap
     ethr =  1.04E-05,  avg # of iterations =  1.0

     negative rho (up, down):  9.088E-01 9.088E-01

     total cpu time spent up to now is      608.4 secs

     total energy              =   -2942.94125174 Ry
     estimated scf accuracy    <       0.00286777 Ry

     total magnetization       =    -0.01 Bohr mag/cell
     absolute magnetization    =     0.01 Bohr mag/cell

     iteration #  4     ecut=   120.00 Ry     beta= 0.70
     Davidson diagonalization with overlap
     ethr =  1.04E-06,  avg # of iterations = 18.5

     negative rho (up, down):  9.088E-01 9.088E-01

     Magnetic moment per site  (integrated on atomic sphere of radius R)
     atom   1 (R=0.055)  charge=  2.8630  magn=  0.0000
     atom   2 (R=0.055)  charge=  2.8457  magn= -0.0000
     atom   3 (R=0.055)  charge=  2.8450  magn= -0.0000
     atom   4 (R=0.055)  charge=  2.8471  magn=  0.0000
     atom   5 (R=0.055)  charge=  2.8575  magn= -0.0000
     atom   6 (R=0.110)  charge= 10.3462  magn= -0.0000
     atom   7 (R=0.110)  charge= 10.3472  magn= -0.0000
     atom   8 (R=0.075)  charge=  6.5820  magn= -0.0000
     atom   9 (R=0.075)  charge=  6.5948  magn= -0.0000
     atom  10 (R=0.075)  charge=  6.5674  magn= -0.0001
     atom  11 (R=0.075)  charge=  6.5670  magn= -0.0002
     atom  12 (R=0.075)  charge=  6.5656  magn= -0.0001
     atom  13 (R=0.075)  charge=  6.5691  magn= -0.0000
     atom  14 (R=0.075)  charge=  6.5664  magn= -0.0001
     atom  15 (R=0.075)  charge=  6.5653  magn= -0.0002
     atom  16 (R=0.075)  charge=  6.5675  magn= -0.0002
     atom  17 (R=0.075)  charge=  6.5677  magn= -0.0001
     atom  18 (R=0.108)  charge=  9.2428  magn= -0.0000
     atom  19 (R=0.108)  charge=  8.8377  magn=  0.0000
     atom  20 (R=0.108)  charge=  8.8297  magn= -0.0000
     atom  21 (R=0.108)  charge=  8.8401  magn= -0.0002
     atom  22 (R=0.108)  charge=  8.8300  magn= -0.0001
     atom  23 (R=0.055)  charge=  0.7060  magn=  0.0000

     total cpu time spent up to now is      636.8 secs

     End of self-consistent calculation

 ------ SPIN UP ------------


          k = 0.0000 0.0000 0.0000 ( 61588 PWs)   bands (ev):

   -60.7658 -60.7490 -60.7204 -60.7043 -60.6767 -60.6676 -60.6327 -60.6241
   -60.5606 -60.4301 -54.3621 -54.2932 -54.2311 -54.0231 -52.6874 -46.2963
   -46.2433 -41.6410 -41.6232 -41.5405 -41.5387 -39.8405 -27.7643 -27.7565
   -27.6745 -27.6729 -27.5831 -27.5576 -27.4464 -27.4344 -27.4084 -27.3151
   -27.2931 -27.2508 -27.2358 -27.2300 -27.1995 -27.1763 -27.1579 -27.1384
   -27.1194 -27.1131 -27.0364 -27.0060 -26.9419 -26.9289 -26.9265 -26.9168
   -26.8674 -26.8613 -26.8301 -26.8271 -24.1724 -23.9765 -23.6421 -23.5405
   -23.2884 -23.1542 -23.0900 -23.0071 -22.9206 -22.8555 -22.7645 -22.5957
   -22.5254 -22.4504 -22.3816 -22.3180 -22.2657 -22.2222 -21.7461 -21.6869
   -21.6173 -20.2033 -19.9216 -19.8484 -19.8439 -19.6121 -19.6071 -19.5959
   -19.5829 -19.5722 -19.5289 -19.3731 -19.3463 -18.1881 -17.9917 -17.8370
     0.2889   1.8627   2.9451   3.1444   3.3611   3.4620   3.5385   3.5979
     3.6692   3.8933   3.9215   4.1353   4.2236   4.4790   4.5547   4.7006
     4.7514   4.9429   5.0284   5.1216   5.1991   5.2743   5.2948   5.3844
     5.3952   5.5305   5.5657   5.6934   5.7432   5.7539   5.7769   5.9023
     6.0556   6.0912   6.1990   6.2288   6.2719   6.3268   6.3596   6.3774
     6.5259   6.6047   6.6533   6.7186   6.8029   7.0010   7.0240   7.1019
     7.1343   7.1429   7.2861   7.3238   7.3473   7.4690   7.5486   7.5655
     7.6313   7.8414   7.8833   7.9020   8.0731   8.1026   8.1247   8.2220
     8.2461   8.2654   8.3723   8.3890   8.4410   8.5405   8.6679   8.6938
     8.8656   8.9221   8.9952   9.0465   9.0927   9.2027   9.2433

 ------ SPIN DOWN ----------


          k = 0.0000 0.0000 0.0000 ( 61588 PWs)   bands (ev):

   -60.7659 -60.7492 -60.7205 -60.7045 -60.6768 -60.6679 -60.6329 -60.6244
   -60.5606 -60.4301 -54.3621 -54.2932 -54.2311 -54.0231 -52.6874 -46.2963
   -46.2433 -41.6411 -41.6232 -41.5406 -41.5388 -39.8405 -27.7646 -27.7567
   -27.6748 -27.6732 -27.5833 -27.5578 -27.4467 -27.4347 -27.4085 -27.3152
   -27.2932 -27.2510 -27.2361 -27.2301 -27.1998 -27.1764 -27.1580 -27.1386
   -27.1195 -27.1132 -27.0364 -27.0060 -26.9421 -26.9292 -26.9267 -26.9171
   -26.8678 -26.8616 -26.8303 -26.8274 -24.1724 -23.9765 -23.6421 -23.5405
   -23.2884 -23.1543 -23.0900 -23.0072 -22.9206 -22.8555 -22.7646 -22.5957
   -22.5254 -22.4504 -22.3817 -22.3181 -22.2658 -22.2222 -21.7461 -21.6869
   -21.6173 -20.2035 -19.9216 -19.8485 -19.8440 -19.6123 -19.6072 -19.5959
   -19.5830 -19.5723 -19.5290 -19.3733 -19.3463 -18.1881 -17.9917 -17.8370
     0.2889   1.8625   2.9448   3.1443   3.3609   3.4616   3.5383   3.5978
     3.6691   3.8932   3.9211   4.1350   4.2234   4.4789   4.5546   4.7003
     4.7511   4.9426   5.0281   5.1214   5.1989   5.2740   5.2947   5.3840
     5.3950   5.5304   5.5655   5.6934   5.7430   5.7538   5.7767   5.9022
     6.0553   6.0909   6.1989   6.2286   6.2717   6.3266   6.3594   6.3771
     6.5256   6.6046   6.6531   6.7184   6.8027   7.0006   7.0235   7.1012
     7.1338   7.1423   7.2853   7.3233   7.3465   7.4685   7.5480   7.5654
     7.6308   7.8411   7.8830   7.9017   8.0728   8.1020   8.1244   8.2215
     8.2456   8.2651   8.3717   8.3888   8.4407   8.5403   8.6677   8.6935
     8.8655   8.9214   8.9957   9.0465   9.0924   9.2028   9.2432

     the Fermi energy is     7.2610 ev

!    total energy              =   -2942.94109711 Ry
     estimated scf accuracy    <       0.00051446 Ry
     smearing contrib. (-TS)   =      -0.10072113 Ry
     internal energy E=F+TS    =   -2942.84037598 Ry

     total magnetization       =    -0.01 Bohr mag/cell
     absolute magnetization    =     0.01 Bohr mag/cell

     convergence has been achieved in   4 iterations

     negative rho (up, down):  9.088E-01 9.088E-01

     Forces acting on atoms (cartesian axes, Ry/au):

     atom    1 type  1   force =    -0.00394592   -0.02896440    0.00133682
     atom    2 type  1   force =    -0.12074635   -0.01095019   -0.00554847
     atom    3 type  1   force =    -0.11198107    0.00899088    0.00260582
     atom    4 type  1   force =     0.13655966   -0.01533008   -0.00872652
     atom    5 type  1   force =     0.02388537    0.23769666    0.01141099
     atom    6 type  2   force =     0.00208540   -0.01817428    0.02041023
     atom    7 type  2   force =    -0.01773466    0.00871234   -0.00346412
     atom    8 type  3   force =    -0.10497754    0.00358252   -0.00631574
     atom    9 type  3   force =     0.08061315   -0.02711240   -0.00914130
     atom   10 type  3   force =    -0.02653333   -0.02647256   -0.05841981
     atom   11 type  3   force =    -0.02369121   -0.03432765    0.05710694
     atom   12 type  3   force =    -0.00979177    0.03194470   -0.05726621
     atom   13 type  3   force =    -0.01007377    0.02870552    0.06265953
     atom   14 type  3   force =     0.01819148   -0.03278653   -0.06266777
     atom   15 type  3   force =     0.01607213   -0.04021684    0.06120139
     atom   16 type  3   force =     0.01462613    0.04391579   -0.05705723
     atom   17 type  3   force =     0.01257615    0.03927551    0.06278147
     atom   18 type  4   force =    -0.01388562    0.01584126   -0.00890566
     atom   19 type  4   force =    -0.11938964   -0.00490573   -0.11613918
     atom   20 type  4   force =    -0.12415502    0.00681138    0.11839751
     atom   21 type  4   force =     0.11623890   -0.00487647   -0.11829979
     atom   22 type  4   force =     0.12281844    0.00534871    0.12149384
     atom   23 type  5   force =     0.14323910   -0.18670814   -0.00745275
     The non-local contrib.  to forces
     atom    1 type  1   force =    -0.00455026   -0.00926255    0.02684961
     atom    2 type  1   force =    -0.24658358   -0.15778120    0.01280793
     atom    3 type  1   force =    -0.22976626    0.15255932   -0.02665569
     atom    4 type  1   force =     0.24890454   -0.22299915    0.01246260
     atom    5 type  1   force =     0.18308321    0.18063495   -0.02221070
     atom    6 type  2   force =     0.00470562   -0.04089031   -0.07028109
     atom    7 type  2   force =     0.00214309    0.05587582    0.07066031
     atom    8 type  3   force =    -0.25508452    0.00782389   -0.00855549
     atom    9 type  3   force =     0.19700347    0.03932896   -0.01180192
     atom   10 type  3   force =    -0.21626505    0.01038775   -0.20609406
     atom   11 type  3   force =    -0.22506101    0.00912898    0.20074574
     atom   12 type  3   force =    -0.19487711   -0.02808253   -0.18042512
     atom   13 type  3   force =    -0.20082148   -0.01015458    0.20931725
     atom   14 type  3   force =     0.21485703    0.00357297   -0.20695147
     atom   15 type  3   force =     0.22312225    0.00567379    0.19671599
     atom   16 type  3   force =     0.20718924   -0.02112730   -0.17212068
     atom   17 type  3   force =     0.20881149   -0.00533483    0.20315323
     atom   18 type  4   force =     0.00326118    0.04510183   -0.07612034
     atom   19 type  4   force =     0.05915777    0.00742925    0.07393718
     atom   20 type  4   force =     0.05652364   -0.01249690   -0.06875223
     atom   21 type  4   force =    -0.06571937    0.01538401    0.06584069
     atom   22 type  4   force =    -0.06086018   -0.00875317   -0.05567707
     atom   23 type  5   force =    -0.03918489    0.01814501   -0.00167011
     The ionic contribution  to forces
     atom    1 type  1   force =    -0.17405354   -4.75338547   14.10955060
     atom    2 type  1   force =   -39.76653322   -6.07691513    0.77959145
     atom    3 type  1   force =   -39.96024912    6.26672823   -0.71223956
     atom    4 type  1   force =    39.59678294   -5.99112752    0.77866566
     atom    5 type  1   force =    38.64974560    8.88159134   -0.68235598
     atom    6 type  2   force =    -0.18411998   -3.71777342  -14.01345290
     atom    7 type  2   force =    -0.85271377    3.50884978   14.60021674
     atom    8 type  3   force =   -52.38652498   -0.11196455   -0.06501240
     atom    9 type  3   force =    51.42764624   -2.27312662   -0.06623961
     atom   10 type  3   force =   -36.10520098   -2.06213230  -23.11291478
     atom   11 type  3   force =   -35.17931264   -0.81502954   22.11712378
     atom   12 type  3   force =   -35.35469214    0.85411168  -22.23828439
     atom   13 type  3   force =   -36.14598120    2.23823428   23.16867859
     atom   14 type  3   force =    36.00434223   -2.04010369  -23.18266370
     atom   15 type  3   force =    35.07913070   -0.79270801   22.18686350
     atom   16 type  3   force =    35.13122067    0.99829221  -22.55115451
     atom   17 type  3   force =    35.91914150    2.38378452   23.48587421
     atom   18 type  4   force =    -0.79856733    4.28303733  -14.47987054
     atom   19 type  4   force =   -35.98432471    0.88860493  -25.61101584
     atom   20 type  4   force =   -35.96790374   -1.02127180   25.58972794
     atom   21 type  4   force =    35.81169124    0.75568505  -25.85870128
     atom   22 type  4   force =    35.79475818   -1.15357365   25.84112400
     atom   23 type  5   force =     5.44571806   -0.24980766   -0.08351097
     The local contribution  to forces
     atom    1 type  1   force =     0.17182614    4.73577582  -14.14189184
     atom    2 type  1   force =    39.90782931    6.22658052   -0.80522424
     atom    3 type  1   force =    40.10249883   -6.41803526    0.74032957
     atom    4 type  1   force =   -39.72756398    6.19375346   -0.80999138
     atom    5 type  1   force =   -38.82649103   -8.81994335    0.71087212
     atom    6 type  2   force =     0.18252851    3.75869801   14.08839349
     atom    7 type  2   force =     0.84313865   -3.54130614  -14.68095707
     atom    8 type  3   force =    52.56816189    0.10825117    0.05020634
     atom    9 type  3   force =   -51.56040124    2.23511536    0.04857079
     atom   10 type  3   force =    36.31715638    2.03753355   23.28241285
     atom   11 type  3   force =    35.41030204    0.76178113  -22.27960803
     atom   12 type  3   force =    35.56423500   -0.80485084   22.37830931
     atom   13 type  3   force =    36.36910154   -2.19854299  -23.33061210
     atom   14 type  3   force =   -36.22033964    2.00991086   23.35059940
     atom   15 type  3   force =   -35.31978320    0.73335106  -22.34096692
     atom   16 type  3   force =   -35.34036506   -0.94679563   22.68901403
     atom   17 type  3   force =   -36.14666855   -2.34281172  -23.64620416
     atom   18 type  4   force =     0.79494481   -4.32070883   14.53854957
     atom   19 type  4   force =    35.82448754   -0.90088020   25.42929787
     atom   20 type  4   force =    35.80267676    1.04657302  -25.40369801
     atom   21 type  4   force =   -35.64590833   -0.76992962   25.68342277
     atom   22 type  4   force =   -35.62832629    1.17865672  -25.66327696
     atom   23 type  5   force =    -5.26492197    0.04413932    0.07604085
     The core correction contribution to forces
     atom    1 type  1   force =    -0.00017270    0.00081257   -0.00081462
     atom    2 type  1   force =    -0.01057983   -0.00037627    0.00082225
     atom    3 type  1   force =    -0.00912866    0.00529277   -0.00139488
     atom    4 type  1   force =     0.01438535   -0.00734307    0.00053973
     atom    5 type  1   force =     0.00472865   -0.00148224   -0.00084861
     atom    6 type  2   force =    -0.00032783    0.00206526    0.00299136
     atom    7 type  2   force =     0.00017468   -0.00282603   -0.00307593
     atom    8 type  3   force =    -0.03039350   -0.00009933   -0.00033437
     atom    9 type  3   force =     0.01959742   -0.00452746   -0.00099670
     atom   10 type  3   force =    -0.02337490    0.00941244   -0.01644714
     atom   11 type  3   force =    -0.02511977    0.00959264    0.01752360
     atom   12 type  3   force =    -0.02139398   -0.01059220   -0.01578939
     atom   13 type  3   force =    -0.02132985   -0.00978417    0.01679492
     atom   14 type  3   force =     0.02229641    0.00892603   -0.01768714
     atom   15 type  3   force =     0.02398913    0.00974559    0.01786136
     atom   16 type  3   force =     0.02258746   -0.00949958   -0.01409549
     atom   17 type  3   force =     0.02203781   -0.00880486    0.01527941
     atom   18 type  4   force =     0.00014989   -0.00257987    0.00397235
     atom   19 type  4   force =    -0.00950267    0.00010999   -0.00966016
     atom   20 type  4   force =    -0.00950980    0.00032418    0.00950767
     atom   21 type  4   force =     0.00997413   -0.00019428   -0.00908500
     atom   22 type  4   force =     0.00981344    0.00016794    0.00862219
     atom   23 type  5   force =     0.00000000    0.00000000    0.00000000
     The Hubbard contrib.    to forces
     atom    1 type  1   force =     0.00000000    0.00000000    0.00000000
     atom    2 type  1   force =     0.00000000    0.00000000    0.00000000
     atom    3 type  1   force =     0.00000000    0.00000000    0.00000000
     atom    4 type  1   force =     0.00000000    0.00000000    0.00000000
     atom    5 type  1   force =     0.00000000    0.00000000    0.00000000
     atom    6 type  2   force =     0.00000000    0.00000000    0.00000000
     atom    7 type  2   force =     0.00000000    0.00000000    0.00000000
     atom    8 type  3   force =     0.00000000    0.00000000    0.00000000
     atom    9 type  3   force =     0.00000000    0.00000000    0.00000000
     atom   10 type  3   force =     0.00000000    0.00000000    0.00000000
     atom   11 type  3   force =     0.00000000    0.00000000    0.00000000
     atom   12 type  3   force =     0.00000000    0.00000000    0.00000000
     atom   13 type  3   force =     0.00000000    0.00000000    0.00000000
     atom   14 type  3   force =     0.00000000    0.00000000    0.00000000
     atom   15 type  3   force =     0.00000000    0.00000000    0.00000000
     atom   16 type  3   force =     0.00000000    0.00000000    0.00000000
     atom   17 type  3   force =     0.00000000    0.00000000    0.00000000
     atom   18 type  4   force =     0.00000000    0.00000000    0.00000000
     atom   19 type  4   force =     0.00000000    0.00000000    0.00000000
     atom   20 type  4   force =     0.00000000    0.00000000    0.00000000
     atom   21 type  4   force =     0.00000000    0.00000000    0.00000000
     atom   22 type  4   force =     0.00000000    0.00000000    0.00000000
     atom   23 type  5   force =     0.00000000    0.00000000    0.00000000
     The SCF correction term to forces
     atom    1 type  1   force =     0.00323645   -0.00300649    0.00718740
     atom    2 type  1   force =    -0.00464702   -0.00255982    0.00599847
     atom    3 type  1   force =    -0.01510386    0.00234410    0.00211072
     atom    4 type  1   force =     0.00428282    0.01228447    0.00914121
     atom    5 type  1   force =     0.01305094   -0.00320575    0.00549849
     atom    6 type  2   force =    -0.00046892   -0.02037553    0.01230371
     atom    7 type  2   force =    -0.01024532   -0.01198281    0.00923615
     atom    8 type  3   force =    -0.00090443   -0.00053038    0.01692452
     atom    9 type  3   force =    -0.00300075   -0.02400436    0.02087046
     atom   10 type  3   force =     0.00138321   -0.02177571   -0.00583234
     atom   11 type  3   force =    -0.00426783    0.00009743    0.00086619
     atom   12 type  3   force =    -0.00283153    0.02125688   -0.00153229
     atom   13 type  3   force =    -0.01081078    0.00885126   -0.00197480
     atom   14 type  3   force =    -0.00273254   -0.01519442   -0.00642051
     atom   15 type  3   force =     0.00984526    0.00361903    0.00027179
     atom   16 type  3   force =    -0.00577417    0.02294439   -0.00915624
     atom   17 type  3   force =     0.00948589    0.01234069    0.00422311
     atom   18 type  4   force =    -0.01344216    0.01088909    0.00410765
     atom   19 type  4   force =    -0.00897557   -0.00027140    0.00084610
     atom   20 type  4   force =    -0.00570987   -0.00641884   -0.00884353
     atom   21 type  4   force =     0.00643323   -0.00592335   -0.00023263
     atom   22 type  4   force =     0.00766529   -0.01125084   -0.00975399
     atom   23 type  5   force =     0.00185990    0.00071347    0.00123180

     Total force =     0.579296     Total SCF correction =     0.080261
     SCF correction compared to forces is large: reduce conv_thr to get better values


     Computing stress (Cartesian axis) and pressure


     negative rho (up, down):  9.088E-01 9.088E-01
          total   stress  (Ry/bohr**3)                   (kbar)     P=       94.68
   0.00066630  -0.00002761  -0.00000148           98.02       -4.06       -0.22
  -0.00002761   0.00085964  -0.00001254           -4.06      126.46       -1.84
  -0.00000148  -0.00001254   0.00040495           -0.22       -1.84       59.57


     Entering Dynamics:    iteration =     3
                           time      =   0.0006 pico-seconds


[...]
     3.6868   3.9017   3.9266   4.1397   4.1872   4.4980   4.5698   4.7111
     4.7655   4.9117   5.0408   5.1258   5.2106   5.2762   5.2975   5.3873
     5.4232   5.5498   5.5763   5.7236   5.7466   5.7593   5.7797   5.8988
     6.0528   6.0746   6.1986   6.2316   6.2728   6.3244   6.3734   6.4033
     6.4799   6.6088   6.6562   6.7286   6.8110   7.0011   7.0263   7.1085
     7.1275   7.1646   7.2736   7.2843   7.3329   7.4594   7.5453   7.5696
     7.6357   7.8213   7.9064   7.9138   8.0778   8.1072   8.1288   8.2170
     8.2495   8.2727   8.3732   8.3935   8.4505   8.5555   8.6687   8.6822
     8.8734   8.9160   9.0212   9.0944   9.1057   9.2246   9.2855

     the Fermi energy is     7.2554 ev

!    total energy              =   -2943.03329749 Ry
     estimated scf accuracy    <       0.00018975 Ry
     smearing contrib. (-TS)   =      -0.10274860 Ry
     internal energy E=F+TS    =   -2942.93054889 Ry

     total magnetization       =    -0.00 Bohr mag/cell
     absolute magnetization    =     0.00 Bohr mag/cell

     convergence has been achieved in   5 iterations

     negative rho (up, down):  9.093E-01 9.093E-01

     Forces acting on atoms (cartesian axes, Ry/au):

     atom    1 type  1   force =    -0.00829294   -0.03224867    0.01160197
     atom    2 type  1   force =    -0.12111274   -0.01501137    0.00021699
     atom    3 type  1   force =    -0.11807766    0.01235908    0.00704084
     atom    4 type  1   force =     0.13849075   -0.00571929   -0.00028462
     atom    5 type  1   force =     0.07848307    0.04380246    0.01457642
     atom    6 type  2   force =    -0.00499819   -0.02049387    0.01152179
     atom    7 type  2   force =    -0.01432778    0.00545108   -0.00938990
     atom    8 type  3   force =    -0.10556081    0.00440985   -0.00372179
     atom    9 type  3   force =     0.07217156   -0.03189433   -0.00427399
     atom   10 type  3   force =    -0.02417686   -0.02718907   -0.06085550
     atom   11 type  3   force =    -0.02265876   -0.03324305    0.05450617
     atom   12 type  3   force =    -0.00941743    0.03502085   -0.05863247
     atom   13 type  3   force =    -0.01244937    0.03074237    0.05959172
     atom   14 type  3   force =     0.01713029   -0.03382524   -0.06694026
     atom   15 type  3   force =     0.01741897   -0.04012874    0.06045846
     atom   16 type  3   force =     0.01345955    0.04616867   -0.06107881
     atom   17 type  3   force =     0.01480005    0.04085152    0.06148438
     atom   18 type  4   force =    -0.01178153    0.01405415   -0.00462414
     atom   19 type  4   force =    -0.12098014   -0.00510940   -0.11695111
     atom   20 type  4   force =    -0.12615229    0.00521831    0.11442286
     atom   21 type  4   force =     0.11516080   -0.00757347   -0.11896629
     atom   22 type  4   force =     0.12332634    0.00242226    0.11691762
     atom   23 type  5   force =     0.10954511    0.01193590   -0.00662035
     The non-local contrib.  to forces
     atom    1 type  1   force =     0.00201625   -0.00650729    0.02109765
     atom    2 type  1   force =    -0.24908505   -0.15729584    0.01702223
     atom    3 type  1   force =    -0.23539350    0.15129106   -0.02421224
     atom    4 type  1   force =     0.25073994   -0.19952666    0.01808447
     atom    5 type  1   force =     0.17414984    0.19166541   -0.02047319
     atom    6 type  2   force =     0.00698129   -0.04489360   -0.06890393
     atom    7 type  2   force =    -0.00078221    0.06718904    0.06782986
     atom    8 type  3   force =    -0.25289550    0.00829455   -0.00466748
     atom    9 type  3   force =     0.17023361   -0.02658143   -0.00616563
     atom   10 type  3   force =    -0.21588140    0.00681610   -0.20828155
     atom   11 type  3   force =    -0.22260378    0.00550534    0.20016437
     atom   12 type  3   force =    -0.19709393   -0.02445674   -0.17873371
     atom   13 type  3   force =    -0.20353471   -0.00591671    0.20706219
     atom   14 type  3   force =     0.21045167    0.00176872   -0.21373557
     atom   15 type  3   force =     0.21862354    0.00410280    0.20033566
     atom   16 type  3   force =     0.21181644   -0.02220447   -0.17326634
     atom   17 type  3   force =     0.21384551   -0.00569529    0.20292855
     atom   18 type  4   force =    -0.00202418    0.05733530   -0.07084894
     atom   19 type  4   force =     0.06052422    0.00720081    0.07296232
     atom   20 type  4   force =     0.05671691   -0.01510251   -0.06917631
     atom   21 type  4   force =    -0.06496448    0.01352597    0.06401769
     atom   22 type  4   force =    -0.05841764   -0.01173776   -0.05514730
     atom   23 type  5   force =    -0.04427494   -0.01019891   -0.00044681
     The ionic contribution  to forces
     atom    1 type  1   force =    -0.31247168   -4.76424067   14.27750486
     atom    2 type  1   force =   -39.76439927   -6.11973560    0.78070998
     atom    3 type  1   force =   -39.82603169    6.19294715   -0.71046007
     atom    4 type  1   force =    39.57562677   -6.20909700    0.77981169
     atom    5 type  1   force =    38.67538540    7.79664624   -0.67990561
     atom    6 type  2   force =    -0.32720605   -3.73171133  -14.18790424
     atom    7 type  2   force =    -0.60521320    3.54661336   14.33990865
     atom    8 type  3   force =   -52.35859097    0.01193442   -0.06458216
     atom    9 type  3   force =    50.92546686   -1.71446901   -0.02872275
     atom   10 type  3   force =   -36.08188163   -2.06499669  -23.08684515
     atom   11 type  3   force =   -35.15723202   -0.81905508   22.09068601
     atom   12 type  3   force =   -35.29824501    0.81771216  -22.17812404
     atom   13 type  3   force =   -36.08412404    2.20019769   23.10495951
     atom   14 type  3   force =    35.97135554   -2.06991472  -23.17699871
     atom   15 type  3   force =    35.04841432   -0.82351528   22.17923466
     atom   16 type  3   force =    35.08926744    0.93325260  -22.43159933
     atom   17 type  3   force =    35.87496912    2.31357118   23.35736382
     atom   18 type  4   force =    -0.57470895    4.31589357  -14.23529941
     atom   19 type  4   force =   -35.92156271    0.91871395  -25.53004173
     atom   20 type  4   force =   -35.90409509   -0.98643032   25.50683078
     atom   21 type  4   force =    35.74313301    0.83607123  -25.78250028
     atom   22 type  4   force =    35.72814559   -1.06554509   25.75656285
     atom   23 type  5   force =     5.58399826    0.48515725   -0.08058932
     The local contribution  to forces
     atom    1 type  1   force =     0.30434313    4.73158724  -14.27521881
     atom    2 type  1   force =    39.90362957    6.26081969   -0.78435021
     atom    3 type  1   force =    39.95329512   -6.33605599    0.75769358
     atom    4 type  1   force =   -39.69859427    6.40916248   -0.78421871
     atom    5 type  1   force =   -38.76682128   -7.95610942    0.73116283
     atom    6 type  2   force =     0.31779571    3.75374276   14.27354341
     atom    7 type  2   force =     0.59406547   -3.59765379  -14.40181461
     atom    8 type  3   force =    52.53525278   -0.01488823    0.07957278
     atom    9 type  3   force =   -51.03659507    1.71749386    0.04507547
     atom   10 type  3   force =    36.29822966    2.02385389   23.24716051
     atom   11 type  3   force =    35.38278751    0.76552569  -22.25615467
     atom   12 type  3   force =    35.50933254   -0.75004683   22.30985492
     atom   13 type  3   force =    36.29857257   -2.14974244  -23.27206743
     atom   14 type  3   force =   -36.18630832    2.02808553   23.33813938
     atom   15 type  3   force =   -35.27018889    0.76328686  -22.33976551
     atom   16 type  3   force =   -35.31133162   -0.85837706   22.55386264
     atom   17 type  3   force =   -36.09490941   -2.25314987  -23.51695685
     atom   18 type  4   force =     0.56647881   -4.35596387   14.30587188
     atom   19 type  4   force =    35.75297428   -0.93112772   25.34591431
     atom   20 type  4   force =    35.72859707    1.00712389  -25.33368894
     atom   21 type  4   force =   -35.57416233   -0.85698545   25.60479547
     atom   22 type  4   force =   -35.55173328    1.08019939  -25.59377485
     atom   23 type  5   force =    -5.42919925   -0.46231466    0.07666096
     The core correction contribution to forces
     atom    1 type  1   force =     0.00030338    0.00166617   -0.00210418
     atom    2 type  1   force =    -0.01056253   -0.00046105    0.00088430
     atom    3 type  1   force =    -0.01004526    0.00421688   -0.00143246
     atom    4 type  1   force =     0.01316846   -0.00594594    0.00084701
     atom    5 type  1   force =     0.00068117    0.00777655   -0.00104337
     atom    6 type  2   force =    -0.00039767    0.00222909    0.00296586
     atom    7 type  2   force =     0.00021079   -0.00341623   -0.00287177
     atom    8 type  3   force =    -0.02989872    0.00024452   -0.00041889
     atom    9 type  3   force =     0.01618033   -0.00916024   -0.00116996
     atom   10 type  3   force =    -0.02331675    0.00932900   -0.01685816
     atom   11 type  3   force =    -0.02504403    0.00932923    0.01769881
     atom   12 type  3   force =    -0.02168172   -0.01055800   -0.01530930
     atom   13 type  3   force =    -0.02172056   -0.00963081    0.01655525
     atom   14 type  3   force =     0.02190982    0.00918251   -0.01794411
     atom   15 type  3   force =     0.02327737    0.00977125    0.01813393
     atom   16 type  3   force =     0.02335156   -0.01004027   -0.01392163
     atom   17 type  3   force =     0.02252438   -0.00907353    0.01524362
     atom   18 type  4   force =     0.00033298   -0.00321791    0.00372221
     atom   19 type  4   force =    -0.00963716    0.00013248   -0.00960455
     atom   20 type  4   force =    -0.00960680    0.00044250    0.00946819
     atom   21 type  4   force =     0.00999206   -0.00005910   -0.00892285
     atom   22 type  4   force =     0.00977967    0.00032252    0.00848503
     atom   23 type  5   force =     0.00000000    0.00000000    0.00000000
     The Hubbard contrib.    to forces
     atom    1 type  1   force =     0.00000000    0.00000000    0.00000000
     atom    2 type  1   force =     0.00000000    0.00000000    0.00000000
     atom    3 type  1   force =     0.00000000    0.00000000    0.00000000
     atom    4 type  1   force =     0.00000000    0.00000000    0.00000000
     atom    5 type  1   force =     0.00000000    0.00000000    0.00000000
     atom    6 type  2   force =     0.00000000    0.00000000    0.00000000
     atom    7 type  2   force =     0.00000000    0.00000000    0.00000000
     atom    8 type  3   force =     0.00000000    0.00000000    0.00000000
     atom    9 type  3   force =     0.00000000    0.00000000    0.00000000
     atom   10 type  3   force =     0.00000000    0.00000000    0.00000000
     atom   11 type  3   force =     0.00000000    0.00000000    0.00000000
     atom   12 type  3   force =     0.00000000    0.00000000    0.00000000
     atom   13 type  3   force =     0.00000000    0.00000000    0.00000000
     atom   14 type  3   force =     0.00000000    0.00000000    0.00000000
     atom   15 type  3   force =     0.00000000    0.00000000    0.00000000
     atom   16 type  3   force =     0.00000000    0.00000000    0.00000000
     atom   17 type  3   force =     0.00000000    0.00000000    0.00000000
     atom   18 type  4   force =     0.00000000    0.00000000    0.00000000
     atom   19 type  4   force =     0.00000000    0.00000000    0.00000000
     atom   20 type  4   force =     0.00000000    0.00000000    0.00000000
     atom   21 type  4   force =     0.00000000    0.00000000    0.00000000
     atom   22 type  4   force =     0.00000000    0.00000000    0.00000000
     atom   23 type  5   force =     0.00000000    0.00000000    0.00000000
     The SCF correction term to forces
     atom    1 type  1   force =    -0.00222476    0.00514180   -0.00873949
     atom    2 type  1   force =    -0.00043620    0.00155734   -0.01311122
     atom    3 type  1   force =     0.00035693   -0.00014411   -0.01360989
     atom    4 type  1   force =    -0.00219089   -0.00041626   -0.01387100
     atom    5 type  1   force =    -0.00465281    0.00371959   -0.01422617
     atom    6 type  2   force =    -0.00191221    0.00003512   -0.00724123
     atom    7 type  2   force =    -0.00234937   -0.00738539   -0.01150397
     atom    8 type  3   force =     0.00083086   -0.00127950   -0.01268797
     atom    9 type  3   force =    -0.00285492    0.00071841   -0.01235304
     atom   10 type  3   force =    -0.00106749   -0.00229546    0.00490691
     atom   11 type  3   force =    -0.00030719    0.00534769    0.00304971
     atom   12 type  3   force =    -0.00147006    0.00226618    0.00461774
     atom   13 type  3   force =    -0.00138338   -0.00426943    0.00402027
     atom   14 type  3   force =    -0.00001916   -0.00305137    0.00453682
     atom   15 type  3   force =    -0.00244811    0.00612154    0.00345779
     atom   16 type  3   force =     0.00061498    0.00343379    0.00478393
     atom   17 type  3   force =    -0.00137029   -0.00490505    0.00384331
     atom   18 type  4   force =    -0.00160094   -0.00009701   -0.00713180
     atom   19 type  4   force =    -0.00301952   -0.00013300    0.00475662
     atom   20 type  4   force =     0.00249487   -0.00091935    0.00192722
     atom   21 type  4   force =     0.00142180   -0.00023020    0.00458176
     atom   22 type  4   force =    -0.00418875   -0.00092088    0.00172996
     atom   23 type  5   force =    -0.00071971   -0.00081187   -0.00130710

     Total force =     0.494572     Total SCF correction =     0.043747


     Computing stress (Cartesian axis) and pressure


     negative rho (up, down):  9.093E-01 9.093E-01
          total   stress  (Ry/bohr**3)                   (kbar)     P=       89.32
   0.00066272   0.00001150  -0.00000186           97.49        1.69       -0.27
   0.00001150   0.00075750  -0.00001333            1.69      111.43       -1.96
  -0.00000186  -0.00001333   0.00040133           -0.27       -1.96       59.04


     Entering Dynamics:    iteration =    20
                           time      =   0.0041 pico-seconds


ATOMIC_POSITIONS (angstrom)
Hf            2.6704683681        2.8285709031        6.6040656271
Hf            1.2520982011        1.2878468189        5.0584173947
Hf            1.2546269104        7.3916569480        5.0880967796
Hf            4.0891276956        1.2878714581        5.0583715705
Hf            4.0857026676        7.3926105818        5.0881743327
Nb            2.6705133791        2.7982975583        3.5158497899
Nb            2.6702414954        5.8783327157        6.6348342816
Ta            1.2085906113        4.3427000326        5.0710764038
Ta            4.1215469202        4.3134738047        5.0712147505
Ta            1.3074280694        1.3154975901        2.0580927864
Ta            1.3029846234        1.3097047233        8.0952225473
Ta            1.3043357886        7.3779399260        2.0456045636
Ta            1.3080116603        7.3671342113        8.0866938807
Ta            4.0334057146        1.3154682013        2.0580685104
Ta            4.0378624845        1.3096848449        8.0952505503
Ta            4.0366036657        7.3780220742        2.0456216710
Ta            4.0329144706        7.3672118415        8.0866821451
Zr            2.6702312528        5.8684686415        3.5271706074
Zr            1.2415034768        4.3236460784        1.9974204973
Zr            1.2379659227        4.3559462575        8.1523594456
Zr            4.0993288628        4.3236347160        1.9974275898
Zr            4.1029102447        4.3559063778        8.1523531038
H             4.9136077825        5.9604582132        5.0593126201


     kinetic energy (Ekin) =           4.34422766 Ry
     temperature           =       20784.82720782 K 
     Ekin + Etot (const)   =       -2938.68906984 Ry
     Ions kinetic stress =           76.72 (kbar)
                                     51.01          95.08          -0.96
                                     95.08         179.01          -1.78
                                     -0.96          -1.78           0.15



     Linear momentum :   -0.0000000000    0.0000000000   -0.0000000000

     The maximum number of steps has been reached.

     End of molecular dynamics calculation

     diffusion coefficients :
     atom     1   D =       0.00000001 cm^2/s
     atom     2   D =       0.00000001 cm^2/s
     atom     3   D =       0.00000002 cm^2/s
     atom     4   D =       0.00000003 cm^2/s
     atom     5   D =       0.00000004 cm^2/s
     atom     6   D =       0.00000001 cm^2/s
     atom     7   D =       0.00000002 cm^2/s
     atom     8   D =       0.00000002 cm^2/s
     atom     9   D =       0.00000343 cm^2/s
     atom    10   D =       0.00000001 cm^2/s
     atom    11   D =       0.00000001 cm^2/s
     atom    12   D =       0.00000002 cm^2/s
     atom    13   D =       0.00000002 cm^2/s
     atom    14   D =       0.00000001 cm^2/s
     atom    15   D =       0.00000001 cm^2/s
     atom    16   D =       0.00000002 cm^2/s
     atom    17   D =       0.00000002 cm^2/s
     atom    18   D =       0.00000002 cm^2/s
     atom    19   D =       0.00000006 cm^2/s
     atom    20   D =       0.00000007 cm^2/s
     atom    21   D =       0.00000008 cm^2/s
     atom    22   D =       0.00000009 cm^2/s
     atom    23   D =       0.00068713 cm^2/s

     < D > =       0.00003005 cm^2/s

     Writing all to output data dir outdir/pwscf.save/

     init_run     :     10.19s CPU     11.25s WALL (       1 calls)
     electrons    :   2346.68s CPU   2816.85s WALL (      20 calls)
     update_pot   :     18.73s CPU     20.51s WALL (      19 calls)
     forces       :    231.20s CPU    259.43s WALL (      20 calls)
     stress       :    394.17s CPU    419.43s WALL (      20 calls)

     Called by init_run:
     wfcinit      :      7.66s CPU      8.34s WALL (       1 calls)
     potinit      :      0.46s CPU      0.49s WALL (       1 calls)
     hinit0       :      0.98s CPU      1.04s WALL (       1 calls)

     Called by electrons:
     c_bands      :   1881.47s CPU   2271.26s WALL (     101 calls)
     sum_band     :    312.75s CPU    365.98s WALL (     101 calls)
     v_of_rho     :     10.62s CPU     12.61s WALL (     121 calls)
     newd         :    174.21s CPU    202.29s WALL (     121 calls)
     mix_rho      :      0.92s CPU      1.24s WALL (     101 calls)

     Called by c_bands:
     init_us_2    :      3.96s CPU      4.08s WALL (     486 calls)
     init_us_2:cp :      3.95s CPU      4.08s WALL (     486 calls)
     regterg      :   1867.56s CPU   2254.49s WALL (     202 calls)

     Called by *egterg:
     rdiaghg      :     65.72s CPU     83.66s WALL (    1534 calls)
     h_psi        :    963.69s CPU   1080.28s WALL (    1574 calls)
     s_psi        :    319.59s CPU    320.32s WALL (    1574 calls)
     g_psi        :      0.70s CPU      0.75s WALL (    1370 calls)

     Called by h_psi:
     h_psi:calbec :    455.99s CPU    534.08s WALL (    1574 calls)
     vloc_psi     :    104.48s CPU    141.41s WALL (    1574 calls)
     add_vuspsi   :    401.96s CPU    403.46s WALL (    1574 calls)

     General routines
     calbec       :    801.63s CPU    936.54s WALL (    1976 calls)
     fft          :      9.04s CPU     26.99s WALL (    2514 calls)
     ffts         :      0.22s CPU      0.29s WALL (     101 calls)
     fftw         :    113.67s CPU    154.70s WALL (  106542 calls)

     Parallel routines

     PWSCF        :  50m34.42s CPU  59m25.16s WALL


   This run was terminated on:  17:37:44  15Jun2023            

=------------------------------------------------------------------------------=
   JOB DONE.
=------------------------------------------------------------------------------=
