
     Program PWSCF v.7.2 starts on 19Jun2023 at  0:41:45 

     This program is part of the open-source Quantum ESPRESSO suite
     for quantum simulation of materials; please cite
         "P. Giannozzi et al., J. Phys.:Condens. Matter 21 395502 (2009);
         "P. Giannozzi et al., J. Phys.:Condens. Matter 29 465901 (2017);
         "P. Giannozzi et al., J. Chem. Phys. 152 154105 (2020);
          URL http://www.quantum-espresso.org", 
     in publications or presentations arising from this work. More details at
     http://www.quantum-espresso.org/quote

     Parallel version (MPI), running on    42 processors

     MPI processes distributed on     1 nodes
     172104 MiB available memory on the printing compute node when the environment starts

     Reading input from md_data/md_Hf5Nb2Ta10Zr5H_20steps_50eV_incident0_polar0.in
Warning: card &CELL ignored
Warning: card / ignored

     Current dimensions of program PWSCF are:
     Max number of different atomic species (ntypx) = 10
     Max number of k-points (npk) =  40000
     Max angular momentum in pseudopotentials (lmaxx) =  4

     File outdir/pwscf.md deleted, as requested

     gamma-point specific algorithms are used

     R & G space division:  proc/nbgrp/npool/nimage =      42
     Subspace diagonalization in iterative solution of the eigenvalue problem:
     one sub-group per band group will be used
     custom distributed-memory algorithm (size of sub-group:  2*  2 procs)


     Parallelization info
     --------------------
     sticks:   dense  smooth     PW     G-vecs:    dense   smooth      PW
     Min         262     262     63                23470    23470    2920
     Max         265     265     66                23484    23484    2942
     Sum       11057   11057   2753               986005   986005  123175

     Using Slab Decomposition



     bravais-lattice index     =            0
     lattice parameter (alat)  =      17.6500  a.u.
     unit-cell volume          =    5552.8853 (a.u.)^3
     number of atoms/cell      =           23
     number of atomic types    =            5
     number of electrons       =       277.00
     number of Kohn-Sham states=          167
     kinetic-energy cutoff     =     120.0000  Ry
     charge density cutoff     =     480.0000  Ry
     scf convergence threshold =      1.0E-03
     mixing beta               =       0.7000
     number of iterations used =            8  TF        mixing
     energy convergence thresh.=      0.0E+00
     force convergence thresh. =      0.0E+00
     Exchange-correlation=  SLA  PW   PBX  PBC
                           (   1   4   3   4   0   0   0)
     nstep                     =           20


     celldm(1)=  17.650041  celldm(2)=   0.000000  celldm(3)=   0.000000
     celldm(4)=   0.000000  celldm(5)=   0.000000  celldm(6)=   0.000000

     crystal axes: (cart. coord. in units of alat)
               a(1) = (   1.000000   0.000000   0.000000 )  
               a(2) = (   0.000000   0.929336   0.000000 )  
               a(3) = (   0.000000   0.000000   1.086698 )  

     reciprocal axes: (cart. coord. in units 2 pi/alat)
               b(1) = (  1.000000  0.000000  0.000000 )  
               b(2) = (  0.000000  1.076037  0.000000 )  
               b(3) = (  0.000000  0.000000  0.920219 )  


     PseudoPot. # 1 for Hf read from file:
     q-e/pseudo/hf_pbe_v1.uspp.F.UPF
     MD5 check sum: 8ee9378dfe14276e333edf04c5e4aa26
     Pseudo is Ultrasoft + core correction, Zval = 12.0
     Generated by new atomic code, or converted to UPF format
     Using radial grid of  921 points,  8 beta functions with: 
                l(1) =   0
                l(2) =   0
                l(3) =   0
                l(4) =   1
                l(5) =   1
                l(6) =   2
                l(7) =   2
                l(8) =   3
     Q(r) pseudized with  6 coefficients,  rinner =    1.200   1.200   1.200
                                                       1.200   1.200   1.200
                                                       1.200

     PseudoPot. # 2 for Nb read from file:
     q-e/pseudo/nb_pbe_v1.uspp.F.UPF
     MD5 check sum: 573aab8a2fa660278ed4a62cd769473f
     Pseudo is Ultrasoft + core correction, Zval = 13.0
     Generated by new atomic code, or converted to UPF format
     Using radial grid of  887 points,  6 beta functions with: 
                l(1) =   0
                l(2) =   0
                l(3) =   1
                l(4) =   1
                l(5) =   2
                l(6) =   2
     Q(r) pseudized with  6 coefficients,  rinner =    1.000   1.000   1.000
                                                       1.000   1.000

     PseudoPot. # 3 for Ta read from file:
     q-e/pseudo/ta_pbe_v1.uspp.F.UPF
     MD5 check sum: f8bbe9446314a3b8ea5d9f3e3836c939
     Pseudo is Ultrasoft + core correction, Zval = 13.0
     Generated by new atomic code, or converted to UPF format
     Using radial grid of  921 points,  7 beta functions with: 
                l(1) =   0
                l(2) =   0
                l(3) =   1
                l(4) =   1
                l(5) =   2
                l(6) =   2
                l(7) =   3
     Q(r) pseudized with  6 coefficients,  rinner =    1.300   1.300   1.300
                                                       1.300   1.300   1.300
                                                       1.300

     PseudoPot. # 4 for Zr read from file:
     q-e/pseudo/zr_pbe_v1.uspp.F.UPF
     MD5 check sum: 5db81b1e868ab7776c4564c113de050b
     Pseudo is Ultrasoft + core correction, Zval = 12.0
     Generated by new atomic code, or converted to UPF format
     Using radial grid of  887 points,  6 beta functions with: 
                l(1) =   0
                l(2) =   0
                l(3) =   1
                l(4) =   1
                l(5) =   2
                l(6) =   2
     Q(r) pseudized with  6 coefficients,  rinner =    1.200   1.200   1.200
                                                       1.200   1.200

     PseudoPot. # 5 for H  read from file:
     q-e/pseudo/h_pbe_v1.4.uspp.F.UPF
     MD5 check sum: 761ae9a214b05c3daf00ab9f6b793d6f
     Pseudo is Ultrasoft, Zval =  1.0
     Generated by new atomic code, or converted to UPF format
     Using radial grid of  615 points,  2 beta functions with: 
                l(1) =   0
                l(2) =   0
     Q(r) pseudized with  8 coefficients,  rinner =    0.700

     atomic species   valence    mass     pseudopotential
        Hf            12.00   178.49000     Hf( 1.00)
        Nb            13.00    92.90637     Nb( 1.00)
        Ta            13.00   180.94788     Ta( 1.00)
        Zr            12.00    91.22400     Zr( 1.00)
        H              1.00     2.01400     H ( 1.00)

     Starting magnetic structure 
     atomic species   magnetization
        Hf           0.000
        Nb           0.000
        Ta           0.000
        Zr           0.000
        H            0.000

     No symmetry found



   Cartesian axes

     site n.     atom                  positions (alat units)
         1           Hf  tau(   1) = (   0.2858672   0.3026898   0.7070626  )
         2           Hf  tau(   2) = (   0.1341532   0.1377178   0.5415917  )
         3           Hf  tau(   3) = (   0.1344204   0.7911996   0.5447610  )
         4           Hf  tau(   4) = (   0.4375813   0.1377178   0.5415917  )
         5           Hf  tau(   5) = (   0.4373140   0.7911996   0.5447610  )
         6           Nb  tau(   6) = (   0.2858672   0.2994572   0.3764008  )
         7           Nb  tau(   7) = (   0.2858672   0.6291626   0.7103852  )
         8           Ta  tau(   8) = (   0.1294832   0.4647675   0.5429471  )
         9           Ta  tau(   9) = (   0.4422513   0.4647675   0.5429471  )
        10           Ta  tau(  10) = (   0.1399628   0.1406984   0.2204260  )
        11           Ta  tau(  11) = (   0.1394848   0.1400847   0.8666573  )
        12           Ta  tau(  12) = (   0.1396156   0.7897030   0.2190832  )
        13           Ta  tau(  13) = (   0.1400119   0.7885528   0.8657390  )
        14           Ta  tau(  14) = (   0.4317717   0.1406984   0.2204260  )
        15           Ta  tau(  15) = (   0.4322496   0.1400847   0.8666573  )
        16           Ta  tau(  16) = (   0.4321189   0.7897030   0.2190832  )
        17           Ta  tau(  17) = (   0.4317226   0.7885528   0.8657390  )
        18           Zr  tau(  18) = (   0.2858672   0.6280820   0.3776642  )
        19           Zr  tau(  19) = (   0.1331729   0.4627493   0.2141328  )
        20           Zr  tau(  20) = (   0.1328036   0.4661802   0.8725649  )
        21           Zr  tau(  21) = (   0.4385616   0.4627493   0.2141328  )
        22           Zr  tau(  22) = (   0.4389309   0.4661802   0.8725649  )
        23           H   tau(  23) = (   0.6563841   0.4646681   0.5430600  )

     number of k points=     1  Gaussian smearing, width (Ry)=  0.0220
                       cart. coord. in units 2pi/alat
        k(    1) = (   0.0000000   0.0000000   0.0000000), wk =   1.0000000

     Dense  grid:   493003 G-vectors     FFT dimensions: ( 125, 120, 135)

     Estimated max dynamical RAM per process >     133.03 MB

     Estimated total dynamical RAM >       5.46 GB

     Check: negative core charge=   -0.000002
     Generating pointlists ...
     new r_m :   0.1117 (alat units)  1.9717 (a.u.) for type    1
     new r_m :   0.1098 (alat units)  1.9374 (a.u.) for type    2
     new r_m :   0.0883 (alat units)  1.5590 (a.u.) for type    3
     new r_m :   0.1112 (alat units)  1.9625 (a.u.) for type    4
     new r_m :   0.0883 (alat units)  1.5590 (a.u.) for type    5

     Initial potential from superposition of free atoms

     starting charge     266.9726, renormalised to     277.0000

     negative rho (up, down):  9.217E-01 9.217E-01
     Starting wfcs are  287 randomized atomic wfcs

     total cpu time spent up to now is       12.0 secs

     Self-consistent Calculation

     iteration #  1     ecut=   120.00 Ry     beta= 0.70
     Davidson diagonalization with overlap
     ethr =  1.00E-02,  avg # of iterations =  2.0

     negative rho (up, down):  9.979E-01 9.976E-01

     total cpu time spent up to now is       30.8 secs

     total energy              =   -2930.51843033 Ry
     estimated scf accuracy    <     277.34127673 Ry

     total magnetization       =    -0.00 Bohr mag/cell
     absolute magnetization    =     0.09 Bohr mag/cell

     iteration #  2     ecut=   120.00 Ry     beta= 0.70
     Davidson diagonalization with overlap
     ethr =  1.00E-02,  avg # of iterations =  5.0

     negative rho (up, down):  9.713E-01 9.712E-01

     total cpu time spent up to now is       52.3 secs

     total energy              =   -2942.25293483 Ry
     estimated scf accuracy    <      29.79698887 Ry

     total magnetization       =    -0.08 Bohr mag/cell
     absolute magnetization    =     0.28 Bohr mag/cell

     iteration #  3     ecut=   120.00 Ry     beta= 0.70
     Davidson diagonalization with overlap
     ethr =  1.00E-02,  avg # of iterations =  2.0

     negative rho (up, down):  1.010E+00 1.012E+00

     total cpu time spent up to now is       70.8 secs

     total energy              =   -2942.64834416 Ry
     estimated scf accuracy    <      12.87250729 Ry

     total magnetization       =    -0.08 Bohr mag/cell
     absolute magnetization    =     0.38 Bohr mag/cell

     iteration #  4     ecut=   120.00 Ry     beta= 0.70
     Davidson diagonalization with overlap
     ethr =  4.65E-03,  avg # of iterations =  4.0

     negative rho (up, down):  1.019E+00 1.021E+00

     total cpu time spent up to now is       88.8 secs

     total energy              =   -2942.92400623 Ry
     estimated scf accuracy    <       3.24333853 Ry

     total magnetization       =    -0.05 Bohr mag/cell
     absolute magnetization    =     0.46 Bohr mag/cell

     iteration #  5     ecut=   120.00 Ry     beta= 0.70
     Davidson diagonalization with overlap
     ethr =  1.17E-03,  avg # of iterations =  7.0

     negative rho (up, down):  9.939E-01 9.954E-01

     total cpu time spent up to now is      111.1 secs

     total energy              =   -2943.04639671 Ry
     estimated scf accuracy    <       1.64784406 Ry

     total magnetization       =    -0.02 Bohr mag/cell
     absolute magnetization    =     0.23 Bohr mag/cell

     iteration #  6     ecut=   120.00 Ry     beta= 0.70
     Davidson diagonalization with overlap
     ethr =  5.95E-04,  avg # of iterations =  3.0

     negative rho (up, down):  9.807E-01 9.816E-01

     total cpu time spent up to now is      127.9 secs

     total energy              =   -2943.09386285 Ry
     estimated scf accuracy    <       1.12935762 Ry

     total magnetization       =    -0.05 Bohr mag/cell
     absolute magnetization    =     0.19 Bohr mag/cell

     iteration #  7     ecut=   120.00 Ry     beta= 0.70
     Davidson diagonalization with overlap
     ethr =  4.08E-04,  avg # of iterations =  2.0

     negative rho (up, down):  9.532E-01 9.536E-01

     total cpu time spent up to now is      158.6 secs

     total energy              =   -2943.03995459 Ry
     estimated scf accuracy    <       0.43796747 Ry

     total magnetization       =    -0.04 Bohr mag/cell
     absolute magnetization    =     0.17 Bohr mag/cell

     iteration #  8     ecut=   120.00 Ry     beta= 0.70
     Davidson diagonalization with overlap
     ethr =  1.58E-04,  avg # of iterations =  6.0

     negative rho (up, down):  9.241E-01 9.240E-01

     total cpu time spent up to now is      197.6 secs

     total energy              =   -2943.04227200 Ry
     estimated scf accuracy    <       0.21081394 Ry

     total magnetization       =    -0.02 Bohr mag/cell
     absolute magnetization    =     0.15 Bohr mag/cell

     iteration #  9     ecut=   120.00 Ry     beta= 0.70
     Davidson diagonalization with overlap
     ethr =  7.61E-05,  avg # of iterations = 10.0

     negative rho (up, down):  9.087E-01 9.087E-01

     total cpu time spent up to now is      222.8 secs

     total energy              =   -2943.03530351 Ry
     estimated scf accuracy    <       0.06215372 Ry

     total magnetization       =    -0.02 Bohr mag/cell
     absolute magnetization    =     0.12 Bohr mag/cell

     iteration # 10     ecut=   120.00 Ry     beta= 0.70
     Davidson diagonalization with overlap
     ethr =  2.24E-05,  avg # of iterations = 16.5

     negative rho (up, down):  9.085E-01 9.086E-01

     total cpu time spent up to now is      245.7 secs

     total energy              =   -2943.04188682 Ry
     estimated scf accuracy    <       0.02740012 Ry

     total magnetization       =    -0.01 Bohr mag/cell
     absolute magnetization    =     0.10 Bohr mag/cell

     iteration # 11     ecut=   120.00 Ry     beta= 0.70
     Davidson diagonalization with overlap
     ethr =  9.89E-06,  avg # of iterations =  3.0

     negative rho (up, down):  9.092E-01 9.093E-01

     total cpu time spent up to now is      263.2 secs

     total energy              =   -2943.04491851 Ry
     estimated scf accuracy    <       0.00937553 Ry

     total magnetization       =    -0.01 Bohr mag/cell
     absolute magnetization    =     0.08 Bohr mag/cell

     iteration # 12     ecut=   120.00 Ry     beta= 0.70
     Davidson diagonalization with overlap
     ethr =  3.38E-06,  avg # of iterations =  6.5

     negative rho (up, down):  9.093E-01 9.094E-01

     total cpu time spent up to now is      282.8 secs

     total energy              =   -2943.04764680 Ry
     estimated scf accuracy    <       0.00178563 Ry

     total magnetization       =    -0.00 Bohr mag/cell
     absolute magnetization    =     0.06 Bohr mag/cell

     iteration # 13     ecut=   120.00 Ry     beta= 0.70
     Davidson diagonalization with overlap
     ethr =  6.45E-07,  avg # of iterations =  5.0

     negative rho (up, down):  9.090E-01 9.090E-01

     Magnetic moment per site  (integrated on atomic sphere of radius R)
     atom   1 (R=0.112)  charge=  9.4616    0.0001
     atom   2 (R=0.112)  charge=  9.0591    0.0002
     atom   3 (R=0.112)  charge=  9.0583   -0.0001
     atom   4 (R=0.112)  charge=  9.0550   -0.0001
     atom   5 (R=0.112)  charge=  9.0545   -0.0003
     atom   6 (R=0.110)  charge= 10.3472   -0.0006
     atom   7 (R=0.110)  charge= 10.3481    0.0001
     atom   8 (R=0.088)  charge=  8.1256   -0.0002
     atom   9 (R=0.088)  charge=  8.1090   -0.0006
     atom  10 (R=0.088)  charge=  8.1059    0.0001
     atom  11 (R=0.088)  charge=  8.1031   -0.0001
     atom  12 (R=0.088)  charge=  8.1072    0.0006
     atom  13 (R=0.088)  charge=  8.1053   -0.0006
     atom  14 (R=0.088)  charge=  8.1065    0.0000
     atom  15 (R=0.088)  charge=  8.1035   -0.0004
     atom  16 (R=0.088)  charge=  8.1084    0.0004
     atom  17 (R=0.088)  charge=  8.1061   -0.0013
     atom  18 (R=0.111)  charge=  9.4528   -0.0002
     atom  19 (R=0.111)  charge=  9.0050    0.0036
     atom  20 (R=0.111)  charge=  8.9983   -0.0010
     atom  21 (R=0.111)  charge=  9.0030    0.0043
     atom  22 (R=0.111)  charge=  8.9956   -0.0013
     atom  23 (R=0.088)  charge=  0.9675    0.0000

     total cpu time spent up to now is      312.1 secs

     End of self-consistent calculation

 ------ SPIN UP ------------


          k = 0.0000 0.0000 0.0000 ( 61588 PWs)   bands (ev):

   -60.8075 -60.8018 -60.7626 -60.7567 -60.7307 -60.7190 -60.6868 -60.6752
   -60.5273 -60.3901 -54.4370 -54.3763 -54.3131 -54.2527 -52.7150 -46.2842
   -46.2765 -41.6929 -41.6641 -41.5843 -41.5713 -39.8135 -27.8096 -27.8015
   -27.7261 -27.7132 -27.6192 -27.6145 -27.4935 -27.4855 -27.3778 -27.3589
   -27.3062 -27.2939 -27.2852 -27.2611 -27.2496 -27.1967 -27.1864 -27.1561
   -27.1094 -27.0839 -27.0107 -26.9864 -26.9787 -26.9722 -26.9629 -26.9116
   -26.9095 -26.8867 -26.8784 -26.8598 -24.2160 -24.0044 -23.6973 -23.6153
   -23.3570 -23.2195 -23.1931 -23.0942 -22.9731 -22.8997 -22.8869 -22.6675
   -22.5227 -22.4749 -22.4255 -22.3761 -22.3158 -22.2614 -21.7822 -21.7160
   -21.6440 -20.2521 -19.9695 -19.9010 -19.8718 -19.6621 -19.6386 -19.6260
   -19.6107 -19.6031 -19.5609 -19.4324 -19.4005 -18.1601 -17.9598 -17.8394
     1.4718   2.9022   3.0980   3.1459   3.2754   3.4487   3.5151   3.6441
     3.7204   3.8864   3.8907   4.0964   4.2820   4.4838   4.6426   4.6766
     4.7503   4.9808   4.9991   5.0255   5.1028   5.2335   5.2798   5.2873
     5.4142   5.5337   5.5483   5.6930   5.7033   5.7308   5.7414   5.7633
     5.9028   6.0943   6.1778   6.2036   6.2392   6.3071   6.3364   6.3610
     6.5346   6.5823   6.6391   6.6622   6.7566   6.9071   6.9765   7.0087
     7.0722   7.1223   7.2434   7.2615   7.2959   7.3962   7.5312   7.5925
     7.6007   7.6461   7.8813   7.8856   8.0553   8.0822   8.0884   8.1891
     8.2600   8.3252   8.3375   8.3587   8.3803   8.5050   8.5985   8.6324
     8.7597   8.8775   8.8843   9.0369   9.0953   9.2111   9.2567

 ------ SPIN DOWN ----------


          k = 0.0000 0.0000 0.0000 ( 61588 PWs)   bands (ev):

   -60.8072 -60.8027 -60.7623 -60.7576 -60.7302 -60.7195 -60.6863 -60.6757
   -60.5278 -60.3910 -54.4372 -54.3763 -54.3132 -54.2527 -52.7150 -46.2849
   -46.2765 -41.6887 -41.6652 -41.5807 -41.5722 -39.8137 -27.8094 -27.8024
   -27.7258 -27.7142 -27.6194 -27.6154 -27.4936 -27.4856 -27.3780 -27.3591
   -27.3068 -27.2933 -27.2863 -27.2607 -27.2495 -27.1960 -27.1867 -27.1567
   -27.1103 -27.0851 -27.0119 -26.9862 -26.9797 -26.9727 -26.9630 -26.9116
   -26.9101 -26.8862 -26.8792 -26.8606 -24.2161 -24.0045 -23.6976 -23.6154
   -23.3571 -23.2197 -23.1935 -23.0943 -22.9734 -22.8999 -22.8870 -22.6675
   -22.5232 -22.4753 -22.4257 -22.3764 -22.3160 -22.2616 -21.7823 -21.7162
   -21.6440 -20.2475 -19.9715 -19.8958 -19.8683 -19.6582 -19.6389 -19.6239
   -19.6105 -19.6036 -19.5617 -19.4266 -19.4021 -18.1603 -17.9598 -17.8391
     1.4714   2.9019   3.0975   3.1454   3.2747   3.4481   3.5149   3.6439
     3.7199   3.8864   3.8904   4.0965   4.2816   4.4835   4.6428   4.6763
     4.7501   4.9804   4.9989   5.0254   5.1035   5.2339   5.2794   5.2870
     5.4139   5.5336   5.5483   5.6929   5.7041   5.7308   5.7407   5.7640
     5.9027   6.0938   6.1777   6.2036   6.2393   6.3066   6.3366   6.3615
     6.5346   6.5819   6.6394   6.6622   6.7568   6.9072   6.9772   7.0092
     7.0715   7.1222   7.2429   7.2632   7.2958   7.3955   7.5338   7.5927
     7.6007   7.6459   7.8810   7.8847   8.0556   8.0818   8.0884   8.1888
     8.2600   8.3249   8.3372   8.3594   8.3800   8.5048   8.5992   8.6331
     8.7595   8.8775   8.8839   9.0364   9.0962   9.2105   9.2475

     the Fermi energy is     7.2087 ev

!    total energy              =   -2943.04875002 Ry
     estimated scf accuracy    <       0.00064210 Ry
     smearing contrib. (-TS)   =      -0.09722108 Ry
     internal energy E=F+TS    =   -2942.95152895 Ry

     total magnetization       =     0.00 Bohr mag/cell
     absolute magnetization    =     0.05 Bohr mag/cell

     convergence has been achieved in  13 iterations

     negative rho (up, down):  9.090E-01 9.090E-01

     Forces acting on atoms (cartesian axes, Ry/au):

     atom    1 type  1   force =    -0.00816626   -0.02672990    0.01216509
     atom    2 type  1   force =    -0.11503319   -0.01788441   -0.00351499
     atom    3 type  1   force =    -0.11427876    0.01532233    0.00183130
     atom    4 type  1   force =     0.11661295   -0.01713421   -0.00479657
     atom    5 type  1   force =     0.11675186    0.01463619    0.00292145
     atom    6 type  2   force =    -0.00836016   -0.01479013    0.00941993
     atom    7 type  2   force =    -0.00848601    0.01349164   -0.00800288
     atom    8 type  3   force =    -0.12678638    0.00377623   -0.00445429
     atom    9 type  3   force =     0.18183487    0.00366134   -0.00505071
     atom   10 type  3   force =    -0.02322093   -0.03123728   -0.06023364
     atom   11 type  3   force =    -0.02080619   -0.03713743    0.05754461
     atom   12 type  3   force =    -0.01813108    0.03659638   -0.05487720
     atom   13 type  3   force =    -0.01927322    0.03066944    0.06180908
     atom   14 type  3   force =     0.02357421   -0.03152421   -0.05861227
     atom   15 type  3   force =     0.02051272   -0.03575611    0.05540581
     atom   16 type  3   force =     0.01805237    0.03580652   -0.05242601
     atom   17 type  3   force =     0.01917400    0.03057887    0.05992433
     atom   18 type  4   force =    -0.00919886    0.02457372   -0.01635777
     atom   19 type  4   force =    -0.12894691   -0.00461794   -0.11457711
     atom   20 type  4   force =    -0.13440566    0.00616084    0.11812284
     atom   21 type  4   force =     0.13152878   -0.00551572   -0.11644614
     atom   22 type  4   force =     0.13665868    0.00708325    0.11917022
     atom   23 type  5   force =    -0.02960684   -0.00002941    0.00103495
     The non-local contrib.  to forces
     atom    1 type  1   force =    -0.00848068   -0.02063968    0.03561545
     atom    2 type  1   force =    -0.24592764   -0.16467575    0.01715964
     atom    3 type  1   force =    -0.23894848    0.15966723   -0.02697415
     atom    4 type  1   force =     0.26106097   -0.15864172    0.01579953
     atom    5 type  1   force =     0.25522236    0.15367473   -0.02635735
     atom    6 type  2   force =    -0.00991407   -0.04778056   -0.06798560
     atom    7 type  2   force =    -0.01105153    0.05873091    0.06029450
     atom    8 type  3   force =    -0.28254931    0.00087731   -0.00576632
     atom    9 type  3   force =     0.02039849    0.00182050   -0.00716644
     atom   10 type  3   force =    -0.21252372    0.00513772   -0.20901291
     atom   11 type  3   force =    -0.21844414    0.00628588    0.19606741
     atom   12 type  3   force =    -0.20022223   -0.01844802   -0.18121327
     atom   13 type  3   force =    -0.20896935   -0.00458595    0.20880722
     atom   14 type  3   force =     0.21305773    0.00364314   -0.21031675
     atom   15 type  3   force =     0.21960854    0.00766012    0.19772353
     atom   16 type  3   force =     0.20080423   -0.01862725   -0.18319634
     atom   17 type  3   force =     0.20828000   -0.00370374    0.21056966
     atom   18 type  4   force =    -0.01051599    0.05038234   -0.06634594
     atom   19 type  4   force =     0.06411039    0.00979143    0.06727051
     atom   20 type  4   force =     0.05783926   -0.01272995   -0.06183775
     atom   21 type  4   force =    -0.06055474    0.00922249    0.07845547
     atom   22 type  4   force =    -0.05504594   -0.01206704   -0.07304284
     atom   23 type  5   force =    -0.04360959    0.00002327    0.00006279
     The ionic contribution  to forces
     atom    1 type  1   force =    -0.20723043   -4.68228043   14.09728394
     atom    2 type  1   force =   -39.63187116   -6.19103168    0.77963869
     atom    3 type  1   force =   -39.60453236    6.17774612   -0.71356529
     atom    4 type  1   force =    39.41483368   -6.37739708    0.77858452
     atom    5 type  1   force =    39.38669159    6.36441168   -0.71234216
     atom    6 type  2   force =    -0.22010595   -3.64776250  -14.00124731
     atom    7 type  2   force =    -0.22011622    3.68355651   14.03418086
     atom    8 type  3   force =   -51.99616743    0.07189689   -0.06498632
     atom    9 type  3   force =    50.33805845    0.07261935   -0.06581169
     atom   10 type  3   force =   -36.02815752   -2.12600092  -23.10769883
     atom   11 type  3   force =   -35.10231898   -0.87880982   22.11189968
     atom   12 type  3   force =   -35.21225149    0.82818804  -22.16102098
     atom   13 type  3   force =   -36.00226088    2.21254090   23.09053469
     atom   14 type  3   force =    35.92770831   -2.17963506  -23.17829580
     atom   15 type  3   force =    35.00276781   -0.93204678   22.18219868
     atom   16 type  3   force =    35.11292036    0.88109495  -22.23099710
     atom   17 type  3   force =    35.90177180    2.26617159   23.16112887
     atom   18 type  4   force =    -0.20527246    4.44960551  -13.95530340
     atom   19 type  4   force =   -35.85450335    0.95648655  -25.59506919
     atom   20 type  4   force =   -35.83739495   -0.95292704   25.57306801
     atom   21 type  4   force =    35.65497880    0.95524068  -25.80381347
     atom   22 type  4   force =    35.63899643   -0.95194789   25.78152383
     atom   23 type  5   force =     3.74345595    0.00028042    0.00010976
     The local contribution  to forces
     atom    1 type  1   force =     0.20791111    4.67610157  -14.12140886
     atom    2 type  1   force =    39.78483810    6.33442975   -0.80690527
     atom    3 type  1   force =    39.75100892   -6.31953117    0.73921247
     atom    4 type  1   force =   -39.58093144    6.51651623   -0.80734473
     atom    5 type  1   force =   -39.54557206   -6.50288612    0.73923088
     atom    6 type  2   force =     0.22520113    3.68724653   14.05468622
     atom    7 type  2   force =     0.22682848   -3.72568446  -14.10012788
     atom    8 type  3   force =    52.18726568   -0.06922188    0.05474667
     atom    9 type  3   force =   -50.18369493   -0.07000743    0.05569075
     atom   10 type  3   force =    36.24245756    2.08527150   23.26760150
     atom   11 type  3   force =    35.32678724    0.82642633  -22.26264346
     atom   12 type  3   force =    35.42109283   -0.76808871   22.29721193
     atom   13 type  3   force =    36.21745887   -2.17046899  -23.24982574
     atom   14 type  3   force =   -36.14013686    2.13861451   23.33844709
     atom   15 type  3   force =   -35.22780010    0.87590160  -22.33248970
     atom   16 type  3   force =   -35.31966292   -0.81886119   22.36799880
     atom   17 type  3   force =   -36.11395325   -2.22478091  -23.32167809
     atom   18 type  4   force =     0.20950807   -4.48102442   13.98139625
     atom   19 type  4   force =    35.67950607   -0.97182285   25.41759792
     atom   20 type  4   force =    35.65426936    0.97236284  -25.39437758
     atom   21 type  4   force =   -35.47711025   -0.97115742   25.61520227
     atom   22 type  4   force =   -35.45387019    0.97330011  -25.59256095
     atom   23 type  5   force =    -3.72983502   -0.00008845   -0.00063209
     The core correction contribution to forces
     atom    1 type  1   force =     0.00118995    0.00105784   -0.00054531
     atom    2 type  1   force =    -0.01255107   -0.00204955    0.00066626
     atom    3 type  1   force =    -0.01266755    0.00286447   -0.00133706
     atom    4 type  1   force =     0.01298099   -0.00289338    0.00079754
     atom    5 type  1   force =     0.01305856    0.00372751   -0.00157568
     atom    6 type  2   force =     0.00026680    0.00208330    0.00262234
     atom    7 type  2   force =     0.00031049   -0.00265582   -0.00214468
     atom    8 type  3   force =    -0.03361930    0.00035972   -0.00049989
     atom    9 type  3   force =     0.00745950    0.00022981   -0.00047568
     atom   10 type  3   force =    -0.02225621    0.00942044   -0.01650081
     atom   11 type  3   force =    -0.02390689    0.00958435    0.01708780
     atom   12 type  3   force =    -0.02226567   -0.00949327   -0.01605486
     atom   13 type  3   force =    -0.02219510   -0.00910714    0.01713476
     atom   14 type  3   force =     0.02298943    0.01063152   -0.01481440
     atom   15 type  3   force =     0.02423853    0.01149316    0.01523946
     atom   16 type  3   force =     0.02256203   -0.01130660   -0.01410756
     atom   17 type  3   force =     0.02263548   -0.01038475    0.01545282
     atom   18 type  4   force =     0.00043557   -0.00266273    0.00295990
     atom   19 type  4   force =    -0.00997276   -0.00000600   -0.00924650
     atom   20 type  4   force =    -0.00982656    0.00031231    0.00906768
     atom   21 type  4   force =     0.01011071    0.00003542   -0.00977691
     atom   22 type  4   force =     0.00997247    0.00027604    0.00958122
     atom   23 type  5   force =     0.00000000    0.00000000    0.00000000
     The Hubbard contrib.    to forces
     atom    1 type  1   force =     0.00000000    0.00000000    0.00000000
     atom    2 type  1   force =     0.00000000    0.00000000    0.00000000
     atom    3 type  1   force =     0.00000000    0.00000000    0.00000000
     atom    4 type  1   force =     0.00000000    0.00000000    0.00000000
     atom    5 type  1   force =     0.00000000    0.00000000    0.00000000
     atom    6 type  2   force =     0.00000000    0.00000000    0.00000000
     atom    7 type  2   force =     0.00000000    0.00000000    0.00000000
     atom    8 type  3   force =     0.00000000    0.00000000    0.00000000
     atom    9 type  3   force =     0.00000000    0.00000000    0.00000000
     atom   10 type  3   force =     0.00000000    0.00000000    0.00000000
     atom   11 type  3   force =     0.00000000    0.00000000    0.00000000
     atom   12 type  3   force =     0.00000000    0.00000000    0.00000000
     atom   13 type  3   force =     0.00000000    0.00000000    0.00000000
     atom   14 type  3   force =     0.00000000    0.00000000    0.00000000
     atom   15 type  3   force =     0.00000000    0.00000000    0.00000000
     atom   16 type  3   force =     0.00000000    0.00000000    0.00000000
     atom   17 type  3   force =     0.00000000    0.00000000    0.00000000
     atom   18 type  4   force =     0.00000000    0.00000000    0.00000000
     atom   19 type  4   force =     0.00000000    0.00000000    0.00000000
     atom   20 type  4   force =     0.00000000    0.00000000    0.00000000
     atom   21 type  4   force =     0.00000000    0.00000000    0.00000000
     atom   22 type  4   force =     0.00000000    0.00000000    0.00000000
     atom   23 type  5   force =     0.00000000    0.00000000    0.00000000
     The SCF correction term to forces
     atom    1 type  1   force =    -0.00130209   -0.00102252    0.00054712
     atom    2 type  1   force =    -0.00926730    0.00538949    0.00525294
     atom    3 type  1   force =    -0.00888516   -0.00547764    0.00382257
     atom    4 type  1   force =     0.00892288    0.00522841    0.00669381
     atom    5 type  1   force =     0.00760553   -0.00434493    0.00329301
     atom    6 type  2   force =    -0.00355394   -0.00863022    0.02067153
     atom    7 type  2   force =    -0.00420309   -0.00050882   -0.00087843
     atom    8 type  3   force =    -0.00146189   -0.00018913    0.01137881
     atom    9 type  3   force =    -0.00013251   -0.00105420    0.01203959
     atom   10 type  3   force =    -0.00248691   -0.00511933    0.00470466
     atom   11 type  3   force =    -0.00266930   -0.00067750   -0.00553958
     atom   12 type  3   force =    -0.00423041    0.00438501    0.00552722
     atom   13 type  3   force =    -0.00305264    0.00223730   -0.00551461
     atom   14 type  3   force =     0.00020973   -0.00483164    0.00569482
     atom   15 type  3   force =     0.00195207    0.00118247   -0.00793892
     atom   16 type  3   force =     0.00168279    0.00345329    0.00720343
     atom   17 type  3   force =     0.00069409    0.00322336   -0.00622169
     atom   18 type  4   force =    -0.00309992    0.00821970    0.02026266
     atom   19 type  4   force =    -0.00783313    0.00087962    0.00419739
     atom   20 type  4   force =     0.00096134   -0.00091065   -0.00847027
     atom   21 type  4   force =     0.00435839    0.00108979    0.00281374
     atom   22 type  4   force =    -0.00313996   -0.00253129   -0.00700380
     atom   23 type  5   force =     0.00063595   -0.00029797    0.00082173

     Total force =     0.521569     Total SCF correction =     0.050004


     Computing stress (Cartesian axis) and pressure


     negative rho (up, down):  9.090E-01 9.090E-01
          total   stress  (Ry/bohr**3)                   (kbar)     P=       84.87
   0.00069110  -0.00000018   0.00000026          101.66       -0.03        0.04
  -0.00000018   0.00065564  -0.00001375           -0.03       96.45       -2.02
   0.00000026  -0.00001375   0.00038415            0.04       -2.02       56.51


     Molecular Dynamics Calculation

     Starting temperature  =   300.00 K

     temperature is set once at start

     mass Hf               =   178.49
     mass Nb               =    92.91
     mass Ta               =   180.95
     mass Zr               =    91.22
     mass H                =     2.01
     Time step             =     4.20 a.u.,  0.2032 femto-seconds

     Entering Dynamics:    iteration =     1
                           time      =   0.0002 pico-seconds


ATOMIC_POSITIONS (angstrom)
Hf            2.6700886080        2.8271222623        6.6039645676
Hf            1.2530762652        1.2862836683        5.0584661253
Hf            1.2555725052        7.3898047344        5.0880678199
Hf            4.0871014646        1.2862836898        5.0584660885
Hf            4.0846052502        7.3898047147        5.0880678512
Nb            2.6700883815        2.7969297903        3.5155837359
Nb            2.6700883745        5.8763794199        6.6349975021
Ta            1.2094583532        4.3409279585        5.0711257062
Ta            4.1307208892        4.3409279552        5.0711256894
Ta            1.3073409122        1.3141217054        2.0587774055
Ta            1.3028766106        1.3083900850        8.0945808309
Ta            1.3040979942        7.3758271598        2.0462356268
Ta            1.3077991382        7.3650838163        8.0860039700
Ta            4.0328367823        1.3141216973        2.0587774514
Ta            4.0373010656        1.3083901241        8.0945807704
Ta            4.0360796880        7.3758271374        2.0462356961
Ta            4.0323785435        7.3650838138        8.0860039167
Zr            2.6700883259        5.8662872228        3.5273830122
Zr            1.2439162659        4.3220777053        1.9999935683
Zr            1.2404667532        4.3541236303        8.1497621801
Zr            4.0962615636        4.3220776549        1.9999934633
Zr            4.0997110578        4.3541236821        8.1497622389
H             5.9829746222        4.3399998754        5.0721824263


     kinetic energy (Ekin) =           4.04908905 Ry
     temperature           =       19372.74539692 K 
     Ekin + Etot (const)   =       -2938.99966097 Ry
     Ions kinetic stress =           71.51 (kbar)
                                    214.53           0.00           0.00
                                      0.00           0.00           0.00
                                      0.00           0.00           0.00



     Linear momentum :   -0.0000000000    0.0000000000    0.0000000000

     File outdir/pwscf.msd.dat deleted, as requested

     Writing config-only to output data dir outdir/pwscf.save/
     NEW-OLD atomic charge density approx. for the potential

     Check: negative core charge=   -0.000002

     negative rho (up, down):  9.090E-01 9.090E-01
     Generating pointlists ...
     new r_m :   0.0818 (alat units)  1.4439 (a.u.) for type    3
     new r_m :   0.0818 (alat units)  1.4439 (a.u.) for type    5

     total cpu time spent up to now is      374.8 secs

     Self-consistent Calculation

     iteration #  1     ecut=   120.00 Ry     beta= 0.70
     Davidson diagonalization with overlap
     ethr =  1.00E-06,  avg # of iterations = 15.0

     negative rho (up, down):  9.090E-01 9.090E-01

     total cpu time spent up to now is      409.0 secs

     total energy              =   -2943.04648536 Ry
     estimated scf accuracy    <       0.06118608 Ry

     total magnetization       =     0.00 Bohr mag/cell
     absolute magnetization    =     0.04 Bohr mag/cell

     iteration #  2     ecut=   120.00 Ry     beta= 0.70
     Davidson diagonalization with overlap
     ethr =  2.21E-05,  avg # of iterations =  2.0

     negative rho (up, down):  9.090E-01 9.090E-01

     total cpu time spent up to now is      426.3 secs

     total energy              =   -2943.05091497 Ry
     estimated scf accuracy    <       0.02644876 Ry

     total magnetization       =     0.00 Bohr mag/cell
     absolute magnetization    =     0.04 Bohr mag/cell

     iteration #  3     ecut=   120.00 Ry     beta= 0.70
     Davidson diagonalization with overlap
     ethr =  9.55E-06,  avg # of iterations =  1.0

     negative rho (up, down):  9.090E-01 9.090E-01

     total cpu time spent up to now is      441.7 secs

     total energy              =   -2943.05242684 Ry
     estimated scf accuracy    <       0.00159142 Ry

     total magnetization       =     0.00 Bohr mag/cell
     absolute magnetization    =     0.03 Bohr mag/cell

     iteration #  4     ecut=   120.00 Ry     beta= 0.70
     Davidson diagonalization with overlap
     ethr =  5.75E-07,  avg # of iterations =  2.0

     negative rho (up, down):  9.090E-01 9.090E-01

     Magnetic moment per site  (integrated on atomic sphere of radius R)
     atom   1 (R=0.112)  charge=  9.4638    0.0001
     atom   2 (R=0.112)  charge=  9.0579    0.0000
     atom   3 (R=0.112)  charge=  9.0581   -0.0001
     atom   4 (R=0.112)  charge=  9.0543   -0.0000
     atom   5 (R=0.112)  charge=  9.0544   -0.0001
     atom   6 (R=0.110)  charge= 10.3491   -0.0002
     atom   7 (R=0.110)  charge= 10.3489    0.0002
     atom   8 (R=0.082)  charge=  7.4390   -0.0001
     atom   9 (R=0.082)  charge=  7.4313   -0.0000
     atom  10 (R=0.082)  charge=  7.4195    0.0001
     atom  11 (R=0.082)  charge=  7.4185   -0.0000
     atom  12 (R=0.082)  charge=  7.4197    0.0002
     atom  13 (R=0.082)  charge=  7.4196   -0.0003
     atom  14 (R=0.082)  charge=  7.4200    0.0001
     atom  15 (R=0.082)  charge=  7.4200   -0.0002
     atom  16 (R=0.082)  charge=  7.4207    0.0002
     atom  17 (R=0.082)  charge=  7.4200   -0.0006
     atom  18 (R=0.111)  charge=  9.4551   -0.0001
     atom  19 (R=0.111)  charge=  8.9954    0.0024
     atom  20 (R=0.111)  charge=  8.9989   -0.0009
     atom  21 (R=0.111)  charge=  8.9928    0.0024
     atom  22 (R=0.111)  charge=  8.9959   -0.0010
     atom  23 (R=0.082)  charge=  0.9428    0.0000

     total cpu time spent up to now is      464.7 secs

     End of self-consistent calculation

 ------ SPIN UP ------------


          k = 0.0000 0.0000 0.0000 ( 61588 PWs)   bands (ev):

   -60.7858 -60.7811 -60.7408 -60.7360 -60.7070 -60.7014 -60.6632 -60.6576
   -60.5069 -60.2861 -54.4114 -54.3507 -54.2873 -54.2269 -52.6970 -46.2714
   -46.2518 -41.6561 -41.6450 -41.5527 -41.5476 -39.8091 -27.7879 -27.7822
   -27.7040 -27.6943 -27.5976 -27.5938 -27.4738 -27.4641 -27.3538 -27.3388
   -27.2774 -27.2724 -27.2652 -27.2397 -27.2299 -27.1744 -27.1678 -27.1336
   -27.0912 -27.0102 -26.9659 -26.9625 -26.9523 -26.9409 -26.9214 -26.8912
   -26.8873 -26.8638 -26.8605 -26.7877 -24.1922 -23.9794 -23.6760 -23.5918
   -23.3338 -23.1961 -23.1706 -23.0708 -22.9500 -22.8768 -22.8628 -22.6434
   -22.5052 -22.4554 -22.4046 -22.3551 -22.2952 -22.2400 -21.7634 -21.6965
   -21.6276 -20.2173 -19.9509 -19.8649 -19.8380 -19.6295 -19.6169 -19.5988
   -19.5854 -19.5838 -19.5422 -19.3925 -19.3814 -18.1550 -17.9509 -17.8292
     1.4777   2.9214   3.0536   3.1404   3.2841   3.4667   3.5308   3.6547
     3.7361   3.9080   3.9108   4.1122   4.2983   4.5045   4.6540   4.6934
     4.7724   4.9286   4.9996   5.0433   5.1156   5.2528   5.2975   5.3026
     5.4196   5.5523   5.5693   5.7160   5.7232   5.7507   5.7655   5.7800
     5.9211   6.1140   6.1939   6.2233   6.2580   6.3347   6.3568   6.3798
     6.5552   6.6016   6.6564   6.6788   6.7728   6.9253   6.9971   7.0259
     7.0854   7.1393   7.2618   7.2738   7.3135   7.4125   7.5531   7.6084
     7.6146   7.6652   7.8982   7.9030   8.0782   8.0901   8.1074   8.2097
     8.2794   8.3444   8.3572   8.3798   8.4004   8.5198   8.6214   8.6534
     8.7772   8.8902   8.9091   9.0530   9.1104   9.2366   9.2777

 ------ SPIN DOWN ----------


          k = 0.0000 0.0000 0.0000 ( 61588 PWs)   bands (ev):

   -60.7856 -60.7817 -60.7407 -60.7365 -60.7068 -60.7017 -60.6630 -60.6580
   -60.5069 -60.2861 -54.4115 -54.3507 -54.2874 -54.2269 -52.6969 -46.2716
   -46.2516 -41.6538 -41.6458 -41.5535 -41.5453 -39.8091 -27.7879 -27.7827
   -27.7039 -27.6949 -27.5978 -27.5942 -27.4742 -27.4639 -27.3539 -27.3389
   -27.2776 -27.2723 -27.2658 -27.2398 -27.2299 -27.1743 -27.1679 -27.1336
   -27.0913 -27.0103 -26.9656 -26.9631 -26.9527 -26.9409 -26.9215 -26.8916
   -26.8872 -26.8635 -26.8609 -26.7878 -24.1923 -23.9794 -23.6760 -23.5919
   -23.3339 -23.1962 -23.1707 -23.0708 -22.9501 -22.8769 -22.8628 -22.6435
   -22.5053 -22.4554 -22.4046 -22.3551 -22.2952 -22.2400 -21.7634 -21.6964
   -21.6275 -20.2146 -19.9525 -19.8620 -19.8355 -19.6283 -19.6169 -19.5988
   -19.5844 -19.5841 -19.5428 -19.3890 -19.3826 -18.1550 -17.9508 -17.8290
     1.4776   2.9214   3.0534   3.1404   3.2840   3.4664   3.5308   3.6547
     3.7360   3.9081   3.9107   4.1124   4.2981   4.5044   4.6541   4.6933
     4.7724   4.9287   4.9995   5.0434   5.1160   5.2531   5.2973   5.3025
     5.4194   5.5524   5.5694   5.7160   5.7235   5.7509   5.7656   5.7804
     5.9211   6.1138   6.1939   6.2233   6.2580   6.3346   6.3569   6.3801
     6.5552   6.6016   6.6564   6.6788   6.7730   6.9255   6.9976   7.0261
     7.0850   7.1393   7.2616   7.2746   7.3135   7.4123   7.5549   7.6088
     7.6145   7.6651   7.8982   7.9027   8.0783   8.0899   8.1075   8.2096
     8.2794   8.3442   8.3572   8.3801   8.4003   8.5198   8.6218   8.6537
     8.7773   8.8900   8.9093   9.0531   9.1108   9.2366   9.2876

     the Fermi energy is     7.2253 ev

!    total energy              =   -2943.05229348 Ry
     estimated scf accuracy    <       0.00036101 Ry
     smearing contrib. (-TS)   =      -0.09726105 Ry
     internal energy E=F+TS    =   -2942.95503243 Ry

     total magnetization       =     0.00 Bohr mag/cell
     absolute magnetization    =     0.03 Bohr mag/cell

     convergence has been achieved in   4 iterations

     negative rho (up, down):  9.090E-01 9.090E-01

     Forces acting on atoms (cartesian axes, Ry/au):

     atom    1 type  1   force =    -0.00964437   -0.02835735    0.01407540
     atom    2 type  1   force =    -0.12091503   -0.01595183    0.00184265
     atom    3 type  1   force =    -0.12021864    0.01373448    0.00624010
     atom    4 type  1   force =     0.12223119   -0.01592262    0.00118973
     atom    5 type  1   force =     0.12165317    0.01435737    0.00714882
     atom    6 type  2   force =    -0.00861308   -0.01643307    0.00737998
     atom    7 type  2   force =    -0.00888796    0.01394767   -0.00870992
     atom    8 type  3   force =    -0.12961658    0.00341203   -0.00127368
     atom    9 type  3   force =     0.15189230    0.00308979   -0.00216822
     atom   10 type  3   force =    -0.02424678   -0.03241517   -0.06061483
     atom   11 type  3   force =    -0.02173719   -0.03707719    0.05364796
     atom   12 type  3   force =    -0.01995395    0.03767205   -0.05496914
     atom   13 type  3   force =    -0.02072065    0.03121061    0.05760484
     atom   14 type  3   force =     0.02472136   -0.03268335   -0.05889104
     atom   15 type  3   force =     0.02177481   -0.03534099    0.05075253
     atom   16 type  3   force =     0.02000801    0.03673667   -0.05225070
     atom   17 type  3   force =     0.02087929    0.03170697    0.05597214
     atom   18 type  4   force =    -0.01032222    0.02782556   -0.01345483
     atom   19 type  4   force =    -0.13169352   -0.00468485   -0.11360001
     atom   20 type  4   force =    -0.13438439    0.00538758    0.11222468
     atom   21 type  4   force =     0.13317203   -0.00574791   -0.11621669
     atom   22 type  4   force =     0.13564692    0.00577760    0.11443848
     atom   23 type  5   force =     0.00897528   -0.00024406   -0.00036824
     The non-local contrib.  to forces
     atom    1 type  1   force =    -0.00904852   -0.02193506    0.03630498
     atom    2 type  1   force =    -0.24811597   -0.16260986    0.02040586
     atom    3 type  1   force =    -0.24163464    0.15800524   -0.02422104
     atom    4 type  1   force =     0.26295269   -0.15687915    0.01948459
     atom    5 type  1   force =     0.25696414    0.15267938   -0.02374404
     atom    6 type  2   force =    -0.01040021   -0.04799470   -0.06768408
     atom    7 type  2   force =    -0.01170080    0.05860398    0.06122782
     atom    8 type  3   force =    -0.27620733    0.00059116   -0.00194655
     atom    9 type  3   force =    -0.01840028    0.00146768   -0.00350279
     atom   10 type  3   force =    -0.21110639    0.00420521   -0.20762351
     atom   11 type  3   force =    -0.21654134    0.00572108    0.19355791
     atom   12 type  3   force =    -0.19987654   -0.01800926   -0.18020756
     atom   13 type  3   force =    -0.20701025   -0.00395204    0.20631341
     atom   14 type  3   force =     0.21100252    0.00279875   -0.20879377
     atom   15 type  3   force =     0.21693184    0.00741712    0.19444483
     atom   16 type  3   force =     0.19978790   -0.01842120   -0.18174071
     atom   17 type  3   force =     0.20579290   -0.00279920    0.20805281
     atom   18 type  4   force =    -0.01190284    0.05226545   -0.06227956
     atom   19 type  4   force =     0.06261892    0.00963937    0.07036978
     atom   20 type  4   force =     0.05773455   -0.01318849   -0.06576381
     atom   21 type  4   force =    -0.06029427    0.00903877    0.08016187
     atom   22 type  4   force =    -0.05581307   -0.01296287   -0.07521460
     atom   23 type  5   force =    -0.05604412   -0.00001766    0.00004873
     The ionic contribution  to forces
     atom    1 type  1   force =    -0.23393860   -4.69372930   14.10944962
     atom    2 type  1   force =   -39.64899028   -6.19005756    0.77964775
     atom    3 type  1   force =   -39.62167916    6.17678952   -0.71356699
     atom    4 type  1   force =    39.41265045   -6.40088115    0.77846041
     atom    5 type  1   force =    39.38443531    6.38797728   -0.71219253
     atom    6 type  2   force =    -0.24830164   -3.66003513  -14.01424985
     atom    7 type  2   force =    -0.24831587    3.69577645   14.04723776
     atom    8 type  3   force =   -52.04168185    0.07189349   -0.06498244
     atom    9 type  3   force =    50.02827222    0.07283788   -0.06606258
     atom   10 type  3   force =   -36.03768939   -2.12573390  -23.10732340
     atom   11 type  3   force =   -35.11180959   -0.87853461   22.11150924
     atom   12 type  3   force =   -35.22172827    0.82792580  -22.16064471
     atom   13 type  3   force =   -36.01179244    2.21227826   23.09015932
     atom   14 type  3   force =    35.92850717   -2.18519044  -23.18533258
     atom   15 type  3   force =    35.00361325   -0.93754465   22.18918101
     atom   16 type  3   force =    35.11376877    0.88656432  -22.23795330
     atom   17 type  3   force =    35.90256555    2.27173172   23.16816645
     atom   18 type  4   force =    -0.23165257    4.46097540  -13.96738694
     atom   19 type  4   force =   -35.86996083    0.95648402  -25.59369633
     atom   20 type  4   force =   -35.85280615   -0.95292960   25.57166382
     atom   21 type  4   force =    35.65275399    0.95508171  -25.82887614
     atom   22 type  4   force =    35.63686274   -0.95182512   25.80647959
     atom   23 type  5   force =     4.31691721    0.00014560    0.00031282
     The local contribution  to forces
     atom    1 type  1   force =     0.22858629    4.68473012  -14.12183354
     atom    2 type  1   force =    39.77709616    6.33983119   -0.78559456
     atom    3 type  1   force =    39.74431852   -6.32372068    0.75807893
     atom    4 type  1   force =   -39.55848072    6.54442497   -0.78323566
     atom    5 type  1   force =   -39.52587108   -6.52756002    0.75693560
     atom    6 type  2   force =     0.24461382    3.68173246   14.10324227
     atom    7 type  2   force =     0.24443644   -3.73945312  -14.10686869
     atom    8 type  3   force =    52.21264810   -0.07054950    0.08687264
     atom    9 type  3   force =   -49.84478163   -0.07344548    0.08816014
     atom   10 type  3   force =    36.23621330    2.07407410   23.27319537
     atom   11 type  3   force =    35.32067624    0.82512408  -22.27669647
     atom   12 type  3   force =    35.41225332   -0.75491923   22.30502898
     atom   13 type  3   force =    36.20813706   -2.16360644  -23.26459731
     atom   14 type  3   force =   -36.13169123    2.13381941   23.35258326
     atom   15 type  3   force =   -35.21620256    0.88299393  -22.35724080
     atom   16 type  3   force =   -35.30919765   -0.81241859   22.38521984
     atom   17 type  3   force =   -36.10323134   -2.22048030  -23.34408973
     atom   18 type  4   force =     0.22784190   -4.47728484   14.02939841
     atom   19 type  4   force =    35.67368835   -0.97238477   25.42428910
     atom   20 type  4   force =    35.66287763    0.96896402  -25.41556487
     atom   21 type  4   force =   -35.46235763   -0.97164962   25.64581207
     atom   22 type  4   force =   -35.45248020    0.96615059  -25.63712834
     atom   23 type  5   force =    -4.25407988   -0.00050954    0.00160139
     The core correction contribution to forces
     atom    1 type  1   force =     0.00128334    0.00094978   -0.00080466
     atom    2 type  1   force =    -0.01246290   -0.00200986    0.00069491
     atom    3 type  1   force =    -0.01266121    0.00288112   -0.00135113
     atom    4 type  1   force =     0.01306164   -0.00273061    0.00084132
     atom    5 type  1   force =     0.01315845    0.00362388   -0.00159793
     atom    6 type  2   force =     0.00028809    0.00205655    0.00261793
     atom    7 type  2   force =     0.00034270   -0.00262695   -0.00218806
     atom    8 type  3   force =    -0.03300411    0.00035817   -0.00053460
     atom    9 type  3   force =     0.00434113    0.00021390   -0.00053071
     atom   10 type  3   force =    -0.02206462    0.00948840   -0.01645989
     atom   11 type  3   force =    -0.02369063    0.00957635    0.01700322
     atom   12 type  3   force =    -0.02214885   -0.00959303   -0.01604583
     atom   13 type  3   force =    -0.02192503   -0.00913837    0.01707183
     atom   14 type  3   force =     0.02284995    0.01065362   -0.01483365
     atom   15 type  3   force =     0.02395956    0.01147805    0.01515749
     atom   16 type  3   force =     0.02245469   -0.01141329   -0.01412060
     atom   17 type  3   force =     0.02243733   -0.01044019    0.01541588
     atom   18 type  4   force =     0.00046394   -0.00265285    0.00298424
     atom   19 type  4   force =    -0.00995251    0.00001290   -0.00933619
     atom   20 type  4   force =    -0.00983067    0.00031826    0.00913472
     atom   21 type  4   force =     0.01009084    0.00005023   -0.00981443
     atom   22 type  4   force =     0.00998393    0.00028836    0.00958085
     atom   23 type  5   force =     0.00000000    0.00000000    0.00000000
     The Hubbard contrib.    to forces
     atom    1 type  1   force =     0.00000000    0.00000000    0.00000000
     atom    2 type  1   force =     0.00000000    0.00000000    0.00000000
     atom    3 type  1   force =     0.00000000    0.00000000    0.00000000
     atom    4 type  1   force =     0.00000000    0.00000000    0.00000000
     atom    5 type  1   force =     0.00000000    0.00000000    0.00000000
     atom    6 type  2   force =     0.00000000    0.00000000    0.00000000
     atom    7 type  2   force =     0.00000000    0.00000000    0.00000000
     atom    8 type  3   force =     0.00000000    0.00000000    0.00000000
     atom    9 type  3   force =     0.00000000    0.00000000    0.00000000
     atom   10 type  3   force =     0.00000000    0.00000000    0.00000000
     atom   11 type  3   force =     0.00000000    0.00000000    0.00000000
     atom   12 type  3   force =     0.00000000    0.00000000    0.00000000
     atom   13 type  3   force =     0.00000000    0.00000000    0.00000000
     atom   14 type  3   force =     0.00000000    0.00000000    0.00000000
     atom   15 type  3   force =     0.00000000    0.00000000    0.00000000
     atom   16 type  3   force =     0.00000000    0.00000000    0.00000000
     atom   17 type  3   force =     0.00000000    0.00000000    0.00000000
     atom   18 type  4   force =     0.00000000    0.00000000    0.00000000
     atom   19 type  4   force =     0.00000000    0.00000000    0.00000000
     atom   20 type  4   force =     0.00000000    0.00000000    0.00000000
     atom   21 type  4   force =     0.00000000    0.00000000    0.00000000
     atom   22 type  4   force =     0.00000000    0.00000000    0.00000000
     atom   23 type  5   force =     0.00000000    0.00000000    0.00000000
     The SCF correction term to forces
     atom    1 type  1   force =     0.00324046    0.00167151   -0.00819426
     atom    2 type  1   force =     0.01132531   -0.00106134   -0.01246457
     atom    3 type  1   force =     0.01120520   -0.00017631   -0.01185292
     atom    4 type  1   force =    -0.00818552    0.00018773   -0.01351418
     atom    5 type  1   force =    -0.00726630   -0.00231874   -0.01140553
     atom    6 type  2   force =     0.00495420    0.00785215   -0.01569954
     atom    7 type  2   force =     0.00611692    0.00169172   -0.00727201
     atom    8 type  3   force =     0.00839596    0.00116312   -0.01983598
     atom    9 type  3   force =    -0.01777179    0.00206021   -0.01938553
     atom   10 type  3   force =     0.01016767    0.00559542   -0.00155666
     atom   11 type  3   force =     0.00939549    0.00108031    0.00912080
     atom   12 type  3   force =     0.01131374   -0.00768782   -0.00225328
     atom   13 type  3   force =     0.01163736   -0.00432640    0.00950434
     atom   14 type  3   force =    -0.00617970    0.00527972   -0.00166755
     atom   15 type  3   force =    -0.00675994    0.00035897    0.01005674
     atom   16 type  3   force =    -0.00703835   -0.00753018   -0.00280919
     atom   17 type  3   force =    -0.00691780   -0.00626067    0.00927348
     atom   18 type  4   force =     0.00469469   -0.00543320   -0.01532424
     atom   19 type  4   force =     0.01167990    0.00160803   -0.00437962
     atom   20 type  4   force =     0.00740760    0.00226779    0.01360157
     atom   21 type  4   force =    -0.00725356    0.00177540   -0.00265332
     atom   22 type  4   force =    -0.00313914    0.00417106    0.01156772
     atom   23 type  5   force =     0.00194942    0.00018194   -0.00148443

     Total force =     0.514346     Total SCF correction =     0.069463
     SCF correction compared to forces is large: reduce conv_thr to get better values


     Computing stress (Cartesian axis) and pressure


     negative rho (up, down):  9.090E-01 9.090E-01
          total   stress  (Ry/bohr**3)                   (kbar)     P=       84.48
   0.00069296   0.00000021  -0.00000029          101.94        0.03       -0.04
   0.00000021   0.00065275  -0.00001343            0.03       96.02       -1.98
  -0.00000029  -0.00001343   0.00037713           -0.04       -1.98       55.48


     Entering Dynamics:    iteration =     2
                           time      =   0.0004 pico-seconds


ATOMIC_POSITIONS (angstrom)
Hf            2.6701767056        2.8271198683        6.6039657243
Hf            1.2531549122        1.2862822399        5.0584661301
Hf            1.2556512138        7.3898059621        5.0880682305
Hf            4.0872007090        1.2862822846        5.0584660191
Hf            4.0847044654        7.3898059584        5.0880683452
Nb            2.6701758564        2.7969271636        3.5155850687
Nb            2.6701758123        5.8763817011        6.6349961008
Ta            1.2095363141        4.3409282585        5.0711255081
Ta            4.1308235175        4.3409282337        5.0711254237
Ta            1.3074277679        1.3141189867        2.0587722701
Ta            1.3029636768        1.3083869355        8.0945854959
Ta            1.3041852370        7.3758303277        2.0462309625
Ta            1.3078863053        7.3650864508        8.0860089796
Ta            4.0329277339        1.3141189553        2.0587724594
Ta            4.0373917638        1.3083871119        8.0945852110
Ta            4.0361702166        7.3758302300        2.0462312551
Ta            4.0324691531        7.3650864738        8.0860087805
Zr            2.6701755359        5.8662917262        3.5273805834
Zr            1.2439831276        4.3220769201        1.9999743827
Zr            1.2405330064        4.3541245810        8.1497814102
Zr            4.0963727833        4.3220766999        1.9999738791
Zr            4.0998228433        4.3541247284        8.1497817764
H             5.8353680277        4.3399985595        5.0721831852


     kinetic energy (Ekin) =           4.05198916 Ry
     temperature           =       19386.62086384 K 
     Ekin + Etot (const)   =       -2939.00030432 Ry
     Ions kinetic stress =           71.56 (kbar)
                                    214.69           0.00          -0.00
                                      0.00           0.00           0.00
                                     -0.00           0.00           0.00



     Linear momentum :   -0.0000000000   -0.0000000000    0.0000000000

     Writing config-only to output data dir outdir/pwscf.save/
     NEW-OLD atomic charge density approx. for the potential

     Check: negative core charge=   -0.000002

     negative rho (up, down):  9.090E-01 9.090E-01
     Generating pointlists ...
     new r_m :   0.0753 (alat units)  1.3287 (a.u.) for type    3
     new r_m :   0.0753 (alat units)  1.3287 (a.u.) for type    5

     total cpu time spent up to now is      527.3 secs

     Self-consistent Calculation

     iteration #  1     ecut=   120.00 Ry     beta= 0.70
     Davidson diagonalization with overlap
     c_bands:  1 eigenvalues not converged
     ethr =  1.00E-06,  avg # of iterations = 14.0

     negative rho (up, down):  9.090E-01 9.090E-01

     total cpu time spent up to now is      564.9 secs

     total energy              =   -2943.03299207 Ry
     estimated scf accuracy    <       0.08684483 Ry

     total magnetization       =     0.00 Bohr mag/cell
     absolute magnetization    =     0.03 Bohr mag/cell

     iteration #  2     ecut=   120.00 Ry     beta= 0.70
     Davidson diagonalization with overlap
     ethr =  3.14E-05,  avg # of iterations =  2.0

     negative rho (up, down):  9.091E-01 9.091E-01

     total cpu time spent up to now is      582.0 secs

     total energy              =   -2943.03870052 Ry
     estimated scf accuracy    <       0.04159155 Ry

     total magnetization       =     0.00 Bohr mag/cell
     absolute magnetization    =     0.03 Bohr mag/cell

     iteration #  3     ecut=   120.00 Ry     beta= 0.70
     Davidson diagonalization with overlap
     ethr =  1.50E-05,  avg # of iterations =  1.0

     negative rho (up, down):  9.090E-01 9.090E-01

     total cpu time spent up to now is      597.6 secs

     total energy              =   -2943.04105655 Ry
     estimated scf accuracy    <       0.00210731 Ry

     total magnetization       =     0.00 Bohr mag/cell
     absolute magnetization    =     0.02 Bohr mag/cell

     iteration #  4     ecut=   120.00 Ry     beta= 0.70
     Davidson diagonalization with overlap
     ethr =  7.61E-07,  avg # of iterations =  7.0

     negative rho (up, down):  9.089E-01 9.089E-01

     Magnetic moment per site  (integrated on atomic sphere of radius R)
     atom   1 (R=0.112)  charge=  9.4636    0.0001
     atom   2 (R=0.112)  charge=  9.0592   -0.0000
     atom   3 (R=0.112)  charge=  9.0591   -0.0001
     atom   4 (R=0.112)  charge=  9.0556    0.0000
     atom   5 (R=0.112)  charge=  9.0555   -0.0000
     atom   6 (R=0.110)  charge= 10.3488   -0.0002
     atom   7 (R=0.110)  charge= 10.3493    0.0002
     atom   8 (R=0.075)  charge=  6.6162   -0.0000
     atom   9 (R=0.075)  charge=  6.6246   -0.0000
     atom  10 (R=0.075)  charge=  6.6008    0.0001
     atom  11 (R=0.075)  charge=  6.5985   -0.0000
     atom  12 (R=0.075)  charge=  6.6001    0.0001
     atom  13 (R=0.075)  charge=  6.6002   -0.0001
     atom  14 (R=0.075)  charge=  6.6002    0.0001
     atom  15 (R=0.075)  charge=  6.5983   -0.0001
     atom  16 (R=0.075)  charge=  6.6011    0.0001
     atom  17 (R=0.075)  charge=  6.5996   -0.0003
     atom  18 (R=0.111)  charge=  9.4558   -0.0001
     atom  19 (R=0.111)  charge=  9.0052    0.0018
     atom  20 (R=0.111)  charge=  8.9962   -0.0007
     atom  21 (R=0.111)  charge=  9.0029    0.0015
     atom  22 (R=0.111)  charge=  8.9936   -0.0008
     atom  23 (R=0.075)  charge=  0.9164   -0.0000

     total cpu time spent up to now is      615.3 secs

     End of self-consistent calculation

 ------ SPIN UP ------------


          k = 0.0000 0.0000 0.0000 ( 61588 PWs)   bands (ev):

   -60.7928 -60.7881 -60.7478 -60.7429 -60.7145 -60.7055 -60.6708 -60.6619
   -60.4949 -60.2040 -54.4261 -54.3694 -54.3021 -54.2457 -52.7153 -46.2648
   -46.2624 -41.6748 -41.6433 -41.5677 -41.5518 -39.8076 -27.7961 -27.7887
   -27.7127 -27.7005 -27.6043 -27.6008 -27.4786 -27.4713 -27.3560 -27.3450
   -27.2802 -27.2730 -27.2637 -27.2439 -27.2350 -27.1801 -27.1717 -27.1272
   -27.0823 -26.9759 -26.9717 -26.9680 -26.9586 -26.9281 -26.8978 -26.8944
   -26.8731 -26.8659 -26.8588 -26.7512 -24.2056 -23.9943 -23.6874 -23.6064
   -23.3481 -23.2088 -23.1840 -23.0845 -22.9630 -22.8916 -22.8765 -22.6590
   -22.5073 -22.4597 -22.4130 -22.3620 -22.3027 -22.2471 -21.7783 -21.7116
   -21.6436 -20.2346 -19.9491 -19.8829 -19.8573 -19.6446 -19.6189 -19.6116
   -19.5931 -19.5853 -19.5444 -19.4124 -19.3788 -18.1552 -17.9526 -17.8323
     1.4533   2.8995   2.9339   3.1283   3.2733   3.4599   3.5194   3.6379
     3.7249   3.9027   3.9040   4.1046   4.2922   4.4968   4.6295   4.6853
     4.7625   4.8526   4.9930   5.0342   5.1040   5.2427   5.2898   5.2925
     5.4059   5.5453   5.5626   5.7105   5.7147   5.7425   5.7616   5.7726
     5.9103   6.1088   6.1895   6.2174   6.2498   6.3345   6.3483   6.3758
     6.5587   6.5973   6.6523   6.6724   6.7676   6.9181   6.9877   7.0147
     7.0802   7.1329   7.2539   7.2569   7.3089   7.4040   7.5437   7.5978
     7.6068   7.6574   7.8913   7.8977   8.0672   8.0869   8.0994   8.2032
     8.2731   8.3373   8.3508   8.3705   8.3980   8.5135   8.6187   8.6469
     8.7697   8.8857   8.9062   9.0454   9.0933   9.2390   9.2601

 ------ SPIN DOWN ----------


          k = 0.0000 0.0000 0.0000 ( 61588 PWs)   bands (ev):

   -60.7927 -60.7884 -60.7477 -60.7432 -60.7143 -60.7057 -60.6706 -60.6620
   -60.4949 -60.2039 -54.4261 -54.3694 -54.3022 -54.2458 -52.7152 -46.2649
   -46.2623 -41.6733 -41.6440 -41.5662 -41.5525 -39.8076 -27.7959 -27.7891
   -27.7124 -27.7009 -27.6043 -27.6010 -27.4787 -27.4712 -27.3560 -27.3451
   -27.2800 -27.2733 -27.2638 -27.2438 -27.2350 -27.1799 -27.1718 -27.1272
   -27.0824 -26.9758 -26.9715 -26.9684 -26.9586 -26.9281 -26.8978 -26.8945
   -26.8728 -26.8661 -26.8588 -26.7512 -24.2057 -23.9944 -23.6875 -23.6065
   -23.3481 -23.2088 -23.1841 -23.0845 -22.9631 -22.8917 -22.8765 -22.6591
   -22.5073 -22.4597 -22.4130 -22.3620 -22.3027 -22.2471 -21.7783 -21.7116
   -21.6436 -20.2329 -19.9503 -19.8810 -19.8557 -19.6435 -19.6193 -19.6105
   -19.5935 -19.5858 -19.5449 -19.4101 -19.3798 -18.1553 -17.9526 -17.8322
     1.4533   2.8997   2.9338   3.1283   3.2733   3.4597   3.5194   3.6379
     3.7249   3.9025   3.9041   4.1047   4.2922   4.4968   4.6296   4.6853
     4.7625   4.8527   4.9930   5.0343   5.1043   5.2429   5.2897   5.2925
     5.4059   5.5454   5.5627   5.7105   5.7150   5.7425   5.7618   5.7727
     5.9103   6.1087   6.1895   6.2175   6.2498   6.3345   6.3483   6.3761
     6.5587   6.5973   6.6523   6.6724   6.7677   6.9182   6.9880   7.0149
     7.0801   7.1331   7.2543   7.2571   7.3089   7.4039   7.5449   7.5979
     7.6068   7.6574   7.8913   7.8975   8.0672   8.0869   8.0995   8.2032
     8.2732   8.3373   8.3509   8.3707   8.3980   8.5135   8.6189   8.6471
     8.7698   8.8856   8.9064   9.0455   9.0936   9.2385   9.2826

     the Fermi energy is     7.2167 ev

!    total energy              =   -2943.04063400 Ry
     estimated scf accuracy    <       0.00071215 Ry
     smearing contrib. (-TS)   =      -0.09747496 Ry
     internal energy E=F+TS    =   -2942.94315904 Ry

     total magnetization       =     0.00 Bohr mag/cell
     absolute magnetization    =     0.02 Bohr mag/cell

     convergence has been achieved in   4 iterations

     negative rho (up, down):  9.089E-01 9.089E-01

     Forces acting on atoms (cartesian axes, Ry/au):

     atom    1 type  1   force =    -0.00765965   -0.02814321    0.01118284
     atom    2 type  1   force =    -0.11365142   -0.01659622   -0.00767228
     atom    3 type  1   force =    -0.11304811    0.01391253   -0.00303937
     atom    4 type  1   force =     0.11497559   -0.01554298   -0.00887650
     atom    5 type  1   force =     0.11480482    0.01306911   -0.00215970
     atom    6 type  2   force =    -0.00906130   -0.01619642    0.00879440
     atom    7 type  2   force =    -0.00912899    0.01498429   -0.00596500
     atom    8 type  3   force =    -0.13169137    0.00372629   -0.00655529
     atom    9 type  3   force =     0.08475754    0.00371456   -0.00728820
     atom   10 type  3   force =    -0.02143266   -0.02996485   -0.05845635
     atom   11 type  3   force =    -0.01890725   -0.03580898    0.05961284
     atom   12 type  3   force =    -0.01657652    0.03479914   -0.05330621
     atom   13 type  3   force =    -0.01725536    0.02896648    0.06399750
     atom   14 type  3   force =     0.02202680   -0.03090987   -0.05702570
     atom   15 type  3   force =     0.01870283   -0.03447338    0.05727452
     atom   16 type  3   force =     0.01682540    0.03415452   -0.05076920
     atom   17 type  3   force =     0.01742529    0.02931548    0.06271096
     atom   18 type  4   force =    -0.00952015    0.02622475   -0.01698153
     atom   19 type  4   force =    -0.12719188   -0.00382204   -0.11341707
     atom   20 type  4   force =    -0.13216597    0.00620221    0.12001171
     atom   21 type  4   force =     0.12739575   -0.00464209   -0.11563544
     atom   22 type  4   force =     0.13250744    0.00723436    0.12166804
     atom   23 type  5   force =     0.07786917   -0.00020370    0.00189502
     The non-local contrib.  to forces
     atom    1 type  1   force =    -0.00686631   -0.02112506    0.03297417
     atom    2 type  1   force =    -0.24296993   -0.16360680    0.01408526
     atom    3 type  1   force =    -0.23671793    0.15870440   -0.03048728
     atom    4 type  1   force =     0.25853783   -0.15754913    0.01298694
     atom    5 type  1   force =     0.25295730    0.15282939   -0.02979744
     atom    6 type  2   force =    -0.01075554   -0.04681985   -0.06938771
     atom    7 type  2   force =    -0.01179317    0.05825733    0.06083127
     atom    8 type  3   force =    -0.26706751    0.00072026   -0.00866403
     atom    9 type  3   force =    -0.05764907    0.00190314   -0.01003136
     atom   10 type  3   force =    -0.20777949    0.00509501   -0.20836479
     atom   11 type  3   force =    -0.21540335    0.00692905    0.19790515
     atom   12 type  3   force =    -0.19621048   -0.01947324   -0.18115204
     atom   13 type  3   force =    -0.20515047   -0.00565201    0.21126456
     atom   14 type  3   force =     0.20879225    0.00296266   -0.20965220
     atom   15 type  3   force =     0.21679769    0.00811109    0.19887057
     atom   16 type  3   force =     0.19715958   -0.01931843   -0.18279874
     atom   17 type  3   force =     0.20491303   -0.00442607    0.21281968
     atom   18 type  4   force =    -0.01078587    0.04968737   -0.06875104
     atom   19 type  4   force =     0.06664038    0.01012295    0.06829309
     atom   20 type  4   force =     0.06082087   -0.01263919   -0.06158184
     atom   21 type  4   force =    -0.06236510    0.00972323    0.07659128
     atom   22 type  4   force =    -0.05773961   -0.01180088   -0.07015754
     atom   23 type  5   force =    -0.07164186   -0.00001123    0.00008554
     The ionic contribution  to forces
     atom    1 type  1   force =    -0.26098517   -4.70679770   14.12354028
     atom    2 type  1   force =   -39.66595985   -6.18994054    0.77964809
     atom    3 type  1   force =   -39.63868050    6.17670271   -0.71355892
     atom    4 type  1   force =    39.41293793   -6.42529031    0.77832469
     atom    5 type  1   force =    39.38465615    6.41248335   -0.71203562
     atom    6 type  2   force =    -0.27679534   -3.67403006  -14.02929220
     atom    7 type  2   force =    -0.27681322    3.70971115   14.06234645
     atom    8 type  3   force =   -52.08649131    0.07188575   -0.06498898
     atom    9 type  3   force =    49.63672512    0.07314137   -0.06642020
     atom   10 type  3   force =   -36.04705384   -2.12570269  -23.10725309
     atom   11 type  3   force =   -35.12114846   -0.87849784   22.11142897
     atom   12 type  3   force =   -35.23106406    0.82791142  -22.16058561
     atom   13 type  3   force =   -36.02115664    2.21225810   23.09009640
     atom   14 type  3   force =    35.93029705   -2.19065261  -23.19217972
     atom   15 type  3   force =    35.00545828   -0.94295733   22.19598352
     atom   16 type  3   force =    35.11562384    0.89195181  -22.24473145
     atom   17 type  3   force =    35.90435057    2.27720391   23.17502161
     atom   18 type  4   force =    -0.25834392    4.47391676  -13.98136254
     atom   19 type  4   force =   -35.88509121    0.95645862  -25.59300059
     atom   20 type  4   force =   -35.86789633   -0.95291782   25.57093556
     atom   21 type  4   force =    35.65264253    0.95490331  -25.85441546
     atom   22 type  4   force =    35.63684543   -0.95168366   25.83190105
     atom   23 type  5   force =     4.95794295   -0.00005770    0.00059778
     The local contribution  to forces
     atom    1 type  1   force =     0.26347077    4.69857306  -14.15492999
     atom    2 type  1   force =    39.82190760    6.33687509   -0.82369312
     atom    3 type  1   force =    39.78839369   -6.32311221    0.72041366
     atom    4 type  1   force =   -39.58029500    6.56982579   -0.82306841
     atom    5 type  1   force =   -39.54534504   -6.55688479    0.71924074
     atom    6 type  2   force =     0.28413021    3.71204399   14.07602653
     atom    7 type  2   force =     0.28599198   -3.74848529  -14.13635111
     atom    8 type  3   force =    52.26484203   -0.06875869    0.03577857
     atom    9 type  3   force =   -49.49189755   -0.07066077    0.03809050
     atom   10 type  3   force =    36.26876028    2.09051100   23.27246608
     atom   11 type  3   force =    35.35591944    0.83080566  -22.25567267
     atom   12 type  3   force =    35.44816908   -0.77651985   22.30251326
     atom   13 type  3   force =    36.24681377   -2.17681488  -23.24104034
     atom   14 type  3   force =   -36.14554239    2.15312780   23.35709491
     atom   15 type  3   force =   -35.23536787    0.89210498  -22.34015365
     atom   16 type  3   force =   -35.32488062   -0.83846861   22.38717900
     atom   17 type  3   force =   -36.12201903   -2.24154445  -23.32569297
     atom   18 type  4   force =     0.26528545   -4.50113688   14.00085827
     atom   19 type  4   force =    35.71929891   -0.96800748   25.41349151
     atom   20 type  4   force =    35.69821040    0.97371148  -25.37941240
     atom   21 type  4   force =   -35.48564283   -0.96606205   25.66578758
     atom   22 type  4   force =   -35.46479199    0.97392383  -25.63168462
     atom   23 type  5   force =    -4.81142096   -0.00005501   -0.00255342
     The core correction contribution to forces
     atom    1 type  1   force =     0.00137206    0.00099838   -0.00089665
     atom    2 type  1   force =    -0.01221936   -0.00207332    0.00064006
     atom    3 type  1   force =    -0.01246716    0.00293124   -0.00138954
     atom    4 type  1   force =     0.01297296   -0.00269108    0.00077466
     atom    5 type  1   force =     0.01308434    0.00355826   -0.00164353
     atom    6 type  2   force =     0.00032887    0.00203918    0.00269500
     atom    7 type  2   force =     0.00037304   -0.00260924   -0.00218244
     atom    8 type  3   force =    -0.03242655    0.00036965   -0.00055613
     atom    9 type  3   force =     0.00156033    0.00022413   -0.00048293
     atom   10 type  3   force =    -0.02196122    0.00948053   -0.01646716
     atom   11 type  3   force =    -0.02374463    0.00967741    0.01713607
     atom   12 type  3   force =    -0.02203504   -0.00957434   -0.01605646
     atom   13 type  3   force =    -0.02198938   -0.00918752    0.01720783
     atom   14 type  3   force =     0.02273468    0.01056739   -0.01484516
     atom   15 type  3   force =     0.02404148    0.01149604    0.01531428
     atom   16 type  3   force =     0.02228246   -0.01131653   -0.01410730
     atom   17 type  3   force =     0.02250096   -0.01034439    0.01558499
     atom   18 type  4   force =     0.00048748   -0.00262549    0.00309093
     atom   19 type  4   force =    -0.01000183    0.00001352   -0.00931472
     atom   20 type  4   force =    -0.00985994    0.00031115    0.00913256
     atom   21 type  4   force =     0.01006816    0.00004723   -0.00969185
     atom   22 type  4   force =     0.00997867    0.00026678    0.00951602
     atom   23 type  5   force =     0.00000000    0.00000000    0.00000000
     The Hubbard contrib.    to forces
     atom    1 type  1   force =     0.00000000    0.00000000    0.00000000
     atom    2 type  1   force =     0.00000000    0.00000000    0.00000000
     atom    3 type  1   force =     0.00000000    0.00000000    0.00000000
     atom    4 type  1   force =     0.00000000    0.00000000    0.00000000
     atom    5 type  1   force =     0.00000000    0.00000000    0.00000000
     atom    6 type  2   force =     0.00000000    0.00000000    0.00000000
     atom    7 type  2   force =     0.00000000    0.00000000    0.00000000
     atom    8 type  3   force =     0.00000000    0.00000000    0.00000000
     atom    9 type  3   force =     0.00000000    0.00000000    0.00000000
     atom   10 type  3   force =     0.00000000    0.00000000    0.00000000
     atom   11 type  3   force =     0.00000000    0.00000000    0.00000000
     atom   12 type  3   force =     0.00000000    0.00000000    0.00000000
     atom   13 type  3   force =     0.00000000    0.00000000    0.00000000
     atom   14 type  3   force =     0.00000000    0.00000000    0.00000000
     atom   15 type  3   force =     0.00000000    0.00000000    0.00000000
     atom   16 type  3   force =     0.00000000    0.00000000    0.00000000
     atom   17 type  3   force =     0.00000000    0.00000000    0.00000000
     atom   18 type  4   force =     0.00000000    0.00000000    0.00000000
     atom   19 type  4   force =     0.00000000    0.00000000    0.00000000
     atom   20 type  4   force =     0.00000000    0.00000000    0.00000000
     atom   21 type  4   force =     0.00000000    0.00000000    0.00000000
     atom   22 type  4   force =     0.00000000    0.00000000    0.00000000
     atom   23 type  5   force =     0.00000000    0.00000000    0.00000000
     The SCF correction term to forces
     atom    1 type  1   force =    -0.00411421    0.00013509    0.00910365
     atom    2 type  1   force =    -0.01387309    0.00207631    0.02025607
     atom    3 type  1   force =    -0.01303942   -0.00138664    0.02059134
     atom    4 type  1   force =     0.01135866    0.00008872    0.02071424
     atom    5 type  1   force =     0.00998887    0.00100988    0.02068477
     atom    6 type  2   force =    -0.00543272   -0.00950272    0.02736141
     atom    7 type  2   force =    -0.00635083   -0.00196268    0.00799946
     atom    8 type  3   force =    -0.01001125   -0.00056371    0.03048392
     atom    9 type  3   force =    -0.00344451   -0.00096634    0.03016441
     atom   10 type  3   force =    -0.01286161   -0.00942172   -0.00022875
     atom   11 type  3   force =    -0.01399346   -0.00479628   -0.01257606
     atom   12 type  3   force =    -0.01489923    0.01238213    0.00058328
     atom   13 type  3   force =    -0.01523584    0.00828976   -0.01492232
     atom   14 type  3   force =     0.00628200   -0.00698814    0.00116510
     atom   15 type  3   force =     0.00831004   -0.00330119   -0.01413157
     atom   16 type  3   force =     0.00717694    0.01123326    0.00229793
     atom   17 type  3   force =     0.00821654    0.00835345   -0.01641373
     atom   18 type  4   force =    -0.00562649    0.00630998    0.02779148
     atom   19 type  4   force =    -0.01750134   -0.00248266    0.00572227
     atom   20 type  4   force =    -0.01290417   -0.00233644   -0.02045355
     atom   21 type  4   force =     0.01322979   -0.00332683    0.00470164
     atom   22 type  4   force =     0.00875174   -0.00354473   -0.01929824
     atom   23 type  5   force =     0.00352584   -0.00015279    0.00237374

     Total force =     0.497812     Total SCF correction =     0.101368
     SCF correction compared to forces is large: reduce conv_thr to get better values


     Computing stress (Cartesian axis) and pressure


     negative rho (up, down):  9.089E-01 9.089E-01
          total   stress  (Ry/bohr**3)                   (kbar)     P=       88.10
   0.00076409  -0.00000013   0.00000030          112.40       -0.02        0.04
  -0.00000013   0.00065740  -0.00001341           -0.02       96.71       -1.97
   0.00000030  -0.00001341   0.00037523            0.04       -1.97       55.20


     Entering Dynamics:    iteration =     3
                           time      =   0.0006 pico-seconds


ATOMIC_POSITIONS (angstrom)
Hf            2.6702643636        2.8271158595        6.6039675226
Hf            1.2532270379        1.2862798592        5.0584656948
[...]
     4.7705   4.8243   5.0047   5.0394   5.1141   5.2514   5.2970   5.3029
     5.4102   5.5505   5.5850   5.7187   5.7237   5.7514   5.7696   5.7736
     5.9155   6.1182   6.1889   6.2262   6.2634   6.3461   6.3589   6.3858
     6.5723   6.6053   6.6600   6.6767   6.7707   6.9232   6.9937   7.0186
     7.0848   7.1381   7.2572   7.2616   7.3108   7.4099   7.5486   7.5934
     7.6157   7.6595   7.8963   7.9152   8.0781   8.0898   8.1040   8.2106
     8.2845   8.3452   8.3654   8.3772   8.4072   8.5230   8.6222   8.6525
     8.7743   8.8897   8.9092   9.0511   9.1045   9.2506   9.2648

     the Fermi energy is     7.2208 ev

!    total energy              =   -2943.01753549 Ry
     estimated scf accuracy    <       0.00044984 Ry
     smearing contrib. (-TS)   =      -0.09770468 Ry
     internal energy E=F+TS    =   -2942.91983081 Ry

     total magnetization       =     0.00 Bohr mag/cell
     absolute magnetization    =     0.00 Bohr mag/cell

     convergence has been achieved in   4 iterations

     negative rho (up, down):  9.093E-01 9.093E-01

     Forces acting on atoms (cartesian axes, Ry/au):

     atom    1 type  1   force =    -0.01105157   -0.02951169    0.01879891
     atom    2 type  1   force =    -0.11591638   -0.01464683    0.00486886
     atom    3 type  1   force =    -0.11498685    0.01185069    0.00914066
     atom    4 type  1   force =     0.11672671   -0.01278531    0.00371751
     atom    5 type  1   force =     0.11622710    0.01007655    0.01097736
     atom    6 type  2   force =    -0.01139195   -0.01771352    0.00280335
     atom    7 type  2   force =    -0.01171251    0.01637339   -0.00504392
     atom    8 type  3   force =    -0.13436806    0.00378949   -0.00162740
     atom    9 type  3   force =     0.02077231    0.00510799   -0.00412551
     atom   10 type  3   force =    -0.02193487   -0.02942105   -0.06339753
     atom   11 type  3   force =    -0.01984598   -0.03642727    0.05453694
     atom   12 type  3   force =    -0.01764652    0.03456401   -0.05835648
     atom   13 type  3   force =    -0.01822351    0.02995735    0.05842294
     atom   14 type  3   force =     0.02260873   -0.03037886   -0.06194028
     atom   15 type  3   force =     0.01965738   -0.03558527    0.05195093
     atom   16 type  3   force =     0.01750286    0.03400355   -0.05585475
     atom   17 type  3   force =     0.01894819    0.03110101    0.05677213
     atom   18 type  4   force =    -0.01175813    0.02697771   -0.01702166
     atom   19 type  4   force =    -0.12675807   -0.00378351   -0.11566468
     atom   20 type  4   force =    -0.13184512    0.00565849    0.11337779
     atom   21 type  4   force =     0.12666098   -0.00526886   -0.11695882
     atom   22 type  4   force =     0.13190942    0.00701160    0.11425235
     atom   23 type  5   force =     0.15642582   -0.00094967    0.00037129
     The non-local contrib.  to forces
     atom    1 type  1   force =    -0.00515347   -0.01823312    0.03185699
     atom    2 type  1   force =    -0.24433542   -0.16236068    0.02231002
     atom    3 type  1   force =    -0.23801920    0.15740455   -0.02247064
     atom    4 type  1   force =     0.26042838   -0.15705243    0.02132544
     atom    5 type  1   force =     0.25455382    0.15215111   -0.02162239
     atom    6 type  2   force =    -0.00999187   -0.04787445   -0.06683060
     atom    7 type  2   force =    -0.01136099    0.05861576    0.05999748
     atom    8 type  3   force =    -0.25667349    0.00098851   -0.00193594
     atom    9 type  3   force =    -0.08312350    0.00346352   -0.00483355
     atom   10 type  3   force =    -0.21014124    0.00521652   -0.21137835
     atom   11 type  3   force =    -0.21548739    0.00518114    0.19569759
     atom   12 type  3   force =    -0.19896241   -0.01938481   -0.18394655
     atom   13 type  3   force =    -0.20483267   -0.00414404    0.20874028
     atom   14 type  3   force =     0.20973329    0.00315226   -0.21222184
     atom   15 type  3   force =     0.21553329    0.00626321    0.19608792
     atom   16 type  3   force =     0.19831442   -0.01940976   -0.18509018
     atom   17 type  3   force =     0.20372951   -0.00211030    0.20986498
     atom   18 type  4   force =    -0.01090102    0.05080096   -0.06315020
     atom   19 type  4   force =     0.06521148    0.01037985    0.06835236
     atom   20 type  4   force =     0.05874849   -0.01326491   -0.06415406
     atom   21 type  4   force =    -0.06319755    0.00928211    0.07740391
     atom   22 type  4   force =    -0.05726908   -0.01197287   -0.07306267
     atom   23 type  5   force =    -0.08354210    0.00020288   -0.00025928
     The ionic contribution  to forces
     atom    1 type  1   force =    -0.28802396   -4.79305479   14.25731894
     atom    2 type  1   force =   -39.68197487   -6.19999768    0.77979090
     atom    3 type  1   force =   -39.65552449    6.18813337   -0.71230021
     atom    4 type  1   force =    39.46542459   -6.42506694    0.77768418
     atom    5 type  1   force =    39.43967430    6.41144609   -0.71156351
     atom    6 type  2   force =    -0.30215753   -3.76273096  -14.16747738
     atom    7 type  2   force =    -0.30248092    3.79760415   14.20112208
     atom    8 type  3   force =   -52.29439028    0.07145887   -0.06586824
     atom    9 type  3   force =    49.21724063    0.08299156   -0.08076366
     atom   10 type  3   force =   -36.03726888   -2.11290362  -23.08537445
     atom   11 type  3   force =   -35.11265013   -0.86607360   22.08962576
     atom   12 type  3   force =   -35.22521176    0.81763632  -22.14107403
     atom   13 type  3   force =   -36.01114084    2.20065502   23.06842151
     atom   14 type  3   force =    35.93419422   -2.17291637  -23.16300620
     atom   15 type  3   force =    35.01013293   -0.92653256   22.16763727
     atom   16 type  3   force =    35.12387735    0.87607784  -22.21728167
     atom   17 type  3   force =    35.90773969    2.26085563   23.14610908
     atom   18 type  4   force =    -0.28308553    4.55309587  -14.10962632
     atom   19 type  4   force =   -35.86658952    0.95351272  -25.54316402
     atom   20 type  4   force =   -35.84899907   -0.95140880   25.51994911
     atom   21 type  4   force =    35.67018152    0.95275192  -25.78843427
     atom   22 type  4   force =    35.65156845   -0.94964992   25.76727791
     atom   23 type  5   force =     5.48946409   -0.00588412    0.01099724
     The local contribution  to forces
     atom    1 type  1   force =     0.28057090    4.78297640  -14.25924677
     atom    2 type  1   force =    39.82682109    6.35258729   -0.77502081
     atom    3 type  1   force =    39.79523516   -6.34060557    0.76743491
     atom    4 type  1   force =   -39.62533414    6.57669282   -0.77309221
     atom    5 type  1   force =   -39.59391352   -6.56364869    0.76989381
     atom    6 type  2   force =     0.30109124    3.80334347   14.25066556
     atom    7 type  2   force =     0.30339696   -3.83891081  -14.25206493
     atom    8 type  3   force =    52.45712029   -0.06785498    0.08778989
     atom    9 type  3   force =   -49.12080023   -0.07967444    0.10322207
     atom   10 type  3   force =    36.25080682    2.07493136   23.23663561
     atom   11 type  3   force =    35.33412371    0.81218976  -22.24706228
     atom   12 type  3   force =    35.43133134   -0.76301133   22.26930237
     atom   13 type  3   force =    36.22307057   -2.15573499  -23.23490178
     atom   14 type  3   force =   -36.15078418    2.13949458   23.31789390
     atom   15 type  3   force =   -35.23403059    0.87109737  -22.32845033
     atom   16 type  3   force =   -35.33439696   -0.82294484   22.34940416
     atom   17 type  3   force =   -36.11874394   -2.21809037  -23.31694820
     atom   18 type  4   force =     0.28146291   -4.58432648   14.16762339
     atom   19 type  4   force =    35.69170965   -0.96574564   25.35925256
     atom   20 type  4   force =    35.66898296    0.97079729  -25.35105861
     atom   21 type  4   force =   -35.49817714   -0.96652270   25.59774290
     atom   22 type  4   force =   -35.47293654    0.97038262  -25.59188971
     atom   23 type  5   force =    -5.24737231    0.00479271   -0.00732908
     The core correction contribution to forces
     atom    1 type  1   force =     0.00173422    0.00137879   -0.00140914
     atom    2 type  1   force =    -0.01225065   -0.00206624    0.00075652
     atom    3 type  1   force =    -0.01246872    0.00292462   -0.00130851
     atom    4 type  1   force =     0.01307660   -0.00260775    0.00090733
     atom    5 type  1   force =     0.01320328    0.00349760   -0.00159715
     atom    6 type  2   force =     0.00028215    0.00204551    0.00258610
     atom    7 type  2   force =     0.00033772   -0.00263141   -0.00213363
     atom    8 type  3   force =    -0.03169196    0.00040217   -0.00054650
     atom    9 type  3   force =    -0.00096354    0.00040242   -0.00069992
     atom   10 type  3   force =    -0.02207490    0.00949696   -0.01662565
     atom   11 type  3   force =    -0.02363503    0.00954482    0.01710430
     atom   12 type  3   force =    -0.02213158   -0.00950955   -0.01615785
     atom   13 type  3   force =    -0.02186161   -0.00912712    0.01720138
     atom   14 type  3   force =     0.02285364    0.01060227   -0.01497179
     atom   15 type  3   force =     0.02384477    0.01152305    0.01514041
     atom   16 type  3   force =     0.02240800   -0.01138173   -0.01417277
     atom   17 type  3   force =     0.02231650   -0.01035725    0.01548544
     atom   18 type  4   force =     0.00046932   -0.00268020    0.00307729
     atom   19 type  4   force =    -0.00996129   -0.00000712   -0.00934275
     atom   20 type  4   force =    -0.00981039    0.00034379    0.00913934
     atom   21 type  4   force =     0.01014315    0.00005285   -0.00973410
     atom   22 type  4   force =     0.01003055    0.00027218    0.00951871
     atom   23 type  5   force =     0.00000000    0.00000000    0.00000000
     The Hubbard contrib.    to forces
     atom    1 type  1   force =     0.00000000    0.00000000    0.00000000
     atom    2 type  1   force =     0.00000000    0.00000000    0.00000000
     atom    3 type  1   force =     0.00000000    0.00000000    0.00000000
     atom    4 type  1   force =     0.00000000    0.00000000    0.00000000
     atom    5 type  1   force =     0.00000000    0.00000000    0.00000000
     atom    6 type  2   force =     0.00000000    0.00000000    0.00000000
     atom    7 type  2   force =     0.00000000    0.00000000    0.00000000
     atom    8 type  3   force =     0.00000000    0.00000000    0.00000000
     atom    9 type  3   force =     0.00000000    0.00000000    0.00000000
     atom   10 type  3   force =     0.00000000    0.00000000    0.00000000
     atom   11 type  3   force =     0.00000000    0.00000000    0.00000000
     atom   12 type  3   force =     0.00000000    0.00000000    0.00000000
     atom   13 type  3   force =     0.00000000    0.00000000    0.00000000
     atom   14 type  3   force =     0.00000000    0.00000000    0.00000000
     atom   15 type  3   force =     0.00000000    0.00000000    0.00000000
     atom   16 type  3   force =     0.00000000    0.00000000    0.00000000
     atom   17 type  3   force =     0.00000000    0.00000000    0.00000000
     atom   18 type  4   force =     0.00000000    0.00000000    0.00000000
     atom   19 type  4   force =     0.00000000    0.00000000    0.00000000
     atom   20 type  4   force =     0.00000000    0.00000000    0.00000000
     atom   21 type  4   force =     0.00000000    0.00000000    0.00000000
     atom   22 type  4   force =     0.00000000    0.00000000    0.00000000
     atom   23 type  5   force =     0.00000000    0.00000000    0.00000000
     The SCF correction term to forces
     atom    1 type  1   force =    -0.00003175   -0.00262817   -0.00850720
     atom    2 type  1   force =    -0.00402903   -0.00285873   -0.02175386
     atom    3 type  1   force =    -0.00406209    0.00394450   -0.02100098
     atom    4 type  1   force =     0.00327877   -0.00480021   -0.02189332
     atom    5 type  1   force =     0.00285673    0.00658125   -0.02291949
     atom    6 type  2   force =    -0.00046844   -0.01254629   -0.01492643
     atom    7 type  2   force =    -0.00145778    0.00164649   -0.01075101
     atom    8 type  3   force =    -0.00858512   -0.00125428   -0.01985271
     atom    9 type  3   force =     0.00856645   -0.00212427   -0.01983654
     atom   10 type  3   force =    -0.00310916   -0.00621147    0.01455921
     atom   11 type  3   force =    -0.00204963    0.00268141    0.00038547
     atom   12 type  3   force =    -0.00252460    0.00878418    0.01473349
     atom   13 type  3   force =    -0.00331145   -0.00174072    0.00017546
     atom   14 type  3   force =     0.00675927   -0.01076080    0.01157956
     atom   15 type  3   force =     0.00432448    0.00201446    0.00274957
     atom   16 type  3   force =     0.00744755    0.01161283    0.01249962
     atom   17 type  3   force =     0.00405394    0.00075411    0.00347475
     atom   18 type  4   force =     0.00044370    0.01003836   -0.01373192
     atom   19 type  4   force =    -0.00698090   -0.00197253    0.01045108
     atom   20 type  4   force =    -0.00061960   -0.00085808    0.00071592
     atom   21 type  4   force =     0.00785849   -0.00088224    0.00727666
     atom   22 type  4   force =     0.00066354   -0.00206961    0.00362202
     atom   23 type  5   force =    -0.00197636   -0.00011034   -0.00182369

     Total force =     0.509320     Total SCF correction =     0.073912
     SCF correction compared to forces is large: reduce conv_thr to get better values


     Computing stress (Cartesian axis) and pressure


     negative rho (up, down):  9.093E-01 9.093E-01
          total   stress  (Ry/bohr**3)                   (kbar)     P=       89.50
   0.00079263  -0.00000017  -0.00000032          116.60       -0.03       -0.05
  -0.00000017   0.00065690  -0.00001354           -0.03       96.63       -1.99
  -0.00000032  -0.00001354   0.00037570           -0.05       -1.99       55.27


     Entering Dynamics:    iteration =    20
                           time      =   0.0041 pico-seconds


ATOMIC_POSITIONS (angstrom)
Hf            2.6717427209        2.8267892599        6.6041103409
Hf            1.2534069778        1.2861181933        5.0584472762
Hf            1.2559116346        7.3899424689        5.0881054412
Hf            4.0901574532        1.2861286470        5.0584354700
Hf            4.0876538519        7.3899335659        5.0881166904
Nb            2.6717117797        2.7965255456        3.5157039774
Nb            2.6717088709        5.8767429124        6.6348795827
Ta            1.2097269290        4.3409720156        5.0710863569
Ta            4.1042091992        4.3410211402        5.0710034299
Ta            1.3087637521        1.3137659516        2.0581067883
Ta            1.3043245115        1.3079758851        8.0952120402
Ta            1.3055729788        7.3762390683        2.0456199958
Ta            1.3092652005        7.3654284824        8.0866739888
Ta            4.0347838838        1.3137851770        2.0581268088
Ta            4.0392264972        1.3080131089        8.0951807779
Ta            4.0379814453        7.3762086839        2.0456516509
Ta            4.0342798571        7.3654071025        8.0866531610
Zr            2.6716825415        5.8669158193        3.5270587503
Zr            1.2426697232        4.3219740310        1.9974371458
Zr            1.2391339267        4.3542552952        8.1523574984
Zr            4.1008796166        4.3219540695        1.9974275029
Zr            4.1044143410        4.3542722743        8.1523568753
H             5.8548075389        4.3349521586        5.0793698479


     kinetic energy (Ekin) =           4.02018181 Ry
     temperature           =       19234.43956809 K 
     Ekin + Etot (const)   =       -2938.99735368 Ry
     Ions kinetic stress =           71.00 (kbar)
                                    212.84          -0.89           1.25
                                     -0.89           0.02          -0.00
                                      1.25          -0.00           0.14



     Linear momentum :   -0.0000000000    0.0000000000   -0.0000000000

     The maximum number of steps has been reached.

     End of molecular dynamics calculation

     diffusion coefficients :
     atom     1   D =       0.00000001 cm^2/s
     atom     2   D =       0.00000000 cm^2/s
     atom     3   D =       0.00000000 cm^2/s
     atom     4   D =       0.00000004 cm^2/s
     atom     5   D =       0.00000004 cm^2/s
     atom     6   D =       0.00000001 cm^2/s
     atom     7   D =       0.00000001 cm^2/s
     atom     8   D =       0.00000000 cm^2/s
     atom     9   D =       0.00000286 cm^2/s
     atom    10   D =       0.00000001 cm^2/s
     atom    11   D =       0.00000001 cm^2/s
     atom    12   D =       0.00000001 cm^2/s
     atom    13   D =       0.00000001 cm^2/s
     atom    14   D =       0.00000002 cm^2/s
     atom    15   D =       0.00000002 cm^2/s
     atom    16   D =       0.00000002 cm^2/s
     atom    17   D =       0.00000002 cm^2/s
     atom    18   D =       0.00000001 cm^2/s
     atom    19   D =       0.00000003 cm^2/s
     atom    20   D =       0.00000003 cm^2/s
     atom    21   D =       0.00000012 cm^2/s
     atom    22   D =       0.00000012 cm^2/s
     atom    23   D =       0.00031233 cm^2/s

     < D > =       0.00001373 cm^2/s

     Writing all to output data dir outdir/pwscf.save/

     init_run     :      9.43s CPU     11.45s WALL (       1 calls)
     electrons    :   2119.81s CPU   2709.92s WALL (      20 calls)
     update_pot   :     19.26s CPU     23.34s WALL (      19 calls)
     forces       :    206.65s CPU    241.62s WALL (      20 calls)
     stress       :    299.42s CPU    342.78s WALL (      20 calls)

     Called by init_run:
     wfcinit      :      6.93s CPU      8.59s WALL (       1 calls)
     potinit      :      0.46s CPU      0.48s WALL (       1 calls)
     hinit0       :      0.87s CPU      1.08s WALL (       1 calls)

     Called by electrons:
     c_bands      :   1664.37s CPU   2156.97s WALL (      99 calls)
     sum_band     :    301.79s CPU    367.96s WALL (      99 calls)
     v_of_rho     :     10.19s CPU     12.25s WALL (     119 calls)
     newd         :    167.78s CPU    200.89s WALL (     119 calls)
     mix_rho      :      0.88s CPU      1.23s WALL (      99 calls)

     Called by c_bands:
     init_us_2    :      3.52s CPU      3.65s WALL (     478 calls)
     init_us_2:cp :      3.51s CPU      3.65s WALL (     478 calls)
     regterg      :   1650.98s CPU   2140.33s WALL (     198 calls)

     Called by *egterg:
     rdiaghg      :     54.01s CPU     68.32s WALL (    1448 calls)
     h_psi        :    832.03s CPU    977.46s WALL (    1488 calls)
     s_psi        :    271.54s CPU    272.32s WALL (    1488 calls)
     g_psi        :      0.59s CPU      0.67s WALL (    1288 calls)

     Called by h_psi:
     h_psi:calbec :    406.93s CPU    517.79s WALL (    1488 calls)
     vloc_psi     :     98.32s CPU    131.36s WALL (    1488 calls)
     add_vuspsi   :    325.66s CPU    327.09s WALL (    1488 calls)

     General routines
     calbec       :    722.29s CPU    912.68s WALL (    1886 calls)
     fft          :      9.68s CPU     31.07s WALL (    2484 calls)
     ffts         :      0.20s CPU      0.28s WALL (      99 calls)
     fftw         :    107.88s CPU    144.57s WALL (  102576 calls)

     Parallel routines

     PWSCF        :  44m39.70s CPU  55m59.61s WALL


   This run was terminated on:   1:37:44  19Jun2023            

=------------------------------------------------------------------------------=
   JOB DONE.
=------------------------------------------------------------------------------=
