
     Program PWSCF v.7.2 starts on  6Jun2023 at  2:19: 1 

     This program is part of the open-source Quantum ESPRESSO suite
     for quantum simulation of materials; please cite
         "P. Giannozzi et al., J. Phys.:Condens. Matter 21 395502 (2009);
         "P. Giannozzi et al., J. Phys.:Condens. Matter 29 465901 (2017);
         "P. Giannozzi et al., J. Chem. Phys. 152 154105 (2020);
          URL http://www.quantum-espresso.org", 
     in publications or presentations arising from this work. More details at
     http://www.quantum-espresso.org/quote

     Parallel version (MPI), running on    12 processors

     MPI processes distributed on     1 nodes
     69000 MiB available memory on the printing compute node when the environment starts

     Reading input from md_Hf5Nb2Ta10Zr5H_10steps_1000eV_relaxed_slab.in
Warning: card &CELL ignored
Warning: card / ignored

     Current dimensions of program PWSCF are:
     Max number of different atomic species (ntypx) = 10
     Max number of k-points (npk) =  40000
     Max angular momentum in pseudopotentials (lmaxx) =  4

     File outdir/pwscf.update deleted, as requested

     File outdir/pwscf.md deleted, as requested

     gamma-point specific algorithms are used

     R & G space division:  proc/nbgrp/npool/nimage =      12
     Subspace diagonalization in iterative solution of the eigenvalue problem:
     one sub-group per band group will be used
     custom distributed-memory algorithm (size of sub-group:  2*  2 procs)


     Parallelization info
     --------------------
     sticks:   dense  smooth     PW     G-vecs:    dense   smooth      PW
     Min         821     821    205                73378    73378    9174
     Max         824     824    206                73388    73388    9178
     Sum        9871    9871   2471               880587   880587  110101

     Using Slab Decomposition



     bravais-lattice index     =            0
     lattice parameter (alat)  =      15.7603  a.u.
     unit-cell volume          =    4958.3580 (a.u.)^3
     number of atoms/cell      =           23
     number of atomic types    =            5
     number of electrons       =       277.00
     number of Kohn-Sham states=          167
     kinetic-energy cutoff     =     120.0000  Ry
     charge density cutoff     =     480.0000  Ry
     scf convergence threshold =      1.0E-03
     mixing beta               =       0.7000
     number of iterations used =            8  TF        mixing
     energy convergence thresh.=      0.0E+00
     force convergence thresh. =      0.0E+00
     Exchange-correlation=  SLA  PW   PBX  PBC
                           (   1   4   3   4   0   0   0)
     nstep                     =           10


     celldm(1)=  15.760315  celldm(2)=   0.000000  celldm(3)=   0.000000
     celldm(4)=   0.000000  celldm(5)=   0.000000  celldm(6)=   0.000000

     crystal axes: (cart. coord. in units of alat)
               a(1) = (   1.000000   0.000000   0.000000 )  
               a(2) = (   0.000000   1.040767   0.000000 )  
               a(3) = (   0.000000   0.000000   1.216997 )  

     reciprocal axes: (cart. coord. in units 2 pi/alat)
               b(1) = (  1.000000  0.000000  0.000000 )  
               b(2) = (  0.000000  0.960830  0.000000 )  
               b(3) = (  0.000000  0.000000  0.821695 )  


     PseudoPot. # 1 for Hf read from file:
     q-e/pseudo/hf_pbe_v1.uspp.F.UPF
     MD5 check sum: 8ee9378dfe14276e333edf04c5e4aa26
     Pseudo is Ultrasoft + core correction, Zval = 12.0
     Generated by new atomic code, or converted to UPF format
     Using radial grid of  921 points,  8 beta functions with: 
                l(1) =   0
                l(2) =   0
                l(3) =   0
                l(4) =   1
                l(5) =   1
                l(6) =   2
                l(7) =   2
                l(8) =   3
     Q(r) pseudized with  6 coefficients,  rinner =    1.200   1.200   1.200
                                                       1.200   1.200   1.200
                                                       1.200

     PseudoPot. # 2 for Nb read from file:
     q-e/pseudo/nb_pbe_v1.uspp.F.UPF
     MD5 check sum: 573aab8a2fa660278ed4a62cd769473f
     Pseudo is Ultrasoft + core correction, Zval = 13.0
     Generated by new atomic code, or converted to UPF format
     Using radial grid of  887 points,  6 beta functions with: 
                l(1) =   0
                l(2) =   0
                l(3) =   1
                l(4) =   1
                l(5) =   2
                l(6) =   2
     Q(r) pseudized with  6 coefficients,  rinner =    1.000   1.000   1.000
                                                       1.000   1.000

     PseudoPot. # 3 for Ta read from file:
     q-e/pseudo/ta_pbe_v1.uspp.F.UPF
     MD5 check sum: f8bbe9446314a3b8ea5d9f3e3836c939
     Pseudo is Ultrasoft + core correction, Zval = 13.0
     Generated by new atomic code, or converted to UPF format
     Using radial grid of  921 points,  7 beta functions with: 
                l(1) =   0
                l(2) =   0
                l(3) =   1
                l(4) =   1
                l(5) =   2
                l(6) =   2
                l(7) =   3
     Q(r) pseudized with  6 coefficients,  rinner =    1.300   1.300   1.300
                                                       1.300   1.300   1.300
                                                       1.300

     PseudoPot. # 4 for Zr read from file:
     q-e/pseudo/zr_pbe_v1.uspp.F.UPF
     MD5 check sum: 5db81b1e868ab7776c4564c113de050b
     Pseudo is Ultrasoft + core correction, Zval = 12.0
     Generated by new atomic code, or converted to UPF format
     Using radial grid of  887 points,  6 beta functions with: 
                l(1) =   0
                l(2) =   0
                l(3) =   1
                l(4) =   1
                l(5) =   2
                l(6) =   2
     Q(r) pseudized with  6 coefficients,  rinner =    1.200   1.200   1.200
                                                       1.200   1.200

     PseudoPot. # 5 for H  read from file:
     q-e/pseudo/h_pbe_v1.4.uspp.F.UPF
     MD5 check sum: 761ae9a214b05c3daf00ab9f6b793d6f
     Pseudo is Ultrasoft, Zval =  1.0
     Generated by new atomic code, or converted to UPF format
     Using radial grid of  615 points,  2 beta functions with: 
                l(1) =   0
                l(2) =   0
     Q(r) pseudized with  8 coefficients,  rinner =    0.700

     atomic species   valence    mass     pseudopotential
        Hf            12.00   178.49000     Hf( 1.00)
        Nb            13.00    92.90637     Nb( 1.00)
        Ta            13.00   180.94788     Ta( 1.00)
        Zr            12.00    91.22400     Zr( 1.00)
        H              1.00     2.01400     H ( 1.00)

     Starting magnetic structure 
     atomic species   magnetization
        Hf           0.000
        Nb           0.000
        Ta           0.000
        Zr           0.000
        H            0.000

     No symmetry found



   Cartesian axes

     site n.     atom                  positions (alat units)
         1           Hf  tau(   1) = (   0.3201439   0.3389836   0.7918423  )
         2           Hf  tau(   2) = (   0.1502387   0.1542307   0.6065307  )
         3           Hf  tau(   3) = (   0.1505380   0.8860677   0.6100801  )
         4           Hf  tau(   4) = (   0.4900491   0.1542307   0.6065307  )
         5           Hf  tau(   5) = (   0.4897498   0.8860677   0.6100801  )
         6           Nb  tau(   6) = (   0.3201439   0.3353634   0.4215328  )
         7           Nb  tau(   7) = (   0.3201439   0.7046018   0.7955633  )
         8           Ta  tau(   8) = (   0.1450088   0.5204950   0.6080487  )
         9           Ta  tau(   9) = (   0.4952790   0.5204950   0.6080487  )
        10           Ta  tau(  10) = (   0.1567449   0.1575687   0.2468560  )
        11           Ta  tau(  11) = (   0.1562096   0.1568814   0.9705731  )
        12           Ta  tau(  12) = (   0.1563561   0.8843917   0.2453522  )
        13           Ta  tau(  13) = (   0.1567999   0.8831035   0.9695447  )
        14           Ta  tau(  14) = (   0.4835429   0.1575687   0.2468560  )
        15           Ta  tau(  15) = (   0.4840781   0.1568814   0.9705731  )
        16           Ta  tau(  16) = (   0.4839317   0.8843917   0.2453522  )
        17           Ta  tau(  17) = (   0.4834879   0.8831035   0.9695447  )
        18           Zr  tau(  18) = (   0.3201439   0.7033916   0.4229477  )
        19           Zr  tau(  19) = (   0.1491408   0.5182348   0.2398082  )
        20           Zr  tau(  20) = (   0.1487273   0.5220772   0.9771889  )
        21           Zr  tau(  21) = (   0.4911469   0.5182348   0.2398082  )
        22           Zr  tau(  22) = (   0.4915605   0.5220772   0.9771889  )
        23           H   tau(  23) = (   0.6751351   0.5203837   0.6081751  )

     number of k points=     1  Gaussian smearing, width (Ry)=  0.0220
                       cart. coord. in units 2pi/alat
        k(    1) = (   0.0000000   0.0000000   0.0000000), wk =   1.0000000

     Dense  grid:   440294 G-vectors     FFT dimensions: ( 120, 120, 135)

     Estimated max dynamical RAM per process >     369.12 MB

     Estimated total dynamical RAM >       4.33 GB

     Check: negative core charge=   -0.000002
     Generating pointlists ...
     new r_m :   0.1251 (alat units)  1.9717 (a.u.) for type    1
     new r_m :   0.1229 (alat units)  1.9374 (a.u.) for type    2
     new r_m :   0.0742 (alat units)  1.1693 (a.u.) for type    3
     new r_m :   0.1245 (alat units)  1.9625 (a.u.) for type    4
     new r_m :   0.0742 (alat units)  1.1693 (a.u.) for type    5

     Initial potential from superposition of free atoms

     starting charge     266.9726, renormalised to     277.0000

     negative rho (up, down):  9.206E-01 9.206E-01
     Starting wfcs are  287 randomized atomic wfcs

     total cpu time spent up to now is       25.3 secs

     Self-consistent Calculation

     iteration #  1     ecut=   120.00 Ry     beta= 0.70
     Davidson diagonalization with overlap
     ethr =  1.00E-02,  avg # of iterations =  3.0

     negative rho (up, down):  9.825E-01 9.822E-01

     total cpu time spent up to now is       70.7 secs

     total energy              =   -2932.09787611 Ry
     estimated scf accuracy    <     291.81665252 Ry

     total magnetization       =    -0.00 Bohr mag/cell
     absolute magnetization    =     0.08 Bohr mag/cell

     iteration #  2     ecut=   120.00 Ry     beta= 0.70
     Davidson diagonalization with overlap
     ethr =  1.00E-02,  avg # of iterations =  4.0

     negative rho (up, down):  9.369E-01 9.356E-01

     total cpu time spent up to now is      115.6 secs

     total energy              =   -2942.06874578 Ry
     estimated scf accuracy    <      36.66300283 Ry

     total magnetization       =     0.00 Bohr mag/cell
     absolute magnetization    =     0.14 Bohr mag/cell

     iteration #  3     ecut=   120.00 Ry     beta= 0.70
     Davidson diagonalization with overlap
     ethr =  1.00E-02,  avg # of iterations =  3.0

     negative rho (up, down):  9.663E-01 9.644E-01

     total cpu time spent up to now is      156.6 secs

     total energy              =   -2942.61255661 Ry
     estimated scf accuracy    <      15.37982620 Ry

     total magnetization       =    -0.02 Bohr mag/cell
     absolute magnetization    =     0.19 Bohr mag/cell

     iteration #  4     ecut=   120.00 Ry     beta= 0.70
     Davidson diagonalization with overlap
     ethr =  5.55E-03,  avg # of iterations =  3.0

     negative rho (up, down):  9.611E-01 9.597E-01

     total cpu time spent up to now is      196.9 secs

     total energy              =   -2942.85582914 Ry
     estimated scf accuracy    <       3.36190410 Ry

     total magnetization       =     0.03 Bohr mag/cell
     absolute magnetization    =     0.33 Bohr mag/cell

     iteration #  5     ecut=   120.00 Ry     beta= 0.70
     Davidson diagonalization with overlap
     ethr =  1.21E-03,  avg # of iterations =  6.5

     negative rho (up, down):  9.369E-01 9.359E-01

     total cpu time spent up to now is      246.6 secs

     total energy              =   -2943.00181240 Ry
     estimated scf accuracy    <       1.65203545 Ry

     total magnetization       =     0.03 Bohr mag/cell
     absolute magnetization    =     0.20 Bohr mag/cell

     iteration #  6     ecut=   120.00 Ry     beta= 0.70
     Davidson diagonalization with overlap
     ethr =  5.96E-04,  avg # of iterations =  2.0

     negative rho (up, down):  9.239E-01 9.234E-01

     total cpu time spent up to now is      284.6 secs

     total energy              =   -2943.00428502 Ry
     estimated scf accuracy    <       1.08129351 Ry

     total magnetization       =     0.01 Bohr mag/cell
     absolute magnetization    =     0.15 Bohr mag/cell

     iteration #  7     ecut=   120.00 Ry     beta= 0.70
     Davidson diagonalization with overlap
     ethr =  3.90E-04,  avg # of iterations =  2.0

     negative rho (up, down):  9.085E-01 9.084E-01

     total cpu time spent up to now is      322.4 secs

     total energy              =   -2942.98709709 Ry
     estimated scf accuracy    <       0.27992515 Ry

     total magnetization       =     0.02 Bohr mag/cell
     absolute magnetization    =     0.16 Bohr mag/cell

     iteration #  8     ecut=   120.00 Ry     beta= 0.70
     Davidson diagonalization with overlap
     ethr =  1.01E-04,  avg # of iterations = 13.5

     negative rho (up, down):  9.048E-01 9.048E-01

     total cpu time spent up to now is      368.5 secs

     total energy              =   -2942.98835689 Ry
     estimated scf accuracy    <       0.23542898 Ry

     total magnetization       =     0.02 Bohr mag/cell
     absolute magnetization    =     0.12 Bohr mag/cell

     iteration #  9     ecut=   120.00 Ry     beta= 0.70
     Davidson diagonalization with overlap
     ethr =  8.50E-05,  avg # of iterations =  2.0

     negative rho (up, down):  9.060E-01 9.060E-01

     total cpu time spent up to now is      409.8 secs

     total energy              =   -2942.99784426 Ry
     estimated scf accuracy    <       0.05698759 Ry

     total magnetization       =     0.01 Bohr mag/cell
     absolute magnetization    =     0.09 Bohr mag/cell

     iteration # 10     ecut=   120.00 Ry     beta= 0.70
     Davidson diagonalization with overlap
     ethr =  2.06E-05,  avg # of iterations =  8.5

     negative rho (up, down):  9.069E-01 9.069E-01

     total cpu time spent up to now is      453.0 secs

     total energy              =   -2943.00237879 Ry
     estimated scf accuracy    <       0.02867001 Ry

     total magnetization       =     0.00 Bohr mag/cell
     absolute magnetization    =     0.08 Bohr mag/cell

     iteration # 11     ecut=   120.00 Ry     beta= 0.70
     Davidson diagonalization with overlap
     ethr =  1.04E-05,  avg # of iterations =  4.0

     negative rho (up, down):  9.077E-01 9.077E-01

     total cpu time spent up to now is      496.4 secs

     total energy              =   -2943.00460001 Ry
     estimated scf accuracy    <       0.00513755 Ry

     total magnetization       =     0.00 Bohr mag/cell
     absolute magnetization    =     0.07 Bohr mag/cell

     iteration # 12     ecut=   120.00 Ry     beta= 0.70
     Davidson diagonalization with overlap
     ethr =  1.85E-06,  avg # of iterations = 12.0

     negative rho (up, down):  9.078E-01 9.078E-01

     Magnetic moment per site  (integrated on atomic sphere of radius R)
     atom   1 (R=0.125)  charge=  9.4607  magn= -0.0000
     atom   2 (R=0.125)  charge=  9.0586  magn=  0.0003
     atom   3 (R=0.125)  charge=  9.0582  magn=  0.0000
     atom   4 (R=0.125)  charge=  9.0565  magn=  0.0003
     atom   5 (R=0.125)  charge=  9.0561  magn= -0.0002
     atom   6 (R=0.123)  charge= 10.3453  magn= -0.0000
     atom   7 (R=0.123)  charge= 10.3469  magn= -0.0001
     atom   8 (R=0.074)  charge=  5.2336  magn=  0.0001
     atom   9 (R=0.074)  charge=  5.2523  magn=  0.0001
     atom  10 (R=0.074)  charge=  5.2165  magn=  0.0002
     atom  11 (R=0.074)  charge=  5.2160  magn=  0.0001
     atom  12 (R=0.074)  charge=  5.2167  magn= -0.0002
     atom  13 (R=0.074)  charge=  5.2164  magn= -0.0003
     atom  14 (R=0.074)  charge=  5.2164  magn=  0.0004
     atom  15 (R=0.074)  charge=  5.2162  magn=  0.0001
     atom  16 (R=0.074)  charge=  5.2177  magn= -0.0005
     atom  17 (R=0.074)  charge=  5.2156  magn= -0.0003
     atom  18 (R=0.125)  charge=  9.4559  magn= -0.0001
     atom  19 (R=0.125)  charge=  9.0006  magn=  0.0016
     atom  20 (R=0.125)  charge=  8.9992  magn= -0.0017
     atom  21 (R=0.125)  charge=  8.9970  magn=  0.0014
     atom  22 (R=0.125)  charge=  8.9971  magn= -0.0014
     atom  23 (R=0.074)  charge=  0.8828  magn=  0.0000

     total cpu time spent up to now is      555.9 secs

     End of self-consistent calculation

 ------ SPIN UP ------------


          k = 0.0000 0.0000 0.0000 ( 55051 PWs)   bands (ev):

   -59.4835 -59.4792 -59.4383 -59.4341 -59.4051 -59.4005 -59.3613 -59.3568
   -59.2289 -58.7539 -53.0943 -53.0370 -52.9704 -52.9136 -51.3633 -44.9047
   -44.9022 -40.3153 -40.3042 -40.2129 -40.2093 -38.4707 -26.4831 -26.4774
   -26.3989 -26.3897 -26.3024 -26.2977 -26.1788 -26.1696 -26.0539 -26.0250
   -25.9890 -25.9612 -25.9542 -25.9266 -25.9161 -25.8665 -25.8562 -25.8353
   -25.7983 -25.6685 -25.6644 -25.6535 -25.6450 -25.5915 -25.5874 -25.5689
   -25.5657 -25.5010 -25.4764 -25.4288 -22.8717 -22.6621 -22.3480 -22.2720
   -22.0102 -21.8682 -21.8452 -21.7436 -21.6277 -21.5586 -21.5419 -21.3266
   -21.1531 -21.1059 -21.0626 -21.0112 -20.9555 -20.8982 -20.4339 -20.3630
   -20.2984 -18.8783 -18.5973 -18.5243 -18.5043 -18.2909 -18.2830 -18.2623
   -18.2540 -18.2470 -18.2047 -18.0442 -18.0304 -16.8211 -16.6133 -16.4934
     2.7024   3.9277   4.2250   4.4616   4.6068   4.8257   4.8418   4.9452
     5.0337   5.2292   5.2491   5.4660   5.5984   5.8092   5.9085   5.9973
     6.0814   6.0985   6.3459   6.3476   6.4227   6.5675   6.6145   6.6407
     6.7071   6.8613   6.8944   7.0087   7.0474   7.0546   7.0759   7.1150
     7.2330   7.4581   7.4708   7.5630   7.5758   7.6167   7.6574   7.6941
     7.8737   7.9052   7.9327   8.0292   8.1794   8.2806   8.3166   8.3318
     8.4573   8.5184   8.6027   8.6178   8.6321   8.8290   8.8546   8.8570
     8.9144   8.9597   9.1873   9.2622   9.3627   9.3828   9.5708   9.6158
     9.6389   9.6444   9.6715   9.6872   9.7390   9.8871  10.0106  10.0887
    10.1450  10.2455  10.3742  10.4208  10.4283  10.5556  10.5777

 ------ SPIN DOWN ----------


          k = 0.0000 0.0000 0.0000 ( 55051 PWs)   bands (ev):

   -59.4835 -59.4798 -59.4383 -59.4347 -59.4057 -59.4005 -59.3619 -59.3568
   -59.2283 -58.7534 -53.0942 -53.0368 -52.9703 -52.9134 -51.3633 -44.9042
   -44.9020 -40.3143 -40.3057 -40.2146 -40.2082 -38.4706 -26.4833 -26.4776
   -26.3991 -26.3900 -26.3025 -26.2980 -26.1788 -26.1703 -26.0539 -26.0254
   -25.9891 -25.9612 -25.9549 -25.9271 -25.9169 -25.8666 -25.8568 -25.8351
   -25.7976 -25.6685 -25.6652 -25.6536 -25.6453 -25.5916 -25.5879 -25.5693
   -25.5660 -25.5005 -25.4759 -25.4281 -22.8714 -22.6617 -22.3480 -22.2719
   -22.0099 -21.8679 -21.8450 -21.7434 -21.6274 -21.5583 -21.5416 -21.3262
   -21.1529 -21.1057 -21.0625 -21.0110 -20.9551 -20.8979 -20.4340 -20.3630
   -20.2984 -18.8766 -18.6004 -18.5223 -18.5029 -18.2913 -18.2834 -18.2633
   -18.2551 -18.2478 -18.2064 -18.0423 -18.0328 -16.8212 -16.6129 -16.4931
     2.7028   3.9277   4.2249   4.4619   4.6081   4.8256   4.8416   4.9451
     5.0346   5.2293   5.2488   5.4661   5.5984   5.8096   5.9088   5.9973
     6.0817   6.0983   6.3459   6.3476   6.4226   6.5676   6.6138   6.6409
     6.7071   6.8612   6.8949   7.0085   7.0471   7.0548   7.0757   7.1158
     7.2324   7.4580   7.4709   7.5626   7.5761   7.6169   7.6575   7.6945
     7.8736   7.9047   7.9324   8.0288   8.1795   8.2815   8.3168   8.3303
     8.4575   8.5186   8.6021   8.6177   8.6320   8.8293   8.8542   8.8568
     8.9137   8.9596   9.1875   9.2628   9.3626   9.3824   9.5708   9.6156
     9.6387   9.6447   9.6713   9.6876   9.7395   9.8871  10.0101  10.0885
    10.1449  10.2450  10.3732  10.4206  10.4276  10.5558  10.5775

     the Fermi energy is     8.5676 ev

!    total energy              =   -2943.00591118 Ry
     estimated scf accuracy    <       0.00075727 Ry
     smearing contrib. (-TS)   =      -0.10128077 Ry
     internal energy E=F+TS    =   -2942.90463041 Ry

     total magnetization       =    -0.00 Bohr mag/cell
     absolute magnetization    =     0.05 Bohr mag/cell

     convergence has been achieved in  12 iterations

     negative rho (up, down):  9.078E-01 9.078E-01

     Forces acting on atoms (cartesian axes, Ry/au):

     atom    1 type  1   force =    -0.00995053   -0.02772771    0.01245311
     atom    2 type  1   force =    -0.12221735   -0.01735409   -0.00125435
     atom    3 type  1   force =    -0.12040823    0.01387524    0.00187895
     atom    4 type  1   force =     0.12307570   -0.01857750   -0.00274443
     atom    5 type  1   force =     0.12142901    0.01557916    0.00278265
     atom    6 type  2   force =    -0.00914113   -0.01722345    0.00423305
     atom    7 type  2   force =    -0.00921555    0.01536975   -0.00285352
     atom    8 type  3   force =    -0.13943856    0.00405641   -0.00409819
     atom    9 type  3   force =    -0.09496072    0.00330600   -0.00497508
     atom   10 type  3   force =    -0.02482911   -0.03034666   -0.05850174
     atom   11 type  3   force =    -0.02310057   -0.03636282    0.05595841
     atom   12 type  3   force =    -0.01901730    0.03514314   -0.05485305
     atom   13 type  3   force =    -0.02060764    0.02970272    0.05922167
     atom   14 type  3   force =     0.02664497   -0.03080185   -0.05665088
     atom   15 type  3   force =     0.02428627   -0.03365624    0.05270489
     atom   16 type  3   force =     0.02028440    0.03386744   -0.05130476
     atom   17 type  3   force =     0.02181169    0.02950423    0.05719784
     atom   18 type  4   force =    -0.01046415    0.02672334   -0.01527948
     atom   19 type  4   force =    -0.13618181   -0.00300895   -0.11377452
     atom   20 type  4   force =    -0.13914613    0.00590371    0.11678627
     atom   21 type  4   force =     0.13681088   -0.00424395   -0.11854024
     atom   22 type  4   force =     0.13975388    0.00650100    0.12071221
     atom   23 type  5   force =     0.26458199   -0.00022893    0.00090119
     The non-local contrib.  to forces
     atom    1 type  1   force =    -0.00675449   -0.01886951    0.03411562
     atom    2 type  1   force =    -0.24409374   -0.16487278    0.01850715
     atom    3 type  1   force =    -0.23841924    0.15930001   -0.02827194
     atom    4 type  1   force =     0.25825736   -0.16087197    0.01684928
     atom    5 type  1   force =     0.25284602    0.15551885   -0.02766157
     atom    6 type  2   force =    -0.00888286   -0.06007829   -0.07087519
     atom    7 type  2   force =    -0.01015348    0.07133083    0.06359089
     atom    8 type  3   force =    -0.26933141    0.00049679   -0.00505183
     atom    9 type  3   force =    -0.06100994    0.00127706   -0.00673915
     atom   10 type  3   force =    -0.21831640    0.00679081   -0.21141258
     atom   11 type  3   force =    -0.22265043    0.00785719    0.20098630
     atom   12 type  3   force =    -0.20421070   -0.02125848   -0.18523873
     atom   13 type  3   force =    -0.21417872   -0.00669681    0.21061924
     atom   14 type  3   force =     0.21997153    0.00358895   -0.21299995
     atom   15 type  3   force =     0.22447193    0.00884056    0.20163100
     atom   16 type  3   force =     0.20529947   -0.02032296   -0.18586430
     atom   17 type  3   force =     0.21457126   -0.00442246    0.21232418
     atom   18 type  4   force =    -0.01079249    0.06662407   -0.06878629
     atom   19 type  4   force =     0.06952316    0.00823401    0.06518363
     atom   20 type  4   force =     0.06452744   -0.00966863   -0.05926281
     atom   21 type  4   force =    -0.06653092    0.00769741    0.06774733
     atom   22 type  4   force =    -0.06204638   -0.00949116   -0.06212926
     atom   23 type  5   force =    -0.10039927    0.00003843    0.00007306
     The ionic contribution  to forces
     atom    1 type  1   force =    -0.24768728   -4.75281381   14.44854351
     atom    2 type  1   force =   -34.49625394   -6.24608621    0.77897172
     atom    3 type  1   force =   -34.47877231    6.23232259   -0.71247644
     atom    4 type  1   force =    34.30682273   -6.48352303    0.77770459
     atom    5 type  1   force =    34.28833849    6.47031599   -0.71100486
     atom    6 type  2   force =    -0.26169896   -3.72140580  -14.38243299
     atom    7 type  2   force =    -0.26172725    3.75740632   14.41618489
     atom    8 type  3   force =   -46.17661811    0.07250906   -0.06585871
     atom    9 type  3   force =    43.13987372    0.07433966   -0.06794179
     atom   10 type  3   force =   -31.09913046   -2.14726556  -23.64568899
     atom   11 type  3   force =   -30.16771256   -0.89464002   22.64765206
     atom   12 type  3   force =   -30.28327514    0.84284555  -22.69590239
     atom   13 type  3   force =   -31.07556260    2.23383566   23.62832406
     atom   14 type  3   force =    31.02319869   -2.20609484  -23.71967923
     atom   15 type  3   force =    30.09267973   -0.95295237   22.72122415
     atom   16 type  3   force =    30.20842294    0.90077631  -22.76910157
     atom   17 type  3   force =    30.99958542    2.29266377   23.70231771
     atom   18 type  4   force =    -0.24473043    4.51989144  -14.30817241
     atom   19 type  4   force =   -31.10349444    0.96129748  -26.14177245
     atom   20 type  4   force =   -31.07500870   -0.95698037   26.12018806
     atom   21 type  4   force =    30.92883452    0.95976936  -26.39908372
     atom   22 type  4   force =    30.90171665   -0.95578085   26.37685893
     atom   23 type  5   force =     5.08219928   -0.00043034    0.00114588
     The local contribution  to forces
     atom    1 type  1   force =     0.23865289    4.74152632  -14.47769677
     atom    2 type  1   force =    34.62590484    6.39124841   -0.79851957
     atom    3 type  1   force =    34.60595647   -6.37907793    0.74147965
     atom    4 type  1   force =   -34.45101056    6.61824977   -0.79761715
     atom    5 type  1   force =   -34.43039282   -6.60599229    0.73959410
     atom    6 type  2   force =     0.25390939    3.77002014   14.47040409
     atom    7 type  2   force =     0.25463231   -3.81667976  -14.49495341
     atom    8 type  3   force =    46.31974315   -0.06568849    0.06251975
     atom    9 type  3   force =   -43.16813072   -0.06929175    0.06586642
     atom   10 type  3   force =    31.30656781    2.09478393   23.81738048
     atom   11 type  3   force =    30.38820426    0.83651040  -22.81563055
     atom   12 type  3   force =    30.48882940   -0.77762442   22.84294335
     atom   13 type  3   force =    31.28543567   -2.18654461  -23.79612054
     atom   14 type  3   force =   -31.23071867    2.15175060   23.89236242
     atom   15 type  3   force =   -30.31486213    0.89627812  -22.89080122
     atom   16 type  3   force =   -30.41437443   -0.83214468   22.91814361
     atom   17 type  3   force =   -31.21156496   -2.24515194  -23.87149137
     atom   18 type  4   force =     0.23772880   -4.56005423   14.36779825
     atom   19 type  4   force =    30.90062314   -0.96696516   25.97428942
     atom   20 type  4   force =    30.87620092    0.97437556  -25.95154341
     atom   21 type  4   force =   -30.73078843   -0.96704611   26.21848085
     atom   22 type  4   force =   -30.70626482    0.97160030  -26.19670049
     atom   23 type  5   force =    -4.71589711    0.00023911   -0.00059814
     The core correction contribution to forces
     atom    1 type  1   force =     0.00101029    0.00303701   -0.00146912
     atom    2 type  1   force =    -0.01187389   -0.00152842    0.00089119
     atom    3 type  1   force =    -0.01209845    0.00233886   -0.00160463
     atom    4 type  1   force =     0.01232485   -0.00168998    0.00095563
     atom    5 type  1   force =     0.01241218    0.00249890   -0.00180161
     atom    6 type  2   force =     0.00026020    0.00266504    0.00271152
     atom    7 type  2   force =     0.00031719   -0.00324334   -0.00218326
     atom    8 type  3   force =    -0.03115632    0.00037196   -0.00058791
     atom    9 type  3   force =     0.00142157    0.00006569   -0.00046752
     atom   10 type  3   force =    -0.02220206    0.00881925   -0.01636184
     atom   11 type  3   force =    -0.02401070    0.00919111    0.01719980
     atom   12 type  3   force =    -0.02224162   -0.00912840   -0.01594391
     atom   13 type  3   force =    -0.02213579   -0.00835704    0.01690049
     atom   14 type  3   force =     0.02338999    0.00983193   -0.01468303
     atom   15 type  3   force =     0.02474635    0.01089477    0.01535657
     atom   16 type  3   force =     0.02291985   -0.01083256   -0.01398269
     atom   17 type  3   force =     0.02308354   -0.00951815    0.01513591
     atom   18 type  4   force =     0.00043112   -0.00358230    0.00332020
     atom   19 type  4   force =    -0.01027463    0.00016727   -0.00903091
     atom   20 type  4   force =    -0.01010328    0.00013478    0.00889187
     atom   21 type  4   force =     0.01034405    0.00019248   -0.00915716
     atom   22 type  4   force =     0.01019213    0.00011228    0.00901458
     atom   23 type  5   force =     0.00000000    0.00000000    0.00000000
     The Hubbard contrib.    to forces
     atom    1 type  1   force =     0.00000000    0.00000000    0.00000000
     atom    2 type  1   force =     0.00000000    0.00000000    0.00000000
     atom    3 type  1   force =     0.00000000    0.00000000    0.00000000
     atom    4 type  1   force =     0.00000000    0.00000000    0.00000000
     atom    5 type  1   force =     0.00000000    0.00000000    0.00000000
     atom    6 type  2   force =     0.00000000    0.00000000    0.00000000
     atom    7 type  2   force =     0.00000000    0.00000000    0.00000000
     atom    8 type  3   force =     0.00000000    0.00000000    0.00000000
     atom    9 type  3   force =     0.00000000    0.00000000    0.00000000
     atom   10 type  3   force =     0.00000000    0.00000000    0.00000000
     atom   11 type  3   force =     0.00000000    0.00000000    0.00000000
     atom   12 type  3   force =     0.00000000    0.00000000    0.00000000
     atom   13 type  3   force =     0.00000000    0.00000000    0.00000000
     atom   14 type  3   force =     0.00000000    0.00000000    0.00000000
     atom   15 type  3   force =     0.00000000    0.00000000    0.00000000
     atom   16 type  3   force =     0.00000000    0.00000000    0.00000000
     atom   17 type  3   force =     0.00000000    0.00000000    0.00000000
     atom   18 type  4   force =     0.00000000    0.00000000    0.00000000
     atom   19 type  4   force =     0.00000000    0.00000000    0.00000000
     atom   20 type  4   force =     0.00000000    0.00000000    0.00000000
     atom   21 type  4   force =     0.00000000    0.00000000    0.00000000
     atom   22 type  4   force =     0.00000000    0.00000000    0.00000000
     atom   23 type  5   force =     0.00000000    0.00000000    0.00000000
     The SCF correction term to forces
     atom    1 type  1   force =     0.00000000   -0.00000000    0.00000000
     atom    2 type  1   force =     0.00000000    0.00000000   -0.00000000
     atom    3 type  1   force =     0.00000000   -0.00000000    0.00000000
     atom    4 type  1   force =    -0.00000000    0.00000000   -0.00000000
     atom    5 type  1   force =    -0.00000000   -0.00000000    0.00000000
     atom    6 type  2   force =     0.00000000   -0.00000000   -0.00000000
     atom    7 type  2   force =     0.00000000    0.00000000    0.00000000
     atom    8 type  3   force =     0.00000000   -0.00000000    0.00000000
     atom    9 type  3   force =    -0.00000000   -0.00000000    0.00000000
     atom   10 type  3   force =     0.00000000    0.00000000   -0.00000000
     atom   11 type  3   force =     0.00000000    0.00000000    0.00000000
     atom   12 type  3   force =     0.00000000    0.00000000   -0.00000000
     atom   13 type  3   force =     0.00000000   -0.00000000   -0.00000000
     atom   14 type  3   force =    -0.00945294    0.01005650   -0.00171516
     atom   15 type  3   force =    -0.00300598    0.00321766    0.00523031
     atom   16 type  3   force =    -0.00223979   -0.00367369   -0.00056388
     atom   17 type  3   force =    -0.00411993   -0.00413201   -0.00115267
     atom   18 type  4   force =     0.00664249    0.00377935   -0.00950330
     atom   19 type  4   force =     0.00718460   -0.00580757   -0.00250828
     atom   20 type  4   force =     0.00498113   -0.00202264   -0.00155151
     atom   21 type  4   force =    -0.00530471   -0.00492211    0.00340837
     atom   22 type  4   force =    -0.00410008   -0.00000459   -0.00639562
     atom   23 type  5   force =    -0.00157727   -0.00014115    0.00021631

     Total force =     0.469793     Total SCF correction =     0.026274

     Molecular Dynamics Calculation

     Starting temperature  =   300.00 K

     temperature is set once at start

     mass Hf               =   178.49
     mass Nb               =    92.91
     mass Ta               =   180.95
     mass Zr               =    91.22
     mass H                =     2.01
     Time step             =     2.10 a.u.,  0.1016 femto-seconds

     Entering Dynamics:    iteration =     1
                           time      =   0.0001 pico-seconds


ATOMIC_POSITIONS (angstrom)
Hf            2.6699999570        2.8271230292        6.6039642186    0   0   0
Hf            1.2529906802        1.2862841814        5.0584662261    0   0   0
Hf            1.2554868986        7.3898042948        5.0880677674    0   0   0
Hf            4.0870092338        1.2862841814        5.0584662261    0   0   0
Hf            4.0845130154        7.3898042948        5.0880677674    0   0   0
Nb            2.6699999570        2.7969306055        3.5155832167    0   0   0
Nb            2.6699999570        5.8763786763        6.6349979432    0   0   0
Ta            1.2093730560        4.3409278516        5.0711258323    0   0   0
Ta            4.1306268580        4.3409278516        5.0711258323    0   0   0
Ta            1.3072526841        1.3141225894        2.0587791101    0   0   0
Ta            1.3027883142        1.3083911360        8.0945792024    0   0   0
Ta            1.3040096221        7.3758261241        2.0462371798    0   0   0
Ta            1.3077107984        7.3650829484        8.0860022208    0   0   0
Ta            4.0327474184        1.3141223715        2.0587787093
Ta            4.0372117716        1.3083908979        8.0945795753
Ta            4.0359904354        7.3758263637        2.0462368168
Ta            4.0322892699        7.3650831571        8.0860026255
Zr            2.6699998101        5.8662862184        3.5273837160
Zr            1.2438327079        4.3220779223        1.9999984033
Zr            1.2403834600        4.3541233674        8.1497571882
Zr            4.0961672150        4.3220779049        1.9999983364
Zr            4.0996164626        4.3541233757        8.1497572433
H             5.4735611449        4.3399998047        5.0721803676


     kinetic energy (Ekin) =          18.37431130 Ry
     temperature           =      193404.95351811 K 
     Ekin + Etot (const)   =       -2924.63159988 Ry

     File outdir/pwscf.msd.dat deleted, as requested

     Writing config-only to output data dir outdir/pwscf.save/
     NEW-OLD atomic charge density approx. for the potential

     Check: negative core charge=   -0.000002

     negative rho (up, down):  9.076E-01 9.076E-01
     Generating pointlists ...
     new r_m :   0.0664 (alat units)  1.0468 (a.u.) for type    3
     new r_m :   0.0664 (alat units)  1.0468 (a.u.) for type    5

     total cpu time spent up to now is      583.2 secs

     Self-consistent Calculation

     iteration #  1     ecut=   120.00 Ry     beta= 0.70
     Davidson diagonalization with overlap
     ethr =  1.00E-06,  avg # of iterations =  6.0

     negative rho (up, down):  9.078E-01 9.078E-01

     total cpu time spent up to now is      667.5 secs

     total energy              =   -2942.88614005 Ry
     estimated scf accuracy    <       0.03704568 Ry

     total magnetization       =    -0.00 Bohr mag/cell
     absolute magnetization    =     0.04 Bohr mag/cell

     iteration #  2     ecut=   120.00 Ry     beta= 0.70
     Davidson diagonalization with overlap
