
     Program PWSCF v.7.2 starts on 14Jun2023 at 21:11: 3 

     This program is part of the open-source Quantum ESPRESSO suite
     for quantum simulation of materials; please cite
         "P. Giannozzi et al., J. Phys.:Condens. Matter 21 395502 (2009);
         "P. Giannozzi et al., J. Phys.:Condens. Matter 29 465901 (2017);
         "P. Giannozzi et al., J. Chem. Phys. 152 154105 (2020);
          URL http://www.quantum-espresso.org", 
     in publications or presentations arising from this work. More details at
     http://www.quantum-espresso.org/quote

     Parallel version (MPI), running on    42 processors

     MPI processes distributed on     1 nodes
     175845 MiB available memory on the printing compute node when the environment starts

     Reading input from md_data/md_Hf5Nb2Ta10Zr5H_20steps_200eV_incident30_polar0.in
Warning: card &CELL ignored
Warning: card / ignored

     Current dimensions of program PWSCF are:
     Max number of different atomic species (ntypx) = 10
     Max number of k-points (npk) =  40000
     Max angular momentum in pseudopotentials (lmaxx) =  4

     File outdir/pwscf.md deleted, as requested

     gamma-point specific algorithms are used

     R & G space division:  proc/nbgrp/npool/nimage =      42
     Subspace diagonalization in iterative solution of the eigenvalue problem:
     one sub-group per band group will be used
     custom distributed-memory algorithm (size of sub-group:  2*  2 procs)


     Parallelization info
     --------------------
     sticks:   dense  smooth     PW     G-vecs:    dense   smooth      PW
     Min         262     262     63                23470    23470    2920
     Max         265     265     66                23484    23484    2942
     Sum       11057   11057   2753               986005   986005  123175

     Using Slab Decomposition



     bravais-lattice index     =            0
     lattice parameter (alat)  =      17.6500  a.u.
     unit-cell volume          =    5552.8853 (a.u.)^3
     number of atoms/cell      =           23
     number of atomic types    =            5
     number of electrons       =       277.00
     number of Kohn-Sham states=          167
     kinetic-energy cutoff     =     120.0000  Ry
     charge density cutoff     =     480.0000  Ry
     scf convergence threshold =      1.0E-03
     mixing beta               =       0.7000
     number of iterations used =            8  TF        mixing
     energy convergence thresh.=      0.0E+00
     force convergence thresh. =      0.0E+00
     Exchange-correlation=  SLA  PW   PBX  PBC
                           (   1   4   3   4   0   0   0)
     nstep                     =           20


     celldm(1)=  17.650041  celldm(2)=   0.000000  celldm(3)=   0.000000
     celldm(4)=   0.000000  celldm(5)=   0.000000  celldm(6)=   0.000000

     crystal axes: (cart. coord. in units of alat)
               a(1) = (   1.000000   0.000000   0.000000 )  
               a(2) = (   0.000000   0.929336   0.000000 )  
               a(3) = (   0.000000   0.000000   1.086698 )  

     reciprocal axes: (cart. coord. in units 2 pi/alat)
               b(1) = (  1.000000  0.000000  0.000000 )  
               b(2) = (  0.000000  1.076037  0.000000 )  
               b(3) = (  0.000000  0.000000  0.920219 )  


     PseudoPot. # 1 for Hf read from file:
     q-e/pseudo/hf_pbe_v1.uspp.F.UPF
     MD5 check sum: 8ee9378dfe14276e333edf04c5e4aa26
     Pseudo is Ultrasoft + core correction, Zval = 12.0
     Generated by new atomic code, or converted to UPF format
     Using radial grid of  921 points,  8 beta functions with: 
                l(1) =   0
                l(2) =   0
                l(3) =   0
                l(4) =   1
                l(5) =   1
                l(6) =   2
                l(7) =   2
                l(8) =   3
     Q(r) pseudized with  6 coefficients,  rinner =    1.200   1.200   1.200
                                                       1.200   1.200   1.200
                                                       1.200

     PseudoPot. # 2 for Nb read from file:
     q-e/pseudo/nb_pbe_v1.uspp.F.UPF
     MD5 check sum: 573aab8a2fa660278ed4a62cd769473f
     Pseudo is Ultrasoft + core correction, Zval = 13.0
     Generated by new atomic code, or converted to UPF format
     Using radial grid of  887 points,  6 beta functions with: 
                l(1) =   0
                l(2) =   0
                l(3) =   1
                l(4) =   1
                l(5) =   2
                l(6) =   2
     Q(r) pseudized with  6 coefficients,  rinner =    1.000   1.000   1.000
                                                       1.000   1.000

     PseudoPot. # 3 for Ta read from file:
     q-e/pseudo/ta_pbe_v1.uspp.F.UPF
     MD5 check sum: f8bbe9446314a3b8ea5d9f3e3836c939
     Pseudo is Ultrasoft + core correction, Zval = 13.0
     Generated by new atomic code, or converted to UPF format
     Using radial grid of  921 points,  7 beta functions with: 
                l(1) =   0
                l(2) =   0
                l(3) =   1
                l(4) =   1
                l(5) =   2
                l(6) =   2
                l(7) =   3
     Q(r) pseudized with  6 coefficients,  rinner =    1.300   1.300   1.300
                                                       1.300   1.300   1.300
                                                       1.300

     PseudoPot. # 4 for Zr read from file:
     q-e/pseudo/zr_pbe_v1.uspp.F.UPF
     MD5 check sum: 5db81b1e868ab7776c4564c113de050b
     Pseudo is Ultrasoft + core correction, Zval = 12.0
     Generated by new atomic code, or converted to UPF format
     Using radial grid of  887 points,  6 beta functions with: 
                l(1) =   0
                l(2) =   0
                l(3) =   1
                l(4) =   1
                l(5) =   2
                l(6) =   2
     Q(r) pseudized with  6 coefficients,  rinner =    1.200   1.200   1.200
                                                       1.200   1.200

     PseudoPot. # 5 for H  read from file:
     q-e/pseudo/h_pbe_v1.4.uspp.F.UPF
     MD5 check sum: 761ae9a214b05c3daf00ab9f6b793d6f
     Pseudo is Ultrasoft, Zval =  1.0
     Generated by new atomic code, or converted to UPF format
     Using radial grid of  615 points,  2 beta functions with: 
                l(1) =   0
                l(2) =   0
     Q(r) pseudized with  8 coefficients,  rinner =    0.700

     atomic species   valence    mass     pseudopotential
        Hf            12.00   178.49000     Hf( 1.00)
        Nb            13.00    92.90637     Nb( 1.00)
        Ta            13.00   180.94788     Ta( 1.00)
        Zr            12.00    91.22400     Zr( 1.00)
        H              1.00     2.01400     H ( 1.00)

     Starting magnetic structure 
     atomic species   magnetization
        Hf           0.000
        Nb           0.000
        Ta           0.000
        Zr           0.000
        H            0.000

     No symmetry found



   Cartesian axes

     site n.     atom                  positions (alat units)
         1           Hf  tau(   1) = (   0.2858672   0.3026898   0.7070626  )
         2           Hf  tau(   2) = (   0.1341532   0.1377178   0.5415917  )
         3           Hf  tau(   3) = (   0.1344204   0.7911996   0.5447610  )
         4           Hf  tau(   4) = (   0.4375813   0.1377178   0.5415917  )
         5           Hf  tau(   5) = (   0.4373140   0.7911996   0.5447610  )
         6           Nb  tau(   6) = (   0.2858672   0.2994572   0.3764008  )
         7           Nb  tau(   7) = (   0.2858672   0.6291626   0.7103852  )
         8           Ta  tau(   8) = (   0.1294832   0.4647675   0.5429471  )
         9           Ta  tau(   9) = (   0.4422513   0.4647675   0.5429471  )
        10           Ta  tau(  10) = (   0.1399628   0.1406984   0.2204260  )
        11           Ta  tau(  11) = (   0.1394848   0.1400847   0.8666573  )
        12           Ta  tau(  12) = (   0.1396156   0.7897030   0.2190832  )
        13           Ta  tau(  13) = (   0.1400119   0.7885528   0.8657390  )
        14           Ta  tau(  14) = (   0.4317717   0.1406984   0.2204260  )
        15           Ta  tau(  15) = (   0.4322496   0.1400847   0.8666573  )
        16           Ta  tau(  16) = (   0.4321189   0.7897030   0.2190832  )
        17           Ta  tau(  17) = (   0.4317226   0.7885528   0.8657390  )
        18           Zr  tau(  18) = (   0.2858672   0.6280820   0.3776642  )
        19           Zr  tau(  19) = (   0.1331729   0.4627493   0.2141328  )
        20           Zr  tau(  20) = (   0.1328036   0.4661802   0.8725649  )
        21           Zr  tau(  21) = (   0.4385616   0.4627493   0.2141328  )
        22           Zr  tau(  22) = (   0.4389309   0.4661802   0.8725649  )
        23           H   tau(  23) = (   0.6276957   0.5717345   0.5430600  )

     number of k points=     1  Gaussian smearing, width (Ry)=  0.0220
                       cart. coord. in units 2pi/alat
        k(    1) = (   0.0000000   0.0000000   0.0000000), wk =   1.0000000

     Dense  grid:   493003 G-vectors     FFT dimensions: ( 125, 120, 135)

     Estimated max dynamical RAM per process >     133.03 MB

     Estimated total dynamical RAM >       5.46 GB

     Check: negative core charge=   -0.000002
     Generating pointlists ...
     new r_m :   0.1117 (alat units)  1.9717 (a.u.) for type    1
     new r_m :   0.1098 (alat units)  1.9374 (a.u.) for type    2
     new r_m :   0.0883 (alat units)  1.5587 (a.u.) for type    3
     new r_m :   0.1112 (alat units)  1.9625 (a.u.) for type    4
     new r_m :   0.0883 (alat units)  1.5587 (a.u.) for type    5

     Initial potential from superposition of free atoms

     starting charge     266.9726, renormalised to     277.0000

     negative rho (up, down):  9.217E-01 9.217E-01
     Starting wfcs are  287 randomized atomic wfcs

     total cpu time spent up to now is       12.6 secs

     Self-consistent Calculation

     iteration #  1     ecut=   120.00 Ry     beta= 0.70
     Davidson diagonalization with overlap
     ethr =  1.00E-02,  avg # of iterations =  2.0

     negative rho (up, down):  9.951E-01 9.947E-01

     total cpu time spent up to now is       33.1 secs

     total energy              =   -2930.50861721 Ry
     estimated scf accuracy    <     277.28314626 Ry

     total magnetization       =    -0.00 Bohr mag/cell
     absolute magnetization    =     0.09 Bohr mag/cell

     iteration #  2     ecut=   120.00 Ry     beta= 0.70
     Davidson diagonalization with overlap
     ethr =  1.00E-02,  avg # of iterations =  5.0

     negative rho (up, down):  9.686E-01 9.694E-01

     total cpu time spent up to now is       54.9 secs

     total energy              =   -2942.29589071 Ry
     estimated scf accuracy    <      29.65710615 Ry

     total magnetization       =    -0.07 Bohr mag/cell
     absolute magnetization    =     0.27 Bohr mag/cell

     iteration #  3     ecut=   120.00 Ry     beta= 0.70
     Davidson diagonalization with overlap
     ethr =  1.00E-02,  avg # of iterations =  2.0

     negative rho (up, down):  1.005E+00 1.009E+00

     total cpu time spent up to now is       74.0 secs

     total energy              =   -2942.66763266 Ry
     estimated scf accuracy    <      13.01451827 Ry

     total magnetization       =    -0.03 Bohr mag/cell
     absolute magnetization    =     0.33 Bohr mag/cell

     iteration #  4     ecut=   120.00 Ry     beta= 0.70
     Davidson diagonalization with overlap
     ethr =  4.70E-03,  avg # of iterations =  3.0

     negative rho (up, down):  1.012E+00 1.018E+00

     total cpu time spent up to now is      108.3 secs

     total energy              =   -2942.93014976 Ry
     estimated scf accuracy    <       3.22406693 Ry

     total magnetization       =    -0.08 Bohr mag/cell
     absolute magnetization    =     0.37 Bohr mag/cell

     iteration #  5     ecut=   120.00 Ry     beta= 0.70
     Davidson diagonalization with overlap
     ethr =  1.16E-03,  avg # of iterations =  7.0

     negative rho (up, down):  9.857E-01 9.898E-01

     total cpu time spent up to now is      155.2 secs

     total energy              =   -2943.06247752 Ry
     estimated scf accuracy    <       1.55835535 Ry

     total magnetization       =    -0.04 Bohr mag/cell
     absolute magnetization    =     0.25 Bohr mag/cell

     iteration #  6     ecut=   120.00 Ry     beta= 0.70
     Davidson diagonalization with overlap
     ethr =  5.63E-04,  avg # of iterations =  2.0

     negative rho (up, down):  9.743E-01 9.771E-01

     total cpu time spent up to now is      174.3 secs

     total energy              =   -2943.11478666 Ry
     estimated scf accuracy    <       1.22629439 Ry

     total magnetization       =    -0.05 Bohr mag/cell
     absolute magnetization    =     0.20 Bohr mag/cell

     iteration #  7     ecut=   120.00 Ry     beta= 0.70
     Davidson diagonalization with overlap
     ethr =  4.43E-04,  avg # of iterations =  1.0

     negative rho (up, down):  9.495E-01 9.507E-01

     total cpu time spent up to now is      190.2 secs

     total energy              =   -2943.05848270 Ry
     estimated scf accuracy    <       0.45001929 Ry

     total magnetization       =    -0.05 Bohr mag/cell
     absolute magnetization    =     0.18 Bohr mag/cell

     iteration #  8     ecut=   120.00 Ry     beta= 0.70
     Davidson diagonalization with overlap
     ethr =  1.62E-04,  avg # of iterations =  4.5

     negative rho (up, down):  9.219E-01 9.219E-01

     total cpu time spent up to now is      209.3 secs

     total energy              =   -2943.06270963 Ry
     estimated scf accuracy    <       0.23185216 Ry

     total magnetization       =    -0.05 Bohr mag/cell
     absolute magnetization    =     0.16 Bohr mag/cell

     iteration #  9     ecut=   120.00 Ry     beta= 0.70
     Davidson diagonalization with overlap
     ethr =  8.37E-05,  avg # of iterations = 11.0

     negative rho (up, down):  9.086E-01 9.085E-01

     total cpu time spent up to now is      228.7 secs

     total energy              =   -2943.05846977 Ry
     estimated scf accuracy    <       0.06337703 Ry

     total magnetization       =    -0.05 Bohr mag/cell
     absolute magnetization    =     0.12 Bohr mag/cell

     iteration # 10     ecut=   120.00 Ry     beta= 0.70
     Davidson diagonalization with overlap
     ethr =  2.29E-05,  avg # of iterations = 14.5

     negative rho (up, down):  9.083E-01 9.083E-01

     total cpu time spent up to now is      266.0 secs

     total energy              =   -2943.06344273 Ry
     estimated scf accuracy    <       0.03599163 Ry

     total magnetization       =    -0.05 Bohr mag/cell
     absolute magnetization    =     0.09 Bohr mag/cell

     iteration # 11     ecut=   120.00 Ry     beta= 0.70
     Davidson diagonalization with overlap
     ethr =  1.30E-05,  avg # of iterations =  2.0

     negative rho (up, down):  9.092E-01 9.092E-01

     total cpu time spent up to now is      302.7 secs

     total energy              =   -2943.06696934 Ry
     estimated scf accuracy    <       0.01085444 Ry

     total magnetization       =    -0.05 Bohr mag/cell
     absolute magnetization    =     0.08 Bohr mag/cell

     iteration # 12     ecut=   120.00 Ry     beta= 0.70
     Davidson diagonalization with overlap
     ethr =  3.92E-06,  avg # of iterations = 14.0

     negative rho (up, down):  9.093E-01 9.093E-01

     total cpu time spent up to now is      332.7 secs

     total energy              =   -2943.06991371 Ry
     estimated scf accuracy    <       0.00174807 Ry

     total magnetization       =    -0.05 Bohr mag/cell
     absolute magnetization    =     0.07 Bohr mag/cell

     iteration # 13     ecut=   120.00 Ry     beta= 0.70
     Davidson diagonalization with overlap
     ethr =  6.31E-07,  avg # of iterations =  5.0

     negative rho (up, down):  9.090E-01 9.090E-01

     Magnetic moment per site  (integrated on atomic sphere of radius R)
     atom   1 (R=0.112)  charge=  9.4614    0.0000
     atom   2 (R=0.112)  charge=  9.0592   -0.0003
     atom   3 (R=0.112)  charge=  9.0580   -0.0002
     atom   4 (R=0.112)  charge=  9.0577   -0.0001
     atom   5 (R=0.112)  charge=  9.0465   -0.0003
     atom   6 (R=0.110)  charge= 10.3477    0.0000
     atom   7 (R=0.110)  charge= 10.3473   -0.0004
     atom   8 (R=0.088)  charge=  8.1237    0.0001
     atom   9 (R=0.088)  charge=  8.1140   -0.0002
     atom  10 (R=0.088)  charge=  8.1046   -0.0017
     atom  11 (R=0.088)  charge=  8.1011   -0.0007
     atom  12 (R=0.088)  charge=  8.1046   -0.0008
     atom  13 (R=0.088)  charge=  8.1038   -0.0002
     atom  14 (R=0.088)  charge=  8.1041   -0.0012
     atom  15 (R=0.088)  charge=  8.0995   -0.0008
     atom  16 (R=0.088)  charge=  8.1058   -0.0022
     atom  17 (R=0.088)  charge=  8.1054   -0.0008
     atom  18 (R=0.111)  charge=  9.4533    0.0002
     atom  19 (R=0.111)  charge=  9.0036   -0.0013
     atom  20 (R=0.111)  charge=  8.9963   -0.0001
     atom  21 (R=0.111)  charge=  9.0062   -0.0013
     atom  22 (R=0.111)  charge=  8.9959    0.0000
     atom  23 (R=0.088)  charge=  0.9803   -0.0000

     total cpu time spent up to now is      353.0 secs

     End of self-consistent calculation

 ------ SPIN UP ------------


          k = 0.0000 0.0000 0.0000 ( 61588 PWs)   bands (ev):

   -60.7978 -60.7882 -60.7529 -60.7429 -60.7169 -60.7086 -60.6731 -60.6649
   -60.5406 -60.4047 -54.3967 -54.3505 -54.2699 -54.2243 -52.7171 -46.2784
   -46.2680 -41.6748 -41.6468 -41.5721 -41.5601 -39.8135 -27.7979 -27.7884
   -27.7141 -27.6998 -27.6102 -27.6042 -27.4823 -27.4729 -27.3867 -27.3475
   -27.3156 -27.2847 -27.2710 -27.2500 -27.2368 -27.1866 -27.1755 -27.1586
   -27.1135 -27.0734 -27.0178 -26.9753 -26.9682 -26.9595 -26.9536 -26.9087
   -26.8995 -26.8956 -26.8713 -26.8669 -24.1837 -23.9700 -23.6733 -23.5789
   -23.3270 -23.1939 -23.1682 -23.0704 -22.9448 -22.8668 -22.8488 -22.6270
   -22.5191 -22.4663 -22.4111 -22.3641 -22.2921 -22.2451 -21.7741 -21.7100
   -21.6463 -20.2339 -19.9552 -19.8854 -19.8641 -19.6410 -19.6204 -19.6166
   -19.6006 -19.5913 -19.5514 -19.4146 -19.3852 -18.1589 -17.9637 -17.8331
     1.4538   2.9160   2.9867   3.1290   3.3020   3.4573   3.5255   3.6736
     3.7359   3.8684   3.9017   4.0724   4.2079   4.4944   4.6028   4.6889
     4.7577   4.8379   5.0146   5.0775   5.1471   5.2490   5.2715   5.3322
     5.3958   5.5425   5.6076   5.7111   5.7159   5.7411   5.7479   5.7967
     5.9302   6.0946   6.1863   6.2126   6.2375   6.2778   6.3485   6.3802
     6.4567   6.5868   6.6469   6.7105   6.7940   6.9409   6.9892   7.0374
     7.0894   7.1388   7.2507   7.2575   7.3083   7.4214   7.5425   7.5672
     7.6063   7.7343   7.8867   7.8885   8.0701   8.0959   8.0998   8.2018
     8.2493   8.2621   8.3416   8.3684   8.4450   8.5460   8.6351   8.6460
     8.8213   8.8897   8.9409   9.0577   9.1144   9.2178   9.2733

 ------ SPIN DOWN ----------


          k = 0.0000 0.0000 0.0000 ( 61588 PWs)   bands (ev):

   -60.7994 -60.7889 -60.7545 -60.7436 -60.7184 -60.7093 -60.6747 -60.6656
   -60.5405 -60.4049 -54.3969 -54.3506 -54.2700 -54.2244 -52.7171 -46.2786
   -46.2679 -41.6758 -41.6466 -41.5732 -41.5600 -39.8132 -27.8002 -27.7895
   -27.7166 -27.7009 -27.6121 -27.6055 -27.4835 -27.4747 -27.3872 -27.3489
   -27.3163 -27.2865 -27.2719 -27.2512 -27.2381 -27.1875 -27.1769 -27.1593
   -27.1136 -27.0737 -27.0181 -26.9774 -26.9692 -26.9611 -26.9553 -26.9097
   -26.9012 -26.8968 -26.8731 -26.8678 -24.1839 -23.9701 -23.6735 -23.5790
   -23.3272 -23.1942 -23.1686 -23.0707 -22.9449 -22.8671 -22.8489 -22.6272
   -22.5192 -22.4664 -22.4114 -22.3643 -22.2923 -22.2452 -21.7741 -21.7100
   -21.6463 -20.2349 -19.9547 -19.8862 -19.8654 -19.6424 -19.6205 -19.6170
   -19.6008 -19.5913 -19.5516 -19.4157 -19.3851 -18.1586 -17.9635 -17.8331
     1.4527   2.9137   2.9863   3.1285   3.3012   3.4548   3.5248   3.6732
     3.7350   3.8680   3.8991   4.0715   4.2069   4.4939   4.6023   4.6872
     4.7567   4.8370   5.0130   5.0761   5.1462   5.2479   5.2704   5.3303
     5.3941   5.5418   5.6069   5.7096   5.7151   5.7404   5.7475   5.7959
     5.9294   6.0924   6.1853   6.2115   6.2361   6.2766   6.3476   6.3788
     6.4549   6.5858   6.6457   6.7091   6.7927   6.9391   6.9851   7.0347
     7.0833   7.1359   7.2462   7.2537   7.3067   7.4159   7.5419   7.5641
     7.6034   7.7320   7.8852   7.8869   8.0672   8.0936   8.0980   8.1972
     8.2471   8.2610   8.3380   8.3667   8.4433   8.5442   8.6335   8.6445
     8.8198   8.8853   8.9391   9.0561   9.1123   9.2169   9.2609

     the Fermi energy is     7.2210 ev

!    total energy              =   -2943.07103026 Ry
     estimated scf accuracy    <       0.00065984 Ry
     smearing contrib. (-TS)   =      -0.09919659 Ry
     internal energy E=F+TS    =   -2942.97183367 Ry

     total magnetization       =    -0.05 Bohr mag/cell
     absolute magnetization    =     0.06 Bohr mag/cell

     convergence has been achieved in  13 iterations

     negative rho (up, down):  9.090E-01 9.090E-01

     Forces acting on atoms (cartesian axes, Ry/au):

     atom    1 type  1   force =    -0.00886037   -0.02613697    0.01258615
     atom    2 type  1   force =    -0.11457003   -0.01900351   -0.00470068
     atom    3 type  1   force =    -0.11797589    0.01431160    0.00221903
     atom    4 type  1   force =     0.11437514   -0.01168690   -0.00464088
     atom    5 type  1   force =     0.13888877   -0.01031260    0.00445548
     atom    6 type  2   force =    -0.00809608   -0.01491507    0.00747907
     atom    7 type  2   force =    -0.00993957    0.01174972   -0.01144511
     atom    8 type  3   force =    -0.11673678    0.00485343   -0.00550448
     atom    9 type  3   force =     0.16823704    0.02203904   -0.00381797
     atom   10 type  3   force =    -0.02094879   -0.02911896   -0.05954357
     atom   11 type  3   force =    -0.01980739   -0.03500182    0.05702636
     atom   12 type  3   force =    -0.01716034    0.03638847   -0.05604316
     atom   13 type  3   force =    -0.01892961    0.03019835    0.06296347
     atom   14 type  3   force =     0.02106365   -0.03093640   -0.06115786
     atom   15 type  3   force =     0.01993207   -0.03645571    0.05835836
     atom   16 type  3   force =     0.01695075    0.04035636   -0.05525611
     atom   17 type  3   force =     0.01716684    0.03409132    0.06169775
     atom   18 type  4   force =    -0.00984636    0.01994009   -0.01049601
     atom   19 type  4   force =    -0.12803586   -0.00545603   -0.11556148
     atom   20 type  4   force =    -0.13390012    0.00554762    0.11905783
     atom   21 type  4   force =     0.12591707   -0.01031550   -0.11745841
     atom   22 type  4   force =     0.13314491    0.00319581    0.11919422
     atom   23 type  5   force =    -0.03086903    0.00666766    0.00058799
     The non-local contrib.  to forces
     atom    1 type  1   force =    -0.00244030   -0.01114471    0.02883036
     atom    2 type  1   force =    -0.24767395   -0.16259429    0.01592372
     atom    3 type  1   force =    -0.24087885    0.15538445   -0.02707936
     atom    4 type  1   force =     0.24769901   -0.16358766    0.01593709
     atom    5 type  1   force =     0.24779434    0.14850633   -0.02679621
     atom    6 type  2   force =     0.00443578   -0.04973178   -0.07088939
     atom    7 type  2   force =    -0.01880447    0.06343820    0.06101484
     atom    8 type  3   force =    -0.26544084    0.00327137   -0.00503413
     atom    9 type  3   force =     0.09454166   -0.07797887   -0.01090536
     atom   10 type  3   force =    -0.21025851    0.00463663   -0.20989191
     atom   11 type  3   force =    -0.21617184    0.00399398    0.19983256
     atom   12 type  3   force =    -0.20597600   -0.02049050   -0.17763618
     atom   13 type  3   force =    -0.21475876   -0.00448885    0.20822148
     atom   14 type  3   force =     0.20389411    0.00101963   -0.21656644
     atom   15 type  3   force =     0.21294243    0.00435088    0.20310325
     atom   16 type  3   force =     0.21779256   -0.02567692   -0.17545512
     atom   17 type  3   force =     0.22380804   -0.01047868    0.20443444
     atom   18 type  4   force =    -0.01949971    0.05441685   -0.06364003
     atom   19 type  4   force =     0.06386168    0.00720528    0.06829792
     atom   20 type  4   force =     0.05815750   -0.01516084   -0.06514299
     atom   21 type  4   force =    -0.06212032    0.00783054    0.07232584
     atom   22 type  4   force =    -0.05663608   -0.01342309   -0.06429754
     atom   23 type  5   force =    -0.03966066   -0.01492611   -0.00002998
     The ionic contribution  to forces
     atom    1 type  1   force =    -0.16646047   -4.69695406   14.07194770
     atom    2 type  1   force =   -39.66138105   -6.13202349    0.77975131
     atom    3 type  1   force =   -39.63957330    6.20180427   -0.71332681
     atom    4 type  1   force =    39.50483757   -6.17771365    0.77907657
     atom    5 type  1   force =    39.08113361    6.69680066   -0.70933580
     atom    6 type  2   force =    -0.17648549   -3.66121617  -13.97358771
     atom    7 type  2   force =    -0.35693337    3.62745280   14.10595650
     atom    8 type  3   force =   -52.07815772   -0.00676192   -0.06497569
     atom    9 type  3   force =    50.56301260   -0.79347352   -0.06581235
     atom   10 type  3   force =   -36.04434346   -2.09239059  -23.09758950
     atom   11 type  3   force =   -35.11848588   -0.84520629   22.10186056
     atom   12 type  3   force =   -35.23188752    0.84034217  -22.17919969
     atom   13 type  3   force =   -36.02212545    2.22447880   23.10887084
     atom   14 type  3   force =    35.95398776   -2.10821172  -23.15284547
     atom   15 type  3   force =    35.02877991   -0.86068735   22.15701985
     atom   16 type  3   force =    35.06469211    0.93543984  -22.32631432
     atom   17 type  3   force =    35.85266709    2.32046670   23.25752012
     atom   18 type  4   force =    -0.33266460    4.39675258  -14.02135992
     atom   19 type  4   force =   -35.88240956    0.92071433  -25.58677568
     atom   20 type  4   force =   -35.86527880   -0.98899794   25.56515928
     atom   21 type  4   force =    35.68072124    0.84804915  -25.80308556
     atom   22 type  4   force =    35.66320334   -1.05993960   25.78336406
     atom   23 type  5   force =     4.18315144    0.41127501   -0.01631828
     The local contribution  to forces
     atom    1 type  1   force =     0.16214684    4.68047207  -14.09004385
     atom    2 type  1   force =    39.81336835    6.27192439   -0.80902091
     atom    3 type  1   force =    39.78322160   -6.33994541    0.73966519
     atom    4 type  1   force =   -39.65625090    6.32854854   -0.80916732
     atom    5 type  1   force =   -39.20525882   -6.85895024    0.73982695
     atom    6 type  2   force =     0.16895923    3.70115715   14.02407854
     atom    7 type  2   force =     0.36943221   -3.67458019  -14.17701385
     atom    8 type  3   force =    52.25746193    0.00729459    0.05186745
     atom    9 type  3   force =   -50.49790736    0.90304312    0.05925928
     atom   10 type  3   force =    36.25820998    2.05762058   23.25994118
     atom   11 type  3   force =    35.34042408    0.79582175  -22.25637743
     atom   12 type  3   force =    35.44362706   -0.77562170   22.30900271
     atom   13 type  3   force =    36.24418946   -2.18145527  -23.26463897
     atom   14 type  3   force =   -36.15837910    2.07629698   23.31907776
     atom   15 type  3   force =   -35.24707680    0.80630451  -22.31189836
     atom   16 type  3   force =   -35.28896841   -0.85896017   22.45252431
     atom   17 type  3   force =   -36.08354864   -2.26867462  -23.41028322
     atom   18 type  4   force =     0.34400958   -4.43985403   14.05370257
     atom   19 type  4   force =    35.70660270   -0.93776028   25.40733314
     atom   20 type  4   force =    35.67991822    1.01030041  -25.38274965
     atom   21 type  4   force =   -35.50551896   -0.87266162   25.62033300
     atom   22 type  4   force =   -35.47762107    1.07940998  -25.60337513
     atom   23 type  5   force =    -4.17466543   -0.39059566    0.01550100
     The core correction contribution to forces
     atom    1 type  1   force =    -0.00004821    0.00188906   -0.00170237
     atom    2 type  1   force =    -0.01154610   -0.00155448    0.00074897
     atom    3 type  1   force =    -0.01252835    0.00263588   -0.00134736
     atom    4 type  1   force =     0.01193197   -0.00204089    0.00075276
     atom    5 type  1   force =     0.00796714    0.00760206   -0.00180521
     atom    6 type  2   force =    -0.00026504    0.00236409    0.00286250
     atom    7 type  2   force =     0.00065386   -0.00305159   -0.00233607
     atom    8 type  3   force =    -0.03183194    0.00093803   -0.00075557
     atom    9 type  3   force =     0.01211596   -0.01086576   -0.00099906
     atom   10 type  3   force =    -0.02203055    0.00908665   -0.01716979
     atom   11 type  3   force =    -0.02403514    0.00912412    0.01778581
     atom   12 type  3   force =    -0.02270757   -0.00996845   -0.01530617
     atom   13 type  3   force =    -0.02301530   -0.00924188    0.01657547
     atom   14 type  3   force =     0.02197288    0.00975944   -0.01584642
     atom   15 type  3   force =     0.02327811    0.01042463    0.01627981
     atom   16 type  3   force =     0.02392579   -0.01162303   -0.01383236
     atom   17 type  3   force =     0.02345571   -0.01034692    0.01528388
     atom   18 type  4   force =     0.00093703   -0.00300427    0.00290422
     atom   19 type  4   force =    -0.00993626    0.00012395   -0.00932430
     atom   20 type  4   force =    -0.00980996    0.00045081    0.00929634
     atom   21 type  4   force =     0.01010072    0.00023255   -0.00938710
     atom   22 type  4   force =     0.00991620    0.00046523    0.00906596
     atom   23 type  5   force =     0.00000000    0.00000000    0.00000000
     The Hubbard contrib.    to forces
     atom    1 type  1   force =     0.00000000    0.00000000    0.00000000
     atom    2 type  1   force =     0.00000000    0.00000000    0.00000000
     atom    3 type  1   force =     0.00000000    0.00000000    0.00000000
     atom    4 type  1   force =     0.00000000    0.00000000    0.00000000
     atom    5 type  1   force =     0.00000000    0.00000000    0.00000000
     atom    6 type  2   force =     0.00000000    0.00000000    0.00000000
     atom    7 type  2   force =     0.00000000    0.00000000    0.00000000
     atom    8 type  3   force =     0.00000000    0.00000000    0.00000000
     atom    9 type  3   force =     0.00000000    0.00000000    0.00000000
     atom   10 type  3   force =     0.00000000    0.00000000    0.00000000
     atom   11 type  3   force =     0.00000000    0.00000000    0.00000000
     atom   12 type  3   force =     0.00000000    0.00000000    0.00000000
     atom   13 type  3   force =     0.00000000    0.00000000    0.00000000
     atom   14 type  3   force =     0.00000000    0.00000000    0.00000000
     atom   15 type  3   force =     0.00000000    0.00000000    0.00000000
     atom   16 type  3   force =     0.00000000    0.00000000    0.00000000
     atom   17 type  3   force =     0.00000000    0.00000000    0.00000000
     atom   18 type  4   force =     0.00000000    0.00000000    0.00000000
     atom   19 type  4   force =     0.00000000    0.00000000    0.00000000
     atom   20 type  4   force =     0.00000000    0.00000000    0.00000000
     atom   21 type  4   force =     0.00000000    0.00000000    0.00000000
     atom   22 type  4   force =     0.00000000    0.00000000    0.00000000
     atom   23 type  5   force =     0.00000000    0.00000000    0.00000000
     The SCF correction term to forces
     atom    1 type  1   force =    -0.00184584   -0.00045569    0.00287105
     atom    2 type  1   force =    -0.00712489    0.00518801    0.00721294
     atom    3 type  1   force =    -0.00800459   -0.00562395    0.00362410
     atom    4 type  1   force =     0.00636990    0.00305040    0.00807674
     atom    5 type  1   force =     0.00746490   -0.00432777    0.00188248
     atom    6 type  2   force =    -0.00452814   -0.00754472    0.02433185
     atom    7 type  2   force =    -0.00407539   -0.00156587    0.00025019
     atom    8 type  3   force =     0.00144418    0.00005500    0.01271019
     atom    9 type  3   force =    -0.00331341    0.00125771    0.01395626
     atom   10 type  3   force =    -0.00231384   -0.00812858    0.00448317
     atom   11 type  3   force =    -0.00132621    0.00120826   -0.00675840
     atom   12 type  3   force =    -0.00000389    0.00207059    0.00641289
     atom   13 type  3   force =    -0.00300715    0.00084919   -0.00674863
     atom   14 type  3   force =    -0.00019959   -0.00985710    0.00433944
     atom   15 type  3   force =     0.00222081    0.00309526   -0.00682946
     atom   16 type  3   force =    -0.00027890    0.00112029    0.00713811
     atom   17 type  3   force =     0.00099704    0.00306849   -0.00594074
     atom   18 type  4   force =    -0.00241625    0.01157260    0.01721389
     atom   19 type  4   force =    -0.00594202    0.00420433    0.00422417
     atom   20 type  4   force =     0.00332533   -0.00110118   -0.00818842
     atom   21 type  4   force =     0.00294679    0.00617752    0.00167214
     atom   22 type  4   force =    -0.00550508   -0.00337306   -0.00624641
     atom   23 type  5   force =     0.00051803    0.00085806    0.00075199

     Total force =     0.519452     Total SCF correction =     0.052321
     SCF correction compared to forces is large: reduce conv_thr to get better values


     Computing stress (Cartesian axis) and pressure


     negative rho (up, down):  9.090E-01 9.090E-01
          total   stress  (Ry/bohr**3)                   (kbar)     P=       83.80
   0.00067001   0.00000547   0.00000068           98.56        0.81        0.10
   0.00000547   0.00064405  -0.00001302            0.81       94.74       -1.92
   0.00000068  -0.00001302   0.00039485            0.10       -1.92       58.09


     Molecular Dynamics Calculation

     Starting temperature  =   300.00 K

     temperature is set once at start

     mass Hf               =   178.49
     mass Nb               =    92.91
     mass Ta               =   180.95
     mass Zr               =    91.22
     mass H                =     2.01
     Time step             =     4.20 a.u.,  0.2032 femto-seconds

     Entering Dynamics:    iteration =     1
                           time      =   0.0002 pico-seconds


ATOMIC_POSITIONS (angstrom)
Hf            2.6701536600        2.8272111646        6.6039645797
Hf            1.2531413504        1.2863725215        5.0584660912
Hf            1.2556374711        7.3898935907        5.0880678311
Hf            4.0871664724        1.2863727314        5.0584660930
Hf            4.0846709573        7.3898928842        5.0880678952
Nb            2.6701534679        2.7970186687        3.5155836289
Nb            2.6701533663        5.8764682092        6.6349973124
Ta            1.2095237095        4.3410168742        5.0711256765
Ta            4.1307855763        4.3410173606        5.0711257243
Ta            1.3074060484        1.3142106506        2.0587774250
Ta            1.3029417108        1.3084790307        8.0945808162
Ta            1.3041630936        7.3759160391        2.0462355938
Ta            1.3078642199        7.3651726883        8.0860040027
Ta            4.0329017832        1.3142105992        2.0587773793
Ta            4.0373661211        1.3084789896        8.0945808539
Ta            4.0361447288        7.3759161514        2.0462356161
Ta            4.0324435586        7.3651727984        8.0860039668
Zr            2.6701533615        5.8663758480        3.5273833412
Zr            1.2439813889        4.3221665435        1.9999935130
Zr            1.2405318535        4.3542124812        8.1497622326
Zr            4.0963263205        4.3221662707        1.9999934065
Zr            4.0997759325        4.3542123492        8.1497622402
H             5.6069827384        5.1924399464        5.0721812898


     kinetic energy (Ekin) =          16.19689337 Ry
     temperature           =       77493.55158688 K 
     Ekin + Etot (const)   =       -2926.87413689 Ry
     Ions kinetic stress =          286.05 (kbar)
                                    643.63         371.59           0.00
                                    371.59         214.53           0.00
                                      0.00           0.00           0.00



     Linear momentum :   -0.0000000000   -0.0000000000    0.0000000000

     File outdir/pwscf.msd.dat deleted, as requested

     Writing config-only to output data dir outdir/pwscf.save/
     NEW-OLD atomic charge density approx. for the potential

     Check: negative core charge=   -0.000002

     negative rho (up, down):  9.089E-01 9.089E-01
     Generating pointlists ...
     new r_m :   0.0753 (alat units)  1.3284 (a.u.) for type    3
     new r_m :   0.0753 (alat units)  1.3284 (a.u.) for type    5

     total cpu time spent up to now is      378.6 secs

     Self-consistent Calculation

     iteration #  1     ecut=   120.00 Ry     beta= 0.70
     Davidson diagonalization with overlap
     ethr =  1.00E-06,  avg # of iterations = 10.5

     negative rho (up, down):  9.091E-01 9.091E-01

     total cpu time spent up to now is      429.1 secs

     total energy              =   -2943.05185940 Ry
     estimated scf accuracy    <       0.08985235 Ry

     total magnetization       =    -0.05 Bohr mag/cell
     absolute magnetization    =     0.06 Bohr mag/cell

     iteration #  2     ecut=   120.00 Ry     beta= 0.70
     Davidson diagonalization with overlap
     ethr =  3.24E-05,  avg # of iterations =  2.0

     negative rho (up, down):  9.090E-01 9.090E-01

     total cpu time spent up to now is      466.3 secs

     total energy              =   -2943.05861256 Ry
     estimated scf accuracy    <       0.03209323 Ry

     total magnetization       =    -0.05 Bohr mag/cell
     absolute magnetization    =     0.06 Bohr mag/cell

     iteration #  3     ecut=   120.00 Ry     beta= 0.70
     Davidson diagonalization with overlap
     ethr =  1.16E-05,  avg # of iterations =  1.0

     negative rho (up, down):  9.089E-01 9.089E-01

     total cpu time spent up to now is      489.7 secs

     total energy              =   -2943.06032734 Ry
     estimated scf accuracy    <       0.00357350 Ry

     total magnetization       =    -0.05 Bohr mag/cell
     absolute magnetization    =     0.05 Bohr mag/cell

     iteration #  4     ecut=   120.00 Ry     beta= 0.70
     Davidson diagonalization with overlap
     ethr =  1.29E-06,  avg # of iterations =  2.0

     negative rho (up, down):  9.089E-01 9.089E-01

     Magnetic moment per site  (integrated on atomic sphere of radius R)
     atom   1 (R=0.112)  charge=  9.4635   -0.0000
     atom   2 (R=0.112)  charge=  9.0589   -0.0001
     atom   3 (R=0.112)  charge=  9.0589   -0.0001
     atom   4 (R=0.112)  charge=  9.0587   -0.0001
     atom   5 (R=0.112)  charge=  9.0480   -0.0002
     atom   6 (R=0.110)  charge= 10.3515   -0.0000
     atom   7 (R=0.110)  charge= 10.3480   -0.0001
     atom   8 (R=0.075)  charge=  6.6136    0.0000
     atom   9 (R=0.075)  charge=  6.6238   -0.0001
     atom  10 (R=0.075)  charge=  6.5983   -0.0006
     atom  11 (R=0.075)  charge=  6.5972   -0.0004
     atom  12 (R=0.075)  charge=  6.5986   -0.0005
     atom  13 (R=0.075)  charge=  6.5985   -0.0002
     atom  14 (R=0.075)  charge=  6.5968   -0.0005
     atom  15 (R=0.075)  charge=  6.5963   -0.0005
     atom  16 (R=0.075)  charge=  6.6002   -0.0012
     atom  17 (R=0.075)  charge=  6.5973   -0.0005
     atom  18 (R=0.111)  charge=  9.4557    0.0001
     atom  19 (R=0.111)  charge=  8.9941   -0.0012
     atom  20 (R=0.111)  charge=  8.9979   -0.0003
     atom  21 (R=0.111)  charge=  8.9955   -0.0014
     atom  22 (R=0.111)  charge=  8.9983   -0.0004
     atom  23 (R=0.075)  charge=  0.9206   -0.0000

     total cpu time spent up to now is      507.1 secs

     End of self-consistent calculation

 ------ SPIN UP ------------


          k = 0.0000 0.0000 0.0000 ( 61588 PWs)   bands (ev):

   -60.7771 -60.7660 -60.7321 -60.7213 -60.6976 -60.6912 -60.6538 -60.6473
   -60.5159 -60.2203 -54.3802 -54.3345 -54.2497 -54.2049 -52.7110 -46.2638
   -46.2576 -41.6375 -41.6324 -41.5463 -41.5359 -39.8146 -27.7790 -27.7694
   -27.6953 -27.6810 -27.5881 -27.5822 -27.4659 -27.4544 -27.3524 -27.3264
   -27.2845 -27.2644 -27.2503 -27.2297 -27.2190 -27.1667 -27.1576 -27.1353
   -27.0900 -26.9598 -26.9545 -26.9494 -26.9412 -26.9153 -26.8829 -26.8802
   -26.8728 -26.8532 -26.8505 -26.8009 -24.1664 -23.9516 -23.6591 -23.5656
   -23.3102 -23.1768 -23.1529 -23.0531 -22.9274 -22.8548 -22.8323 -22.6129
   -22.5058 -22.4546 -22.3967 -22.3479 -22.2779 -22.2292 -21.7651 -21.6992
   -21.6409 -20.2017 -19.9416 -19.8463 -19.8329 -19.6090 -19.6009 -19.5946
   -19.5811 -19.5748 -19.5379 -19.3760 -19.3713 -18.1592 -17.9584 -17.8282
     1.4124   2.7327   2.9331   3.1450   3.3042   3.4741   3.5379   3.6899
     3.7534   3.8810   3.9186   4.0670   4.2124   4.5146   4.5727   4.7029
     4.7777   4.8041   5.0281   5.0827   5.1503   5.2660   5.2870   5.3372
     5.4009   5.5564   5.6421   5.7312   5.7366   5.7582   5.7716   5.8110
     5.9454   6.1139   6.2001   6.2326   6.2588   6.3175   6.3648   6.3950
     6.4572   6.6030   6.6617   6.7291   6.8113   6.9572   7.0015   7.0530
     7.0989   7.1535   7.2483   7.2716   7.3242   7.4356   7.5602   7.5705
     7.6253   7.7525   7.9012   7.9044   8.0897   8.0960   8.1155   8.2172
     8.2649   8.2772   8.3577   8.3868   8.4800   8.5582   8.6455   8.6635
     8.8376   8.8988   8.9728   9.0706   9.1255   9.2458   9.2923

 ------ SPIN DOWN ----------


          k = 0.0000 0.0000 0.0000 ( 61588 PWs)   bands (ev):

   -60.7782 -60.7665 -60.7332 -60.7218 -60.6988 -60.6918 -60.6550 -60.6479
   -60.5159 -60.2206 -54.3803 -54.3346 -54.2498 -54.2049 -52.7110 -46.2638
   -46.2577 -41.6387 -41.6327 -41.5466 -41.5370 -39.8145 -27.7806 -27.7703
   -27.6970 -27.6819 -27.5896 -27.5832 -27.4669 -27.4561 -27.3528 -27.3273
   -27.2848 -27.2656 -27.2509 -27.2306 -27.2200 -27.1675 -27.1586 -27.1358
   -27.0901 -26.9606 -26.9561 -26.9502 -26.9425 -26.9162 -26.8843 -26.8812
   -26.8735 -26.8547 -26.8513 -26.8012 -24.1664 -23.9516 -23.6593 -23.5656
   -23.3103 -23.1769 -23.1531 -23.0532 -22.9275 -22.8549 -22.8323 -22.6129
   -22.5059 -22.4547 -22.3969 -22.3480 -22.2780 -22.2293 -21.7652 -21.6993
   -21.6410 -20.2029 -19.9418 -19.8475 -19.8340 -19.6099 -19.6015 -19.5951
   -19.5817 -19.5755 -19.5383 -19.3773 -19.3717 -18.1591 -17.9584 -17.8284
     1.4116   2.7321   2.9313   3.1445   3.3036   3.4721   3.5374   3.6895
     3.7526   3.8806   3.9166   4.0663   4.2114   4.5141   4.5720   4.7015
     4.7768   4.8033   5.0268   5.0814   5.1496   5.2650   5.2860   5.3359
     5.3994   5.5557   5.6414   5.7301   5.7356   5.7573   5.7711   5.8103
     5.9448   6.1121   6.1993   6.2317   6.2579   6.3163   6.3640   6.3938
     6.4557   6.6023   6.6607   6.7280   6.8102   6.9556   6.9983   7.0503
     7.0936   7.1511   7.2440   7.2683   7.3228   7.4310   7.5592   7.5676
     7.6231   7.7506   7.9000   7.9030   8.0871   8.0942   8.1141   8.2135
     8.2630   8.2762   8.3547   8.3852   8.4787   8.5566   8.6440   8.6622
     8.8365   8.8951   8.9713   9.0694   9.1241   9.2450   9.2782

     the Fermi energy is     7.2332 ev

!    total energy              =   -2943.06028911 Ry
     estimated scf accuracy    <       0.00058984 Ry
     smearing contrib. (-TS)   =      -0.09938607 Ry
     internal energy E=F+TS    =   -2942.96090304 Ry

     total magnetization       =    -0.05 Bohr mag/cell
     absolute magnetization    =     0.05 Bohr mag/cell

     convergence has been achieved in   4 iterations

     negative rho (up, down):  9.089E-01 9.089E-01

     Forces acting on atoms (cartesian axes, Ry/au):

     atom    1 type  1   force =    -0.01023144   -0.02822308    0.01608694
     atom    2 type  1   force =    -0.11809855   -0.01826336    0.00070182
     atom    3 type  1   force =    -0.12028444    0.01360511    0.00498194
     atom    4 type  1   force =     0.11870331   -0.01267554    0.00110404
     atom    5 type  1   force =     0.13389589   -0.00892545    0.00572536
     atom    6 type  2   force =    -0.00879107   -0.01789857    0.00514288
     atom    7 type  2   force =    -0.00881198    0.01212574   -0.01262197
     atom    8 type  3   force =    -0.12036025    0.00583376   -0.00244625
     atom    9 type  3   force =     0.08960852   -0.02887328    0.00192839
     atom   10 type  3   force =    -0.02137165   -0.03100415   -0.05963192
     atom   11 type  3   force =    -0.01969656   -0.03404104    0.05269044
     atom   12 type  3   force =    -0.01665714    0.03686227   -0.05646925
     atom   13 type  3   force =    -0.02062567    0.02976605    0.05976712
     atom   14 type  3   force =     0.02137758   -0.03433647   -0.06185736
     atom   15 type  3   force =     0.02033875   -0.03509136    0.05396586
     atom   16 type  3   force =     0.01646085    0.04018341   -0.05487778
     atom   17 type  3   force =     0.01859371    0.03469280    0.05911147
     atom   18 type  4   force =    -0.00865058    0.02558015   -0.00889667
     atom   19 type  4   force =    -0.13033074   -0.00433603   -0.11459096
     atom   20 type  4   force =    -0.13299342    0.00447688    0.11380064
     atom   21 type  4   force =     0.12646559   -0.00807685   -0.11712368
     atom   22 type  4   force =     0.13045870    0.00202031    0.11468985
     atom   23 type  5   force =     0.06100060    0.05659872   -0.00118089
     The non-local contrib.  to forces
     atom    1 type  1   force =    -0.00129169   -0.00870364    0.02669078
     atom    2 type  1   force =    -0.24743630   -0.16183596    0.01937712
     atom    3 type  1   force =    -0.24187090    0.15457181   -0.02516227
     atom    4 type  1   force =     0.24815058   -0.16493086    0.01945002
     atom    5 type  1   force =     0.25186870    0.14399744   -0.02566668
     atom    6 type  2   force =     0.00515797   -0.04985302   -0.07158802
     atom    7 type  2   force =    -0.01724023    0.06319026    0.06166641
     atom    8 type  3   force =    -0.25828356    0.00117514   -0.00132556
     atom    9 type  3   force =     0.03594967   -0.11232048   -0.00457898
     atom   10 type  3   force =    -0.21031786    0.00254488   -0.21041495
     atom   11 type  3   force =    -0.21535921    0.00359694    0.19814036
     atom   12 type  3   force =    -0.20281400   -0.02047907   -0.17669473
     atom   13 type  3   force =    -0.21234315   -0.00391959    0.20632621
     atom   14 type  3   force =     0.20121527   -0.00103979   -0.21649984
     atom   15 type  3   force =     0.21029051    0.00469161    0.20053357
     atom   16 type  3   force =     0.21246977   -0.02486386   -0.17543369
     atom   17 type  3   force =     0.21946947   -0.00827089    0.20423292
     atom   18 type  4   force =    -0.01801898    0.05652185   -0.05946998
     atom   19 type  4   force =     0.06396094    0.00910788    0.07152590
     atom   20 type  4   force =     0.05939524   -0.01549721   -0.06877405
     atom   21 type  4   force =    -0.06175383    0.01043727    0.07308528
     atom   22 type  4   force =    -0.05703078   -0.01354109   -0.06502054
     atom   23 type  5   force =    -0.06245063   -0.02939530   -0.00017604
     The ionic contribution  to forces
     atom    1 type  1   force =    -0.20572326   -4.72550283   14.09484641
     atom    2 type  1   force =   -39.68440420   -6.14237522    0.77973865
     atom    3 type  1   force =   -39.68154879    6.20444554   -0.71333638
     atom    4 type  1   force =    39.50797605   -6.22318208    0.77893120
     atom    5 type  1   force =    39.13224130    6.76750808   -0.70908014
     atom    6 type  2   force =    -0.21776842   -3.69170298  -13.99800731
     atom    7 type  2   force =    -0.42058056    3.66422386   14.14682458
     atom    8 type  3   force =   -52.15031208    0.00055995   -0.06497817
     atom    9 type  3   force =    49.95803137   -1.14142428   -0.06640424
     atom   10 type  3   force =   -36.05826875   -2.09845017  -23.09928014
     atom   11 type  3   force =   -35.13236644   -0.85123930   22.10351198
     atom   12 type  3   force =   -35.25229145    0.84167299  -22.17825295
     atom   13 type  3   force =   -36.04266724    2.22588675   23.10795541
     atom   14 type  3   force =    35.95763389   -2.12467303  -23.16319508
     atom   15 type  3   force =    35.03249796   -0.87704724   22.16727415
     atom   16 type  3   force =    35.07993256    0.94784055  -22.33359985
     atom   17 type  3   force =    35.86795223    2.33317918   23.26501127
     atom   18 type  4   force =    -0.39245535    4.43090183  -14.05929743
     atom   19 type  4   force =   -35.90773733    0.92445807  -25.59059392
     atom   20 type  4   force =   -35.89063991   -0.98512560   25.56888098
     atom   21 type  4   force =    35.68046271    0.84852123  -25.85455627
     atom   22 type  4   force =    35.66322873   -1.05873537   25.83478815
     atom   23 type  5   force =     5.15680698    0.73026008   -0.01718089
     The local contribution  to forces
     atom    1 type  1   force =     0.19552708    4.70153819  -14.09363599
     atom    2 type  1   force =    39.81840381    6.28642466   -0.78776664
     atom    3 type  1   force =    39.81111958   -6.34439947    0.75238740
     atom    4 type  1   force =   -39.64694914    6.37726359   -0.78574572
     atom    5 type  1   force =   -39.26856558   -6.92082232    0.74683826
     atom    6 type  2   force =     0.20054710    3.71200369   14.08852247
     atom    7 type  2   force =     0.42482003   -3.71620368  -14.21283988
     atom    8 type  3   force =    52.31768908    0.00228060    0.08250458
     atom    9 type  3   force =   -49.89728100    1.24982485    0.09157120
     atom   10 type  3   force =    36.26363879    2.04415073   23.27157344
     atom   11 type  3   force =    35.34633407    0.80614030  -22.27668745
     atom   12 type  3   force =    35.45977919   -0.76782013   22.31555015
     atom   13 type  3   force =    36.24785651   -2.18115226  -23.27680724
     atom   14 type  3   force =   -36.15627342    2.06635648   23.33565169
     atom   15 type  3   force =   -35.24080094    0.83052214  -22.33847048
     atom   16 type  3   force =   -35.29907919   -0.86486462   22.46948950
     atom   17 type  3   force =   -36.08849964   -2.27534656  -23.42823671
     atom   18 type  4   force =     0.40063375   -4.44661933   14.11606240
     atom   19 type  4   force =    35.71676479   -0.93412004   25.41690285
     atom   20 type  4   force =    35.70566088    1.00277772  -25.40515458
     atom   21 type  4   force =   -35.49912652   -0.86115639   25.67604945
     atom   22 type  4   force =   -35.48691772    1.06888710  -25.67270303
     atom   23 type  5   force =    -5.03783661   -0.64682005    0.01792768
     The core correction contribution to forces
     atom    1 type  1   force =     0.00003287    0.00207967   -0.00249675
     atom    2 type  1   force =    -0.01140826   -0.00155137    0.00078163
     atom    3 type  1   force =    -0.01247892    0.00290742   -0.00134468
     atom    4 type  1   force =     0.01183747   -0.00239190    0.00079759
     atom    5 type  1   force =     0.00914670    0.00645965   -0.00186977
     atom    6 type  2   force =    -0.00026120    0.00240310    0.00299663
     atom    7 type  2   force =     0.00062733   -0.00299928   -0.00239045
     atom    8 type  3   force =    -0.03109843    0.00078454   -0.00079487
     atom    9 type  3   force =     0.00683109   -0.01399908   -0.00059031
     atom   10 type  3   force =    -0.02192436    0.00920954   -0.01728800
     atom   11 type  3   force =    -0.02377370    0.00915646    0.01773110
     atom   12 type  3   force =    -0.02255639   -0.01008264   -0.01526419
     atom   13 type  3   force =    -0.02282591   -0.00928646    0.01654937
     atom   14 type  3   force =     0.02193239    0.00982574   -0.01615471
     atom   15 type  3   force =     0.02313482    0.01029387    0.01639243
     atom   16 type  3   force =     0.02325778   -0.01146127   -0.01400720
     atom   17 type  3   force =     0.02302489   -0.01010946    0.01546215
     atom   18 type  4   force =     0.00086166   -0.00291367    0.00286125
     atom   19 type  4   force =    -0.00996116    0.00008798   -0.00944395
     atom   20 type  4   force =    -0.00984268    0.00045477    0.00937735
     atom   21 type  4   force =     0.01002328    0.00015178   -0.00939832
     atom   22 type  4   force =     0.00983509    0.00040994    0.00901256
     atom   23 type  5   force =     0.00000000    0.00000000    0.00000000
     The Hubbard contrib.    to forces
     atom    1 type  1   force =     0.00000000    0.00000000    0.00000000
     atom    2 type  1   force =     0.00000000    0.00000000    0.00000000
     atom    3 type  1   force =     0.00000000    0.00000000    0.00000000
     atom    4 type  1   force =     0.00000000    0.00000000    0.00000000
     atom    5 type  1   force =     0.00000000    0.00000000    0.00000000
     atom    6 type  2   force =     0.00000000    0.00000000    0.00000000
     atom    7 type  2   force =     0.00000000    0.00000000    0.00000000
     atom    8 type  3   force =     0.00000000    0.00000000    0.00000000
     atom    9 type  3   force =     0.00000000    0.00000000    0.00000000
     atom   10 type  3   force =     0.00000000    0.00000000    0.00000000
     atom   11 type  3   force =     0.00000000    0.00000000    0.00000000
     atom   12 type  3   force =     0.00000000    0.00000000    0.00000000
     atom   13 type  3   force =     0.00000000    0.00000000    0.00000000
     atom   14 type  3   force =     0.00000000    0.00000000    0.00000000
     atom   15 type  3   force =     0.00000000    0.00000000    0.00000000
     atom   16 type  3   force =     0.00000000    0.00000000    0.00000000
     atom   17 type  3   force =     0.00000000    0.00000000    0.00000000
     atom   18 type  4   force =     0.00000000    0.00000000    0.00000000
     atom   19 type  4   force =     0.00000000    0.00000000    0.00000000
     atom   20 type  4   force =     0.00000000    0.00000000    0.00000000
     atom   21 type  4   force =     0.00000000    0.00000000    0.00000000
     atom   22 type  4   force =     0.00000000    0.00000000    0.00000000
     atom   23 type  5   force =     0.00000000    0.00000000    0.00000000
     The SCF correction term to forces
     atom    1 type  1   force =     0.00099203    0.00253745   -0.00870802
     atom    2 type  1   force =     0.00651487    0.00124647   -0.01081945
     atom    3 type  1   force =     0.00426305   -0.00374826   -0.00695264
     atom    4 type  1   force =    -0.00254319    0.00073765   -0.01171956
     atom    5 type  1   force =     0.00897324   -0.00589637   -0.00388683
     atom    6 type  2   force =     0.00330195    0.00942258   -0.01617140
     atom    7 type  2   force =     0.00332993    0.00408652   -0.00527313
     atom    8 type  3   force =     0.00141320    0.00120546   -0.01724275
     atom    9 type  3   force =    -0.01415414   -0.01078234   -0.01745978
     atom   10 type  3   force =     0.00526900    0.01171280   -0.00361278
     atom   11 type  3   force =     0.00523718   -0.00152350    0.01060394
     atom   12 type  3   force =     0.00099397   -0.00625694   -0.00119804
     atom   13 type  3   force =     0.00912258   -0.00159044    0.00635286
     atom   14 type  3   force =    -0.00336209    0.01536609   -0.00104993
     atom   15 type  3   force =    -0.00501514   -0.00337981    0.00884568
     atom   16 type  3   force =    -0.00035161   -0.00629544   -0.00071704
     atom   17 type  3   force =    -0.00358478   -0.00458753    0.00325134
     atom   18 type  4   force =     0.00009680   -0.01213860   -0.00844343
     atom   19 type  4   force =     0.00641049   -0.00369797   -0.00237235
     atom   20 type  4   force =     0.00220153    0.00203914    0.01008043
     atom   21 type  4   force =    -0.00337157   -0.00585880   -0.00169433
     atom   22 type  4   force =     0.00111185    0.00517166    0.00922221
     atom   23 type  5   force =     0.00424932    0.00272593   -0.00114215

     Total force =     0.504046     Total SCF correction =     0.058759
     SCF correction compared to forces is large: reduce conv_thr to get better values


     Computing stress (Cartesian axis) and pressure


     negative rho (up, down):  9.089E-01 9.089E-01
          total   stress  (Ry/bohr**3)                   (kbar)     P=       85.74
   0.00070633   0.00002763   0.00000116          103.91        4.06        0.17
   0.00002763   0.00065612  -0.00001130            4.06       96.52       -1.66
   0.00000116  -0.00001130   0.00038613            0.17       -1.66       56.80


     Entering Dynamics:    iteration =     2
                           time      =   0.0004 pico-seconds


ATOMIC_POSITIONS (angstrom)
Hf            2.6703067759        2.8272976806        6.6039658638
Hf            1.2532852442        1.2864598136        5.0584659966
Hf            1.2557811417        7.3899836672        5.0880681806
Hf            4.0873305221        1.2864605540        5.0584660232
Hf            4.0848365820        7.3899809614        5.0880683516
Nb            2.6703060098        2.7971047588        3.5155846081
Nb            2.6703058043        5.8765590788        6.6349952901
Ta            1.2096675507        4.3411062270        5.0711253823
Ta            4.1309493664        4.3411052353        5.0711257254
Ta            1.3075582031        1.3142969569        2.0587723648
Ta            1.3030939926        1.3085649987        8.0945854124
Ta            1.3043156224        7.3760080406        2.0462308116
Ta            1.3080164739        7.3652641129        8.0860091673
Ta            4.0330575464        1.3142966655        2.0587721474
Ta            4.0375217935        1.3085648570        8.0945855599
Ta            4.0363000974        7.3760084532        2.0462309462
Ta            4.0325990540        7.3652646121        8.0860090586
Zr            2.6703057947        5.8664687244        3.5273817532
Zr            1.2441135268        4.3222546357        1.9999741610
Zr            1.2406633632        4.3543021805        8.1497816921
Zr            4.0965015442        4.3222536701        1.9999736637
Zr            4.0999520102        4.3543016406        8.1497818073
H             5.3515980130        5.0451677598        5.0721767798


     kinetic energy (Ekin) =          16.18081047 Ry
     temperature           =       77416.60345215 K 
     Ekin + Etot (const)   =       -2926.87947864 Ry
     Ions kinetic stress =          285.77 (kbar)
                                    643.25         371.08           0.00
                                    371.08         214.07           0.00
                                      0.00           0.00           0.00



     Linear momentum :   -0.0000000000   -0.0000000000    0.0000000000

     Writing config-only to output data dir outdir/pwscf.save/
     NEW-OLD atomic charge density approx. for the potential

     Check: negative core charge=   -0.000002

     negative rho (up, down):  9.087E-01 9.087E-01
     Generating pointlists ...
     new r_m :   0.0622 (alat units)  1.0984 (a.u.) for type    3
     new r_m :   0.0622 (alat units)  1.0984 (a.u.) for type    5

     total cpu time spent up to now is      532.6 secs

     Self-consistent Calculation

     iteration #  1     ecut=   120.00 Ry     beta= 0.70
     Davidson diagonalization with overlap
     c_bands:  1 eigenvalues not converged
     ethr =  1.00E-06,  avg # of iterations = 16.5

     negative rho (up, down):  9.089E-01 9.089E-01

     total cpu time spent up to now is      582.2 secs

     total energy              =   -2942.92906268 Ry
     estimated scf accuracy    <       0.11046594 Ry

     total magnetization       =    -0.04 Bohr mag/cell
     absolute magnetization    =     0.05 Bohr mag/cell

     iteration #  2     ecut=   120.00 Ry     beta= 0.70
     Davidson diagonalization with overlap
     ethr =  3.99E-05,  avg # of iterations =  2.0

     negative rho (up, down):  9.088E-01 9.088E-01

     total cpu time spent up to now is      620.4 secs

     total energy              =   -2942.94009297 Ry
     estimated scf accuracy    <       0.02984907 Ry

     total magnetization       =    -0.04 Bohr mag/cell
     absolute magnetization    =     0.05 Bohr mag/cell

     iteration #  3     ecut=   120.00 Ry     beta= 0.70
     Davidson diagonalization with overlap
     ethr =  1.08E-05,  avg # of iterations =  1.0

     negative rho (up, down):  9.087E-01 9.087E-01

     total cpu time spent up to now is      647.3 secs

     total energy              =   -2942.94176164 Ry
     estimated scf accuracy    <       0.00384286 Ry

     total magnetization       =    -0.04 Bohr mag/cell
     absolute magnetization    =     0.05 Bohr mag/cell

     iteration #  4     ecut=   120.00 Ry     beta= 0.70
     Davidson diagonalization with overlap
     ethr =  1.39E-06,  avg # of iterations =  7.0

     negative rho (up, down):  9.086E-01 9.086E-01

     Magnetic moment per site  (integrated on atomic sphere of radius R)
     atom   1 (R=0.112)  charge=  9.4628   -0.0001
     atom   2 (R=0.112)  charge=  9.0596   -0.0001
     atom   3 (R=0.112)  charge=  9.0595   -0.0001
     atom   4 (R=0.112)  charge=  9.0607   -0.0001
     atom   5 (R=0.112)  charge=  9.0502   -0.0001
     atom   6 (R=0.110)  charge= 10.3511    0.0001
     atom   7 (R=0.110)  charge= 10.3480   -0.0000
     atom   8 (R=0.062)  charge=  4.5331    0.0000
     atom   9 (R=0.062)  charge=  4.5570   -0.0000
     atom  10 (R=0.062)  charge=  4.5195   -0.0002
     atom  11 (R=0.062)  charge=  4.5200   -0.0002
     atom  12 (R=0.062)  charge=  4.5186   -0.0003
     atom  13 (R=0.062)  charge=  4.5199   -0.0001
     atom  14 (R=0.062)  charge=  4.5185   -0.0002
     atom  15 (R=0.062)  charge=  4.5181   -0.0002
     atom  16 (R=0.062)  charge=  4.5148   -0.0005
     atom  17 (R=0.062)  charge=  4.5202   -0.0002
     atom  18 (R=0.111)  charge=  9.4551    0.0001
     atom  19 (R=0.111)  charge=  8.9994   -0.0012
     atom  20 (R=0.111)  charge=  8.9965   -0.0004
     atom  21 (R=0.111)  charge=  9.0025   -0.0017
     atom  22 (R=0.111)  charge=  8.9974   -0.0005
     atom  23 (R=0.062)  charge=  0.8644    0.0000

     total cpu time spent up to now is      665.0 secs

     End of self-consistent calculation

 ------ SPIN UP ------------


          k = 0.0000 0.0000 0.0000 ( 61588 PWs)   bands (ev):

   -60.7737 -60.7735 -60.7289 -60.7285 -60.6989 -60.6875 -60.6551 -60.6433
   -60.5035 -60.0269 -54.3907 -54.3461 -54.2602 -54.2142 -52.7391 -46.2637
   -46.2511 -41.6434 -41.6268 -41.5430 -41.5420 -39.8098 -27.7791 -27.7729
   -27.6908 -27.6888 -27.5914 -27.5837 -27.4729 -27.4441 -27.3537 -27.3267
   -27.2858 -27.2622 -27.2551 -27.2298 -27.2115 -27.1654 -27.1520 -27.1266
   -27.0792 -26.9566 -26.9532 -26.9498 -26.9372 -26.8983 -26.8859 -26.8738
   -26.8598 -26.8440 -26.7493 -26.7027 -24.1736 -23.9594 -23.6652 -23.5771
   -23.3192 -23.1819 -23.1609 -23.0592 -22.9338 -22.8677 -22.8404 -22.6247
   -22.5063 -22.4526 -22.4010 -22.3484 -22.2791 -22.2282 -21.7862 -21.7183
   -21.6653 -20.2092 -19.9365 -19.8494 -19.8398 -19.6107 -19.5987 -19.5963
   -19.5821 -19.5733 -19.5384 -19.3835 -19.3663 -18.1544 -17.9531 -17.8277
     1.3079   2.4053   2.9311   3.1459   3.2915   3.4767   3.5332   3.6892
     3.7424   3.8977   3.9175   4.0608   4.1995   4.4966   4.5404   4.7013
     4.7728   4.7865   5.0263   5.0705   5.1449   5.2667   5.2832   5.3279
     5.3924   5.5539   5.6695   5.7305   5.7432   5.7557   5.7804   5.8128
     5.9410   6.1175   6.2008   6.2353   6.2597   6.3513   6.3637   6.3993
     6.4460   6.6022   6.6643   6.7378   6.8186   6.9534   6.9923   7.0541
     7.0987   7.1523   7.2245   7.2712   7.3275   7.4318   7.5568   7.5586
     7.6255   7.7575   7.8985   7.9026   8.0863   8.0912   8.1133   8.2121
     8.2588   8.2734   8.3571   8.3848   8.4951   8.5526   8.6431   8.6641
     8.8388   8.8989   8.9885   9.0684   9.1103   9.2590   9.2943

 ------ SPIN DOWN ----------


          k = 0.0000 0.0000 0.0000 ( 61588 PWs)   bands (ev):

   -60.7744 -60.7742 -60.7294 -60.7293 -60.6995 -60.6885 -60.6557 -60.6444
   -60.5034 -60.0271 -54.3907 -54.3461 -54.2602 -54.2142 -52.7391 -46.2638
   -46.2511 -41.6445 -41.6272 -41.5439 -41.5426 -39.8098 -27.7800 -27.7742
   -27.6922 -27.6896 -27.5922 -27.5849 -27.4737 -27.4457 -27.3542 -27.3274
   -27.2861 -27.2631 -27.2558 -27.2304 -27.2127 -27.1659 -27.1532 -27.1270
   -27.0792 -26.9574 -26.9541 -26.9509 -26.9385 -26.8989 -26.8868 -26.8752
   -26.8605 -26.8455 -26.7497 -26.7031 -24.1736 -23.9593 -23.6654 -23.5771
   -23.3193 -23.1820 -23.1610 -23.0593 -22.9338 -22.8678 -22.8404 -22.6247
   -22.5063 -22.4526 -22.4012 -22.3485 -22.2792 -22.2282 -21.7863 -21.7183
   -21.6653 -20.2103 -19.9367 -19.8506 -19.8408 -19.6120 -19.5993 -19.5969
   -19.5826 -19.5739 -19.5389 -19.3849 -19.3668 -18.1544 -17.9531 -17.8278
     1.3073   2.4047   2.9296   3.1455   3.2910   3.4749   3.5328   3.6888
     3.7417   3.8973   3.9157   4.0602   4.1986   4.4959   4.5399   4.7001
     4.7721   4.7857   5.0251   5.0693   5.1443   5.2659   5.2823   5.3269
     5.3909   5.5533   5.6688   5.7296   5.7423   5.7549   5.7798   5.8123
     5.9404   6.1159   6.2001   6.2345   6.2589   6.3504   6.3629   6.3981
     6.4446   6.6015   6.6634   6.7368   6.8176   6.9519   6.9899   7.0515
     7.0940   7.1503   7.2207   7.2683   7.3263   7.4278   7.5546   7.5570
     7.6236   7.7559   7.8975   7.9014   8.0839   8.0896   8.1120   8.2091
     8.2571   8.2723   8.3545   8.3834   8.4941   8.5511   8.6418   8.6629
     8.8379   8.8959   8.9870   9.0672   9.1093   9.2584   9.2744

     the Fermi energy is     7.2292 ev

!    total energy              =   -2942.94172275 Ry
     estimated scf accuracy    <       0.00062614 Ry
     smearing contrib. (-TS)   =      -0.09974630 Ry
     internal energy E=F+TS    =   -2942.84197646 Ry

     total magnetization       =    -0.04 Bohr mag/cell
     absolute magnetization    =     0.05 Bohr mag/cell

     convergence has been achieved in   4 iterations

     negative rho (up, down):  9.086E-01 9.086E-01

     Forces acting on atoms (cartesian axes, Ry/au):

     atom    1 type  1   force =    -0.00879311   -0.03007873    0.01655401
     atom    2 type  1   force =    -0.11376719   -0.01798267   -0.00405162
     atom    3 type  1   force =    -0.11635565    0.01350239    0.00253467
     atom    4 type  1   force =     0.11666916   -0.01471830   -0.00424282
     atom    5 type  1   force =     0.12627401   -0.00298402    0.00432560
     atom    6 type  2   force =    -0.00826987   -0.01949675    0.00431164
     atom    7 type  2   force =    -0.00599250    0.01474673   -0.01206100
     atom    8 type  3   force =    -0.12710202    0.00859342   -0.00644223
     atom    9 type  3   force =    -0.17882082   -0.19507685    0.00156795
     atom   10 type  3   force =    -0.02009626   -0.02598571   -0.06000812
     atom   11 type  3   force =    -0.01635155   -0.03367931    0.05634359
     atom   12 type  3   force =    -0.01776801    0.03415719   -0.05679766
     atom   13 type  3   force =    -0.01727390    0.02873935    0.06293613
     atom   14 type  3   force =     0.01967191   -0.02905109   -0.06155990
     atom   15 type  3   force =     0.01658103   -0.03499016    0.05735794
     atom   16 type  3   force =     0.01692864    0.03720930   -0.05487828
     atom   17 type  3   force =     0.01570390    0.03260567    0.06137185
     atom   18 type  4   force =    -0.00595800    0.02404018   -0.01057452
     atom   19 type  4   force =    -0.12893965   -0.00563821   -0.11526775
     atom   20 type  4   force =    -0.13204761    0.00475366    0.11860989
     atom   21 type  4   force =     0.12342298   -0.00911044   -0.11761405
     atom   22 type  4   force =     0.12861462    0.00433032    0.11930731
     atom   23 type  5   force =     0.33366988    0.21611403   -0.00172262
     The non-local contrib.  to forces
     atom    1 type  1   force =     0.00267712   -0.00385152    0.02002793
     atom    2 type  1   force =    -0.24285397   -0.16309015    0.01614266
     atom    3 type  1   force =    -0.23843113    0.15553458   -0.02730516
     atom    4 type  1   force =     0.24550307   -0.16705169    0.01622655
     atom    5 type  1   force =     0.25307009    0.14351635   -0.02716328
     atom    6 type  2   force =     0.00562926   -0.04774559   -0.07433552
     atom    7 type  2   force =    -0.01526657    0.06254067    0.06183430
     atom    8 type  3   force =    -0.24873910   -0.00150974   -0.00516919
     atom    9 type  3   force =     0.07684218   -0.09857816   -0.00411927
     atom   10 type  3   force =    -0.21097399    0.00373513   -0.21427008
     atom   11 type  3   force =    -0.21538898    0.00270000    0.20335169
     atom   12 type  3   force =    -0.20268671   -0.02161459   -0.17786646
     atom   13 type  3   force =    -0.20948401   -0.00373650    0.20979002
     atom   14 type  3   force =     0.19921880    0.00187673   -0.21807838
     atom   15 type  3   force =     0.20871359    0.00412908    0.20439026
     atom   16 type  3   force =     0.21008645   -0.02478252   -0.17820221
     atom   17 type  3   force =     0.21502526   -0.00786022    0.20791650
     atom   18 type  4   force =    -0.01650094    0.05285065   -0.06118374
     atom   19 type  4   force =     0.06631045    0.00956953    0.07004267
     atom   20 type  4   force =     0.06192644   -0.01525617   -0.06706057
     atom   21 type  4   force =    -0.06169912    0.01000790    0.06891490
     atom   22 type  4   force =    -0.05773835   -0.01117525   -0.06010869
     atom   23 type  5   force =    -0.10342100   -0.05560574   -0.00043024
     The ionic contribution  to forces
     atom    1 type  1   force =    -0.24923736   -4.76070173   14.12561400
     atom    2 type  1   force =   -39.70822258   -6.15423043    0.77970889
     atom    3 type  1   force =   -39.71835869    6.21002370   -0.71331105
     atom    4 type  1   force =    39.51430457   -6.27739086    0.77874604
     atom    5 type  1   force =    39.20781301    6.81335951   -0.70900605
     atom    6 type  2   force =    -0.26335248   -3.72922499  -14.03074922
     atom    7 type  2   force =    -0.48016453    3.71224996   14.19565158
     atom    8 type  3   force =   -52.22854822    0.00600532   -0.06499488
     atom    9 type  3   force =    48.94296937   -1.72668352   -0.06760065
     atom   10 type  3   force =   -36.07214747   -2.10498495  -23.10226338
     atom   11 type  3   force =   -35.14620682   -0.85774505   22.10645274
     atom   12 type  3   force =   -35.27036976    0.84362948  -22.17899056
     atom   13 type  3   force =   -36.06083610    2.22792331   23.10872553
     atom   14 type  3   force =    35.96335325   -2.14270678  -23.17471859
     atom   15 type  3   force =    35.03829104   -0.89498012   22.17869201
     atom   16 type  3   force =    35.09946156    0.95657855  -22.33653054
     atom   17 type  3   force =    35.88758320    2.34220198   23.26807642
     atom   18 type  4   force =    -0.44867532    4.47560756  -14.10471471
     atom   19 type  4   force =   -35.93344566    0.92797469  -25.59713062
     atom   20 type  4   force =   -35.91635114   -0.98143318   25.57531947
     atom   21 type  4   force =    35.68878796    0.85360553  -25.90810468
     atom   22 type  4   force =    35.67191414   -1.05282993   25.88808932
     atom   23 type  5   force =     6.48143804    1.31375194   -0.01696106
     The local contribution  to forces
     atom    1 type  1   force =     0.23399222    4.72216200  -14.11734648
     atom    2 type  1   force =    39.85593440    6.29861906   -0.80388487
     atom    3 type  1   force =    39.85826267   -6.35079694    0.74265035
     atom    4 type  1   force =   -39.66380463    6.42921141   -0.80411484
     atom    5 type  1   force =   -39.35973652   -6.95374115    0.74289606
     atom    6 type  2   force =     0.24760297    3.75315527   14.09106345
     atom    7 type  2   force =     0.48663282   -3.74842150  -14.25484426
     atom    8 type  3   force =    52.37927940    0.00375249    0.05599701
     atom    9 type  3   force =   -49.20666222    1.64990693    0.06286952
     atom   10 type  3   force =    36.28674361    2.07998446   23.27296466
     atom   11 type  3   force =    35.38180124    0.81282660  -22.26670679
     atom   12 type  3   force =    35.47679952   -0.78613276   22.31286767
     atom   13 type  3   force =    36.28792468   -2.18615747  -23.26536598
     atom   14 type  3   force =   -36.16667182    2.11559859   23.34522861
     atom   15 type  3   force =   -35.26740933    0.84263147  -22.33585236
     atom   16 type  3   force =   -35.31574807   -0.89097206   22.46926375
     atom   17 type  3   force =   -36.11976618   -2.29215955  -23.42325837
     atom   18 type  4   force =     0.45561452   -4.50720233   14.14239691
     atom   19 type  4   force =    35.75246291   -0.94659644   25.41255601
     atom   20 type  4   force =    35.74225208    1.00058788  -25.38632404
     atom   21 type  4   force =   -35.51890826   -0.87629054   25.72092706
     atom   22 type  4   force =   -35.50679666    1.07060416  -25.70254303
     atom   23 type  5   force =    -6.04869122   -1.04384822    0.01461805
     The core correction contribution to forces
     atom    1 type  1   force =     0.00034043    0.00248454   -0.00320363
     atom    2 type  1   force =    -0.01125327   -0.00166242    0.00065019
     atom    3 type  1   force =    -0.01222882    0.00307805   -0.00137578
     atom    4 type  1   force =     0.01172993   -0.00270790    0.00078345
     atom    5 type  1   force =     0.01031843    0.00516374   -0.00192306
     atom    6 type  2   force =    -0.00018749    0.00243539    0.00327867
     atom    7 type  2   force =     0.00062234   -0.00294879   -0.00246848
     atom    8 type  3   force =    -0.03032267    0.00057524   -0.00090262
     atom    9 type  3   force =     0.00635394   -0.01500812    0.00025857
     atom   10 type  3   force =    -0.02186047    0.00911100   -0.01749133
     atom   11 type  3   force =    -0.02357367    0.00926388    0.01790101
     atom   12 type  3   force =    -0.02257266   -0.01017547   -0.01522568
     atom   13 type  3   force =    -0.02280879   -0.00942104    0.01662838
     atom   14 type  3   force =     0.02191828    0.00967734   -0.01651589
     atom   15 type  3   force =     0.02334350    0.01022956    0.01685923
     atom   16 type  3   force =     0.02270041   -0.01107889   -0.01435841
     atom   17 type  3   force =     0.02251839   -0.00971709    0.01586399
     atom   18 type  4   force =     0.00083275   -0.00283793    0.00287985
     atom   19 type  4   force =    -0.01002449    0.00001758   -0.00944199
     atom   20 type  4   force =    -0.00989677    0.00044135    0.00946364
     atom   21 type  4   force =     0.00990777    0.00007620   -0.00927860
     atom   22 type  4   force =     0.00974265    0.00026871    0.00893304
     atom   23 type  5   force =     0.00000000    0.00000000    0.00000000
     The Hubbard contrib.    to forces
     atom    1 type  1   force =     0.00000000    0.00000000    0.00000000
     atom    2 type  1   force =     0.00000000    0.00000000    0.00000000
     atom    3 type  1   force =     0.00000000    0.00000000    0.00000000
     atom    4 type  1   force =     0.00000000    0.00000000    0.00000000
     atom    5 type  1   force =     0.00000000    0.00000000    0.00000000
     atom    6 type  2   force =     0.00000000    0.00000000    0.00000000
     atom    7 type  2   force =     0.00000000    0.00000000    0.00000000
     atom    8 type  3   force =     0.00000000    0.00000000    0.00000000
     atom    9 type  3   force =     0.00000000    0.00000000    0.00000000
     atom   10 type  3   force =     0.00000000    0.00000000    0.00000000
     atom   11 type  3   force =     0.00000000    0.00000000    0.00000000
     atom   12 type  3   force =     0.00000000    0.00000000    0.00000000
     atom   13 type  3   force =     0.00000000    0.00000000    0.00000000
     atom   14 type  3   force =     0.00000000    0.00000000    0.00000000
     atom   15 type  3   force =     0.00000000    0.00000000    0.00000000
     atom   16 type  3   force =     0.00000000    0.00000000    0.00000000
     atom   17 type  3   force =     0.00000000    0.00000000    0.00000000
     atom   18 type  4   force =     0.00000000    0.00000000    0.00000000
     atom   19 type  4   force =     0.00000000    0.00000000    0.00000000
     atom   20 type  4   force =     0.00000000    0.00000000    0.00000000
     atom   21 type  4   force =     0.00000000    0.00000000    0.00000000
     atom   22 type  4   force =     0.00000000    0.00000000    0.00000000
     atom   23 type  5   force =     0.00000000    0.00000000    0.00000000
     The SCF correction term to forces
     atom    1 type  1   force =     0.00320026    0.00981791   -0.00852565
     atom    2 type  1   force =    -0.00760600    0.00237121    0.00334367
     atom    3 type  1   force =    -0.00583389   -0.00434706    0.00188847
     atom    4 type  1   force =     0.00870200    0.00321067    0.00412814
     atom    5 type  1   force =     0.01457478   -0.01129253   -0.00046591
     atom    6 type  2   force =     0.00180365    0.00187310    0.01506642
     atom    7 type  2   force =     0.00194921   -0.00868368   -0.01222197
     atom    8 type  3   force =     0.00099436   -0.00023995    0.00863961
     atom    9 type  3   force =     0.00144169   -0.00472405    0.01017193
     atom   10 type  3   force =    -0.00209215   -0.01384141    0.00106416
     atom   11 type  3   force =    -0.01321753   -0.00073481   -0.00464291
     atom   12 type  3   force =     0.00082738    0.00844046    0.00242954
     atom   13 type  3   force =    -0.01230391    0.00012099   -0.00682966
     atom   14 type  3   force =     0.00161918   -0.01350703    0.00253653
     atom   15 type  3   force =     0.01340800    0.00298978   -0.00671904
     atom   16 type  3   force =     0.00019407    0.00745416    0.00496128
     atom   17 type  3   force =     0.01010901    0.00013049   -0.00721454
     atom   18 type  4   force =     0.00253677    0.00561216    0.01005933
     atom   19 type  4   force =    -0.00447708    0.00338637    0.00871834
     atom   20 type  4   force =    -0.01021243    0.00040371   -0.01277644
     atom   21 type  4   force =     0.00510042    0.00348041    0.00993943
     atom   22 type  4   force =     0.01125862   -0.00254743   -0.01505117
     atom   23 type  5   force =     0.00410985    0.00180598    0.00106278

     Total force =     0.681219     Total SCF correction =     0.061494


     Computing stress (Cartesian axis) and pressure


     negative rho (up, down):  9.086E-01 9.086E-01
          total   stress  (Ry/bohr**3)                   (kbar)     P=       93.99
   0.00083270   0.00008616   0.00000227          122.49       12.67        0.33
   0.00008616   0.00070126  -0.00001166           12.67      103.16       -1.72
   0.00000227  -0.00001166   0.00038277            0.33       -1.72       56.31


     Entering Dynamics:    iteration =     3
                           time      =   0.0006 pico-seconds


ATOMIC_POSITIONS (angstrom)
Hf            2.6704593873        2.8273824706        6.6039680979
Hf            1.2534226101        1.2865460738        5.0584656696
[...]
     3.6830   3.8703   3.8764   4.0751   4.2317   4.4536   4.6266   4.6346
     4.7144   4.9633   4.9881   5.0624   5.2058   5.2320   5.2632   5.3228
     5.4894   5.5445   5.6485   5.6620   5.6867   5.6990   5.7181   5.8673
     5.8758   6.0776   6.0956   6.1302   6.1903   6.2345   6.3199   6.3416
     6.5126   6.5313   6.6257   6.7308   6.7657   6.8840   6.9680   6.9920
     7.0596   7.0926   7.2185   7.2427   7.2573   7.3812   7.4983   7.5731
     7.5937   7.7216   7.8697   7.9146   8.0433   8.0548   8.0589   8.1125
     8.1980   8.2186   8.3032   8.3152   8.3386   8.5290   8.6140   8.7135
     8.7324   8.8067   8.8691   9.0130   9.0338   9.1681   9.2190

     the Fermi energy is     7.1888 ev

!    total energy              =   -2942.94057718 Ry
     estimated scf accuracy    <       0.00027049 Ry
     smearing contrib. (-TS)   =      -0.09815044 Ry
     internal energy E=F+TS    =   -2942.84242674 Ry

     total magnetization       =    -0.00 Bohr mag/cell
     absolute magnetization    =     0.00 Bohr mag/cell

     convergence has been achieved in   5 iterations

     negative rho (up, down):  9.086E-01 9.086E-01

     Forces acting on atoms (cartesian axes, Ry/au):

     atom    1 type  1   force =    -0.01301237   -0.03651491    0.02314722
     atom    2 type  1   force =    -0.11464803   -0.01506618   -0.00343496
     atom    3 type  1   force =    -0.14403863    0.00831672    0.00125567
     atom    4 type  1   force =     0.11521471   -0.01669818   -0.00397934
     atom    5 type  1   force =     0.13833586    0.00690926    0.00149323
     atom    6 type  2   force =    -0.01237654   -0.02286010   -0.00138162
     atom    7 type  2   force =    -0.00311729    0.01326079   -0.00589668
     atom    8 type  3   force =    -0.13237502    0.01103072   -0.00397080
     atom    9 type  3   force =     0.15317106    0.03057201   -0.00649103
     atom   10 type  3   force =    -0.01849151   -0.02983150   -0.05874011
     atom   11 type  3   force =    -0.01640308   -0.03285134    0.05611930
     atom   12 type  3   force =    -0.02094875    0.03682896   -0.05309320
     atom   13 type  3   force =    -0.01939678    0.02919054    0.05952471
     atom   14 type  3   force =     0.02120866   -0.03384891   -0.05961407
     atom   15 type  3   force =     0.01755040   -0.03574291    0.05662948
     atom   16 type  3   force =     0.02099064    0.03746947   -0.05459259
     atom   17 type  3   force =     0.02101144    0.03034801    0.06146306
     atom   18 type  4   force =    -0.00145648    0.02106704   -0.01284912
     atom   19 type  4   force =    -0.12803120   -0.00540121   -0.11576087
     atom   20 type  4   force =    -0.13085629    0.00436703    0.11709400
     atom   21 type  4   force =     0.12921240   -0.00635111   -0.11604606
     atom   22 type  4   force =     0.13262927    0.00517676    0.11790723
     atom   23 type  5   force =     0.00582756    0.00062903    0.00121653
     The non-local contrib.  to forces
     atom    1 type  1   force =     0.00703352   -0.00702132    0.01686340
     atom    2 type  1   force =    -0.25644895   -0.15909571    0.01759680
     atom    3 type  1   force =    -0.25085257    0.16232132   -0.02626899
     atom    4 type  1   force =     0.25963670   -0.16452836    0.01679953
     atom    5 type  1   force =     0.25446931    0.16075384   -0.02725221
     atom    6 type  2   force =     0.00598582   -0.04279426   -0.05694939
     atom    7 type  2   force =     0.00403783    0.05861836    0.06009367
     atom    8 type  3   force =    -0.29234252    0.01019967   -0.00531822
     atom    9 type  3   force =     0.24917393    0.00151928    0.00007027
     atom   10 type  3   force =    -0.20159304    0.00088088   -0.21080999
     atom   11 type  3   force =    -0.21112673    0.00333535    0.19739189
     atom   12 type  3   force =    -0.22017162   -0.02170784   -0.17583096
     atom   13 type  3   force =    -0.23079884   -0.00823008    0.20257196
     atom   14 type  3   force =     0.19983017   -0.00080351   -0.20934411
     atom   15 type  3   force =     0.20733510    0.00341345    0.19559779
     atom   16 type  3   force =     0.21730157   -0.01905266   -0.17734829
     atom   17 type  3   force =     0.22938515   -0.00513036    0.20550100
     atom   18 type  4   force =     0.00146871    0.05251778   -0.06561185
     atom   19 type  4   force =     0.05916250    0.00997161    0.06737733
     atom   20 type  4   force =     0.05757062   -0.01488798   -0.06461542
     atom   21 type  4   force =    -0.06284416    0.01026027    0.07065389
     atom   22 type  4   force =    -0.06139377   -0.01341772   -0.06839081
     atom   23 type  5   force =     0.00120118    0.00063500   -0.00001743
     The ionic contribution  to forces
     atom    1 type  1   force =    -0.20263991   -4.93326134   14.58888972
     atom    2 type  1   force =   -39.63467618   -6.17336134    0.77832029
     atom    3 type  1   force =   -39.21468767    6.26673165   -0.71298115
     atom    4 type  1   force =    39.71931148   -6.33719830    0.77795168
     atom    5 type  1   force =    39.42958876    5.92759120   -0.71515961
     atom    6 type  2   force =    -0.20420361   -3.90855398  -14.51038845
     atom    7 type  2   force =     0.22392313    3.78416449   14.12976681
     atom    8 type  3   force =   -52.32523830    0.00843815   -0.06732897
     atom    9 type  3   force =    51.65028601    0.65681829   -0.03591309
     atom   10 type  3   force =   -35.98448685   -2.07532748  -23.13552661
     atom   11 type  3   force =   -35.05878647   -0.82760936   22.14008053
     atom   12 type  3   force =   -35.06582394    0.82351311  -22.23070640
     atom   13 type  3   force =   -35.84735080    2.20687443   23.16018215
     atom   14 type  3   force =    36.01994386   -2.08380903  -23.13722081
     atom   15 type  3   force =    35.09446851   -0.83572553   22.14113830
     atom   16 type  3   force =    35.14017855    0.76292180  -22.15611628
     atom   17 type  3   force =    35.92261383    2.14597151   23.08475738
     atom   18 type  4   force =     0.20755175    4.54695968  -14.04548236
     atom   19 type  4   force =   -35.78616869    0.91983926  -25.62061596
     atom   20 type  4   force =   -35.76454494   -0.98687361   25.59830812
     atom   21 type  4   force =    35.91258837    0.99443393  -25.51685669
     atom   22 type  4   force =    35.89136405   -0.91462662   25.48994295
     atom   23 type  5   force =    -0.12321093    0.03208909   -0.00504154
     The local contribution  to forces
     atom    1 type  1   force =     0.17785350    4.90205873  -14.58461672
     atom    2 type  1   force =    39.78521257    6.31773466   -0.80543943
     atom    3 type  1   force =    39.31900975   -6.42792833    0.73705363
     atom    4 type  1   force =   -39.87900816    6.48590000   -0.80468143
     atom    5 type  1   force =   -39.56273786   -6.08142490    0.73959513
     atom    6 type  2   force =     0.18030290    3.92456439   14.54988062
     atom    7 type  2   force =    -0.23948167   -3.82704111  -14.19936809
     atom    8 type  3   force =    52.51275185   -0.00615076    0.06364657
     atom    9 type  3   force =   -51.78788753   -0.63324918    0.02548569
     atom   10 type  3   force =    36.18544741    2.03222754   23.30025447
     atom   11 type  3   force =    35.27596664    0.78334691  -22.29703143
     atom   12 type  3   force =    35.28254082   -0.75159164   22.36542344
     atom   13 type  3   force =    36.07868556   -2.16112728  -23.31903581
     atom   14 type  3   force =   -36.22207099    2.03652053   23.29796967
     atom   15 type  3   force =   -35.31241315    0.78938694  -22.29422386
     atom   16 type  3   force =   -35.36184115   -0.68950883   22.28823432
     atom   17 type  3   force =   -36.16039517   -2.09965962  -23.24110074
     atom   18 type  4   force =    -0.21823490   -4.57391191   14.08265718
     atom   19 type  4   force =    35.60339668   -0.93561557   25.44420760
     atom   20 type  4   force =    35.58494438    1.00516358  -25.42513662
     atom   21 type  4   force =   -35.73341211   -1.01274425   25.33450597
     atom   22 type  4   force =   -35.71410314    0.92987194  -25.31021163
     atom   23 type  5   force =     0.12986967   -0.03064675    0.00420405
     The core correction contribution to forces
     atom    1 type  1   force =     0.00095872    0.00145400   -0.00151871
     atom    2 type  1   force =    -0.01261424   -0.00150376    0.00080265
     atom    3 type  1   force =    -0.00930884    0.00589952   -0.00148964
     atom    4 type  1   force =     0.01355963   -0.00198339    0.00071056
     atom    5 type  1   force =     0.01031546    0.00586335   -0.00151912
     atom    6 type  2   force =    -0.00038164    0.00199857    0.00220567
     atom    7 type  2   force =    -0.00019894   -0.00306520   -0.00234274
     atom    8 type  3   force =    -0.03360537    0.00044940   -0.00045806
     atom    9 type  3   force =     0.03111050    0.00031679   -0.00032935
     atom   10 type  3   force =    -0.02182733    0.00904492   -0.01607587
     atom   11 type  3   force =    -0.02341865    0.00922221    0.01649330
     atom   12 type  3   force =    -0.02387411   -0.00983736   -0.01483095
     atom   13 type  3   force =    -0.02379768   -0.00920179    0.01579193
     atom   14 type  3   force =     0.02156746    0.00917166   -0.01576389
     atom   15 type  3   force =     0.02313246    0.00944735    0.01609933
     atom   16 type  3   force =     0.02341092   -0.01006722   -0.01484512
     atom   17 type  3   force =     0.02351948   -0.00935995    0.01573799
     atom   18 type  4   force =    -0.00007994   -0.00297249    0.00309759
     atom   19 type  4   force =    -0.00980366    0.00001669   -0.00922281
     atom   20 type  4   force =    -0.00980968    0.00045382    0.00912304
     atom   21 type  4   force =     0.01005466    0.00000945   -0.00939560
     atom   22 type  4   force =     0.01010762    0.00038616    0.00933816
     atom   23 type  5   force =     0.00000000    0.00000000    0.00000000
     The Hubbard contrib.    to forces
     atom    1 type  1   force =     0.00000000    0.00000000    0.00000000
     atom    2 type  1   force =     0.00000000    0.00000000    0.00000000
     atom    3 type  1   force =     0.00000000    0.00000000    0.00000000
     atom    4 type  1   force =     0.00000000    0.00000000    0.00000000
     atom    5 type  1   force =     0.00000000    0.00000000    0.00000000
     atom    6 type  2   force =     0.00000000    0.00000000    0.00000000
     atom    7 type  2   force =     0.00000000    0.00000000    0.00000000
     atom    8 type  3   force =     0.00000000    0.00000000    0.00000000
     atom    9 type  3   force =     0.00000000    0.00000000    0.00000000
     atom   10 type  3   force =     0.00000000    0.00000000    0.00000000
     atom   11 type  3   force =     0.00000000    0.00000000    0.00000000
     atom   12 type  3   force =     0.00000000    0.00000000    0.00000000
     atom   13 type  3   force =     0.00000000    0.00000000    0.00000000
     atom   14 type  3   force =     0.00000000    0.00000000    0.00000000
     atom   15 type  3   force =     0.00000000    0.00000000    0.00000000
     atom   16 type  3   force =     0.00000000    0.00000000    0.00000000
     atom   17 type  3   force =     0.00000000    0.00000000    0.00000000
     atom   18 type  4   force =     0.00000000    0.00000000    0.00000000
     atom   19 type  4   force =     0.00000000    0.00000000    0.00000000
     atom   20 type  4   force =     0.00000000    0.00000000    0.00000000
     atom   21 type  4   force =     0.00000000    0.00000000    0.00000000
     atom   22 type  4   force =     0.00000000    0.00000000    0.00000000
     atom   23 type  5   force =     0.00000000    0.00000000    0.00000000
     The SCF correction term to forces
     atom    1 type  1   force =     0.00299548    0.00024906    0.00276103
     atom    2 type  1   force =     0.00309246    0.00115400    0.00451623
     atom    3 type  1   force =     0.01101439    0.00128660    0.00417331
     atom    4 type  1   force =     0.00092875    0.00110590    0.00447184
     atom    5 type  1   force =     0.00591387   -0.00588019    0.00506054
     atom    6 type  2   force =     0.00513367    0.00191922    0.01310143
     atom    7 type  2   force =     0.00781605    0.00057829    0.00518518
     atom    8 type  3   force =     0.00527301   -0.00191170    0.00471938
     atom    9 type  3   force =     0.00970184    0.00516088    0.00342695
     atom   10 type  3   force =     0.00318198    0.00333668    0.00264939
     atom   11 type  3   force =     0.00017582   -0.00115240   -0.00158348
     atom   12 type  3   force =     0.00559378   -0.00355326    0.00208317
     atom   13 type  3   force =     0.00307867    0.00086930   -0.00075400
     atom   14 type  3   force =     0.00115185    0.00506548    0.00397657
     atom   15 type  3   force =     0.00424117   -0.00227109   -0.00275058
     atom   16 type  3   force =     0.00115444   -0.00682958    0.00471430
     atom   17 type  3   force =     0.00510184   -0.00147954   -0.00420107
     atom   18 type  4   force =     0.00705158   -0.00153198    0.01172182
     atom   19 type  4   force =     0.00459567    0.00038084    0.00172449
     atom   20 type  4   force =     0.00019703    0.00050526   -0.00135361
     atom   21 type  4   force =     0.00203932    0.00168354    0.00427788
     atom   22 type  4   force =     0.00586820    0.00295704   -0.00353994
     atom   23 type  5   force =    -0.00281867   -0.00145426    0.00130296

     Total force =     0.522981     Total SCF correction =     0.037030


     Computing stress (Cartesian axis) and pressure


     negative rho (up, down):  9.086E-01 9.086E-01
          total   stress  (Ry/bohr**3)                   (kbar)     P=       82.49
   0.00062448   0.00000601  -0.00000078           91.86        0.88       -0.11
   0.00000601   0.00066149  -0.00001272            0.88       97.31       -1.87
  -0.00000078  -0.00001272   0.00039625           -0.11       -1.87       58.29


     Entering Dynamics:    iteration =    20
                           time      =   0.0041 pico-seconds


ATOMIC_POSITIONS (angstrom)
Hf            2.6731060421        2.8286517027        6.6040841766
Hf            1.2547260848        1.2878779853        5.0584302168
Hf            1.2571949537        7.3917120812        5.0881037895
Hf            4.0914796249        1.2879293787        5.0584331793
Hf            4.0890798224        7.3915362532        5.0881142756
Nb            2.6731179221        2.7983807785        3.5157296423
Nb            2.6730885336        5.8784215074        6.6346639653
Ta            1.2111219064        4.3428162215        5.0710711507
Ta            4.0584926578        4.2976258944        5.0709427693
Ta            1.3100742303        1.3155605953        2.0580979675
Ta            1.3056332756        1.3097613640        8.0952115884
Ta            1.3068872602        7.3780185725        2.0456028727
Ta            1.3105643289        7.3671995332        8.0866939932
Ta            4.0360393266        1.3155578873        2.0580940362
Ta            4.0404951795        1.3097846397        8.0952120285
Ta            4.0392560833        7.3780260160        2.0456253711
Ta            4.0355623386        7.3672152454        8.0866778488
Zr            2.6730785583        5.8685589454        3.5272726613
Zr            1.2439732244        4.3237332592        1.9974051462
Zr            1.2404407414        4.3560206960        8.1523925233
Zr            4.1020878625        4.3236559346        1.9974539481
Zr            4.1056607036        4.3559787401        8.1523198771
H             7.6261042691        6.4523402624        5.0908486355


     kinetic energy (Ekin) =          15.96399958 Ry
     temperature           =       76379.27825457 K 
     Ekin + Etot (const)   =       -2926.97657759 Ry
     Ions kinetic stress =          281.94 (kbar)
                                    617.57         375.24           3.48
                                    375.24         228.09           2.12
                                      3.48           2.12           0.16



     Linear momentum :   -0.0000000000   -0.0000000000   -0.0000000000

     The maximum number of steps has been reached.

     End of molecular dynamics calculation

     diffusion coefficients :
     atom     1   D =       0.00000005 cm^2/s
     atom     2   D =       0.00000002 cm^2/s
     atom     3   D =       0.00000003 cm^2/s
     atom     4   D =       0.00000009 cm^2/s
     atom     5   D =       0.00000010 cm^2/s
     atom     6   D =       0.00000005 cm^2/s
     atom     7   D =       0.00000006 cm^2/s
     atom     8   D =       0.00000003 cm^2/s
     atom     9   D =       0.00002903 cm^2/s
     atom    10   D =       0.00000004 cm^2/s
     atom    11   D =       0.00000004 cm^2/s
     atom    12   D =       0.00000006 cm^2/s
     atom    13   D =       0.00000005 cm^2/s
     atom    14   D =       0.00000005 cm^2/s
     atom    15   D =       0.00000005 cm^2/s
     atom    16   D =       0.00000007 cm^2/s
     atom    17   D =       0.00000006 cm^2/s
     atom    18   D =       0.00000006 cm^2/s
     atom    19   D =       0.00000004 cm^2/s
     atom    20   D =       0.00000004 cm^2/s
     atom    21   D =       0.00000018 cm^2/s
     atom    22   D =       0.00000019 cm^2/s
     atom    23   D =       0.01782979 cm^2/s

     < D > =       0.00077653 cm^2/s

     Writing all to output data dir outdir/pwscf.save/

     init_run     :      9.84s CPU     11.78s WALL (       1 calls)
     electrons    :   2538.52s CPU   2974.30s WALL (      20 calls)
     update_pot   :     19.12s CPU     20.56s WALL (      19 calls)
     forces       :    234.44s CPU    268.60s WALL (      20 calls)
     stress       :    333.98s CPU    357.34s WALL (      20 calls)

     Called by init_run:
     wfcinit      :      7.35s CPU      8.87s WALL (       1 calls)
     potinit      :      0.45s CPU      0.49s WALL (       1 calls)
     hinit0       :      0.97s CPU      1.05s WALL (       1 calls)

     Called by electrons:
     c_bands      :   2016.81s CPU   2377.75s WALL (     101 calls)
     sum_band     :    344.27s CPU    395.05s WALL (     101 calls)
     v_of_rho     :     11.07s CPU     12.68s WALL (     121 calls)
     newd         :    189.93s CPU    216.91s WALL (     121 calls)
     mix_rho      :      1.00s CPU      1.31s WALL (     101 calls)

     Called by c_bands:
     init_us_2    :      3.90s CPU      4.06s WALL (     486 calls)
     init_us_2:cp :      3.89s CPU      4.05s WALL (     486 calls)
     regterg      :   2002.26s CPU   2360.16s WALL (     202 calls)

     Called by *egterg:
     rdiaghg      :     70.64s CPU     87.53s WALL (    1644 calls)
     h_psi        :   1037.82s CPU   1149.75s WALL (    1684 calls)
     s_psi        :    350.82s CPU    351.38s WALL (    1684 calls)
     g_psi        :      0.76s CPU      0.81s WALL (    1480 calls)

     Called by h_psi:
     h_psi:calbec :    496.32s CPU    572.36s WALL (    1684 calls)
     vloc_psi     :    109.78s CPU    144.50s WALL (    1684 calls)
     add_vuspsi   :    430.35s CPU    431.46s WALL (    1684 calls)

     General routines
     calbec       :    855.86s CPU    995.94s WALL (    2086 calls)
     fft          :      8.45s CPU     21.44s WALL (    2514 calls)
     ffts         :      0.23s CPU      0.28s WALL (     101 calls)
     fftw         :    118.39s CPU    156.69s WALL (  107566 calls)

     Parallel routines

     PWSCF        :  52m40.81s CPU      1h 1m WALL


   This run was terminated on:  22:12: 6  14Jun2023            

=------------------------------------------------------------------------------=
   JOB DONE.
=------------------------------------------------------------------------------=
