
     Program PWSCF v.7.2 starts on 15Jun2023 at 21:11:19 

     This program is part of the open-source Quantum ESPRESSO suite
     for quantum simulation of materials; please cite
         "P. Giannozzi et al., J. Phys.:Condens. Matter 21 395502 (2009);
         "P. Giannozzi et al., J. Phys.:Condens. Matter 29 465901 (2017);
         "P. Giannozzi et al., J. Chem. Phys. 152 154105 (2020);
          URL http://www.quantum-espresso.org", 
     in publications or presentations arising from this work. More details at
     http://www.quantum-espresso.org/quote

     Parallel version (MPI), running on    42 processors

     MPI processes distributed on     1 nodes
     173238 MiB available memory on the printing compute node when the environment starts

     Reading input from md_data/md_Hf5Nb2Ta10Zr5H_20steps_50eV_incident60_polar0.in
Warning: card &CELL ignored
Warning: card / ignored

     Current dimensions of program PWSCF are:
     Max number of different atomic species (ntypx) = 10
     Max number of k-points (npk) =  40000
     Max angular momentum in pseudopotentials (lmaxx) =  4

     File outdir/pwscf.md deleted, as requested

     gamma-point specific algorithms are used

     R & G space division:  proc/nbgrp/npool/nimage =      42
     Subspace diagonalization in iterative solution of the eigenvalue problem:
     one sub-group per band group will be used
     custom distributed-memory algorithm (size of sub-group:  2*  2 procs)


     Parallelization info
     --------------------
     sticks:   dense  smooth     PW     G-vecs:    dense   smooth      PW
     Min         262     262     63                23470    23470    2920
     Max         265     265     66                23484    23484    2942
     Sum       11057   11057   2753               986005   986005  123175

     Using Slab Decomposition



     bravais-lattice index     =            0
     lattice parameter (alat)  =      17.6500  a.u.
     unit-cell volume          =    5552.8853 (a.u.)^3
     number of atoms/cell      =           23
     number of atomic types    =            5
     number of electrons       =       277.00
     number of Kohn-Sham states=          167
     kinetic-energy cutoff     =     120.0000  Ry
     charge density cutoff     =     480.0000  Ry
     scf convergence threshold =      1.0E-03
     mixing beta               =       0.7000
     number of iterations used =            8  TF        mixing
     energy convergence thresh.=      0.0E+00
     force convergence thresh. =      0.0E+00
     Exchange-correlation=  SLA  PW   PBX  PBC
                           (   1   4   3   4   0   0   0)
     nstep                     =           20


     celldm(1)=  17.650041  celldm(2)=   0.000000  celldm(3)=   0.000000
     celldm(4)=   0.000000  celldm(5)=   0.000000  celldm(6)=   0.000000

     crystal axes: (cart. coord. in units of alat)
               a(1) = (   1.000000   0.000000   0.000000 )  
               a(2) = (   0.000000   0.929336   0.000000 )  
               a(3) = (   0.000000   0.000000   1.086698 )  

     reciprocal axes: (cart. coord. in units 2 pi/alat)
               b(1) = (  1.000000  0.000000  0.000000 )  
               b(2) = (  0.000000  1.076037  0.000000 )  
               b(3) = (  0.000000  0.000000  0.920219 )  


     PseudoPot. # 1 for Hf read from file:
     q-e/pseudo/hf_pbe_v1.uspp.F.UPF
     MD5 check sum: 8ee9378dfe14276e333edf04c5e4aa26
     Pseudo is Ultrasoft + core correction, Zval = 12.0
     Generated by new atomic code, or converted to UPF format
     Using radial grid of  921 points,  8 beta functions with: 
                l(1) =   0
                l(2) =   0
                l(3) =   0
                l(4) =   1
                l(5) =   1
                l(6) =   2
                l(7) =   2
                l(8) =   3
     Q(r) pseudized with  6 coefficients,  rinner =    1.200   1.200   1.200
                                                       1.200   1.200   1.200
                                                       1.200

     PseudoPot. # 2 for Nb read from file:
     q-e/pseudo/nb_pbe_v1.uspp.F.UPF
     MD5 check sum: 573aab8a2fa660278ed4a62cd769473f
     Pseudo is Ultrasoft + core correction, Zval = 13.0
     Generated by new atomic code, or converted to UPF format
     Using radial grid of  887 points,  6 beta functions with: 
                l(1) =   0
                l(2) =   0
                l(3) =   1
                l(4) =   1
                l(5) =   2
                l(6) =   2
     Q(r) pseudized with  6 coefficients,  rinner =    1.000   1.000   1.000
                                                       1.000   1.000

     PseudoPot. # 3 for Ta read from file:
     q-e/pseudo/ta_pbe_v1.uspp.F.UPF
     MD5 check sum: f8bbe9446314a3b8ea5d9f3e3836c939
     Pseudo is Ultrasoft + core correction, Zval = 13.0
     Generated by new atomic code, or converted to UPF format
     Using radial grid of  921 points,  7 beta functions with: 
                l(1) =   0
                l(2) =   0
                l(3) =   1
                l(4) =   1
                l(5) =   2
                l(6) =   2
                l(7) =   3
     Q(r) pseudized with  6 coefficients,  rinner =    1.300   1.300   1.300
                                                       1.300   1.300   1.300
                                                       1.300

     PseudoPot. # 4 for Zr read from file:
     q-e/pseudo/zr_pbe_v1.uspp.F.UPF
     MD5 check sum: 5db81b1e868ab7776c4564c113de050b
     Pseudo is Ultrasoft + core correction, Zval = 12.0
     Generated by new atomic code, or converted to UPF format
     Using radial grid of  887 points,  6 beta functions with: 
                l(1) =   0
                l(2) =   0
                l(3) =   1
                l(4) =   1
                l(5) =   2
                l(6) =   2
     Q(r) pseudized with  6 coefficients,  rinner =    1.200   1.200   1.200
                                                       1.200   1.200

     PseudoPot. # 5 for H  read from file:
     q-e/pseudo/h_pbe_v1.4.uspp.F.UPF
     MD5 check sum: 761ae9a214b05c3daf00ab9f6b793d6f
     Pseudo is Ultrasoft, Zval =  1.0
     Generated by new atomic code, or converted to UPF format
     Using radial grid of  615 points,  2 beta functions with: 
                l(1) =   0
                l(2) =   0
     Q(r) pseudized with  8 coefficients,  rinner =    0.700

     atomic species   valence    mass     pseudopotential
        Hf            12.00   178.49000     Hf( 1.00)
        Nb            13.00    92.90637     Nb( 1.00)
        Ta            13.00   180.94788     Ta( 1.00)
        Zr            12.00    91.22400     Zr( 1.00)
        H              1.00     2.01400     H ( 1.00)

     Starting magnetic structure 
     atomic species   magnetization
        Hf           0.000
        Nb           0.000
        Ta           0.000
        Zr           0.000
        H            0.000

     No symmetry found



   Cartesian axes

     site n.     atom                  positions (alat units)
         1           Hf  tau(   1) = (   0.2858672   0.3026898   0.7070626  )
         2           Hf  tau(   2) = (   0.1341532   0.1377178   0.5415917  )
         3           Hf  tau(   3) = (   0.1344204   0.7911996   0.5447610  )
         4           Hf  tau(   4) = (   0.4375813   0.1377178   0.5415917  )
         5           Hf  tau(   5) = (   0.4373140   0.7911996   0.5447610  )
         6           Nb  tau(   6) = (   0.2858672   0.2994572   0.3764008  )
         7           Nb  tau(   7) = (   0.2858672   0.6291626   0.7103852  )
         8           Ta  tau(   8) = (   0.1294832   0.4647675   0.5429471  )
         9           Ta  tau(   9) = (   0.4422513   0.4647675   0.5429471  )
        10           Ta  tau(  10) = (   0.1399628   0.1406984   0.2204260  )
        11           Ta  tau(  11) = (   0.1394848   0.1400847   0.8666573  )
        12           Ta  tau(  12) = (   0.1396156   0.7897030   0.2190832  )
        13           Ta  tau(  13) = (   0.1400119   0.7885528   0.8657390  )
        14           Ta  tau(  14) = (   0.4317717   0.1406984   0.2204260  )
        15           Ta  tau(  15) = (   0.4322496   0.1400847   0.8666573  )
        16           Ta  tau(  16) = (   0.4321189   0.7897030   0.2190832  )
        17           Ta  tau(  17) = (   0.4317226   0.7885528   0.8657390  )
        18           Zr  tau(  18) = (   0.2858672   0.6280820   0.3776642  )
        19           Zr  tau(  19) = (   0.1331729   0.4627493   0.2141328  )
        20           Zr  tau(  20) = (   0.1328036   0.4661802   0.8725649  )
        21           Zr  tau(  21) = (   0.4385616   0.4627493   0.2141328  )
        22           Zr  tau(  22) = (   0.4389309   0.4661802   0.8725649  )
        23           H   tau(  23) = (   0.5493177   0.6501125   0.5430600  )

     number of k points=     1  Gaussian smearing, width (Ry)=  0.0220
                       cart. coord. in units 2pi/alat
        k(    1) = (   0.0000000   0.0000000   0.0000000), wk =   1.0000000

     Dense  grid:   493003 G-vectors     FFT dimensions: ( 125, 120, 135)

     Estimated max dynamical RAM per process >     133.03 MB

     Estimated total dynamical RAM >       5.46 GB

     Check: negative core charge=   -0.000002
     Generating pointlists ...
     new r_m :   0.0743 (alat units)  1.3116 (a.u.) for type    1
     new r_m :   0.1098 (alat units)  1.9374 (a.u.) for type    2
     new r_m :   0.0883 (alat units)  1.5584 (a.u.) for type    3
     new r_m :   0.1112 (alat units)  1.9625 (a.u.) for type    4
     new r_m :   0.0743 (alat units)  1.3116 (a.u.) for type    5

     Initial potential from superposition of free atoms

     starting charge     266.9726, renormalised to     277.0000

     negative rho (up, down):  9.215E-01 9.215E-01
     Starting wfcs are  287 randomized atomic wfcs

     total cpu time spent up to now is       12.7 secs

     Self-consistent Calculation

     iteration #  1     ecut=   120.00 Ry     beta= 0.70
     Davidson diagonalization with overlap
     ethr =  1.00E-02,  avg # of iterations =  2.0

     negative rho (up, down):  9.929E-01 9.925E-01

     total cpu time spent up to now is       33.5 secs

     total energy              =   -2930.75952896 Ry
     estimated scf accuracy    <     275.99752953 Ry

     total magnetization       =    -0.00 Bohr mag/cell
     absolute magnetization    =     0.09 Bohr mag/cell

     iteration #  2     ecut=   120.00 Ry     beta= 0.70
     Davidson diagonalization with overlap
     ethr =  1.00E-02,  avg # of iterations =  5.0

     negative rho (up, down):  9.662E-01 9.734E-01

     total cpu time spent up to now is       55.5 secs

     total energy              =   -2942.24022512 Ry
     estimated scf accuracy    <      29.87893352 Ry

     total magnetization       =     0.17 Bohr mag/cell
     absolute magnetization    =     0.29 Bohr mag/cell

     iteration #  3     ecut=   120.00 Ry     beta= 0.70
     Davidson diagonalization with overlap
     ethr =  1.00E-02,  avg # of iterations =  2.0

     negative rho (up, down):  1.007E+00 1.006E+00

     total cpu time spent up to now is       74.6 secs

     total energy              =   -2942.60898583 Ry
     estimated scf accuracy    <      13.17580247 Ry

     total magnetization       =     0.19 Bohr mag/cell
     absolute magnetization    =     0.40 Bohr mag/cell

     iteration #  4     ecut=   120.00 Ry     beta= 0.70
     Davidson diagonalization with overlap
     ethr =  4.76E-03,  avg # of iterations =  4.5

     negative rho (up, down):  1.014E+00 1.006E+00

     total cpu time spent up to now is       92.6 secs

     total energy              =   -2942.93599513 Ry
     estimated scf accuracy    <       2.92107439 Ry

     total magnetization       =     0.29 Bohr mag/cell
     absolute magnetization    =     0.66 Bohr mag/cell

     iteration #  5     ecut=   120.00 Ry     beta= 0.70
     Davidson diagonalization with overlap
     ethr =  1.05E-03,  avg # of iterations =  7.0

     negative rho (up, down):  9.859E-01 9.819E-01

     total cpu time spent up to now is      127.3 secs

     total energy              =   -2943.06889294 Ry
     estimated scf accuracy    <       1.34317267 Ry

     total magnetization       =     0.20 Bohr mag/cell
     absolute magnetization    =     0.35 Bohr mag/cell

     iteration #  6     ecut=   120.00 Ry     beta= 0.70
     Davidson diagonalization with overlap
     ethr =  4.85E-04,  avg # of iterations =  2.0

     negative rho (up, down):  9.746E-01 9.718E-01

     total cpu time spent up to now is      164.1 secs

     total energy              =   -2943.08790273 Ry
     estimated scf accuracy    <       1.14781799 Ry

     total magnetization       =     0.13 Bohr mag/cell
     absolute magnetization    =     0.25 Bohr mag/cell

     iteration #  7     ecut=   120.00 Ry     beta= 0.70
     Davidson diagonalization with overlap
     ethr =  4.14E-04,  avg # of iterations =  2.0

     negative rho (up, down):  9.461E-01 9.449E-01

     total cpu time spent up to now is      192.5 secs

     total energy              =   -2943.04906984 Ry
     estimated scf accuracy    <       0.34250945 Ry

     total magnetization       =     0.15 Bohr mag/cell
     absolute magnetization    =     0.26 Bohr mag/cell

     iteration #  8     ecut=   120.00 Ry     beta= 0.70
     Davidson diagonalization with overlap
     ethr =  1.24E-04,  avg # of iterations =  7.0

     negative rho (up, down):  9.202E-01 9.207E-01

     total cpu time spent up to now is      211.4 secs

     total energy              =   -2943.04280587 Ry
     estimated scf accuracy    <       0.22957815 Ry

     total magnetization       =     0.15 Bohr mag/cell
     absolute magnetization    =     0.23 Bohr mag/cell

     iteration #  9     ecut=   120.00 Ry     beta= 0.70
     Davidson diagonalization with overlap
     ethr =  8.29E-05,  avg # of iterations =  2.5

     negative rho (up, down):  9.085E-01 9.089E-01

     total cpu time spent up to now is      229.2 secs

     total energy              =   -2943.04089026 Ry
     estimated scf accuracy    <       0.06626292 Ry

     total magnetization       =     0.11 Bohr mag/cell
     absolute magnetization    =     0.18 Bohr mag/cell

     iteration # 10     ecut=   120.00 Ry     beta= 0.70
     Davidson diagonalization with overlap
     ethr =  2.39E-05,  avg # of iterations = 13.0

     negative rho (up, down):  9.080E-01 9.080E-01

     total cpu time spent up to now is      252.0 secs

     total energy              =   -2943.04428062 Ry
     estimated scf accuracy    <       0.03690977 Ry

     total magnetization       =     0.10 Bohr mag/cell
     absolute magnetization    =     0.16 Bohr mag/cell

     iteration # 11     ecut=   120.00 Ry     beta= 0.70
     Davidson diagonalization with overlap
     ethr =  1.33E-05,  avg # of iterations =  3.5

     negative rho (up, down):  9.089E-01 9.089E-01

     total cpu time spent up to now is      274.5 secs

     total energy              =   -2943.04833370 Ry
     estimated scf accuracy    <       0.00997905 Ry

     total magnetization       =     0.09 Bohr mag/cell
     absolute magnetization    =     0.14 Bohr mag/cell

     iteration # 12     ecut=   120.00 Ry     beta= 0.70
     Davidson diagonalization with overlap
     c_bands:  1 eigenvalues not converged
     ethr =  3.60E-06,  avg # of iterations = 12.5

     negative rho (up, down):  9.091E-01 9.091E-01

     total cpu time spent up to now is      318.0 secs

     total energy              =   -2943.05117637 Ry
     estimated scf accuracy    <       0.00158371 Ry

     total magnetization       =     0.09 Bohr mag/cell
     absolute magnetization    =     0.12 Bohr mag/cell

     iteration # 13     ecut=   120.00 Ry     beta= 0.70
     Davidson diagonalization with overlap
     c_bands:  1 eigenvalues not converged
     ethr =  5.72E-07,  avg # of iterations = 12.0

     negative rho (up, down):  9.088E-01 9.088E-01

     Magnetic moment per site  (integrated on atomic sphere of radius R)
     atom   1 (R=0.074)  charge=  5.9339  magn=  0.0001
     atom   2 (R=0.074)  charge=  5.8660  magn=  0.0001
     atom   3 (R=0.074)  charge=  5.8649  magn= -0.0000
     atom   4 (R=0.074)  charge=  5.8650  magn= -0.0000
     atom   5 (R=0.074)  charge=  5.8807  magn=  0.0001
     atom   6 (R=0.110)  charge= 10.3457  magn=  0.0000
     atom   7 (R=0.110)  charge= 10.3485  magn=  0.0007
     atom   8 (R=0.088)  charge=  8.1223  magn= -0.0000
     atom   9 (R=0.088)  charge=  8.1194  magn=  0.0001
     atom  10 (R=0.088)  charge=  8.1026  magn=  0.0014
     atom  11 (R=0.088)  charge=  8.0985  magn=  0.0010
     atom  12 (R=0.088)  charge=  8.1012  magn=  0.0018
     atom  13 (R=0.088)  charge=  8.1018  magn=  0.0005
     atom  14 (R=0.088)  charge=  8.1029  magn=  0.0011
     atom  15 (R=0.088)  charge=  8.0974  magn=  0.0006
     atom  16 (R=0.088)  charge=  8.1056  magn=  0.0032
     atom  17 (R=0.088)  charge=  8.1033  magn=  0.0012
     atom  18 (R=0.111)  charge=  9.4538  magn= -0.0002
     atom  19 (R=0.111)  charge=  9.0024  magn=  0.0052
     atom  20 (R=0.111)  charge=  8.9941  magn= -0.0016
     atom  21 (R=0.111)  charge=  9.0072  magn=  0.0055
     atom  22 (R=0.111)  charge=  8.9959  magn= -0.0016
     atom  23 (R=0.074)  charge=  0.9756  magn=  0.0001

     total cpu time spent up to now is      355.0 secs

     End of self-consistent calculation

 ------ SPIN UP ------------


          k = 0.0000 0.0000 0.0000 ( 61588 PWs)   bands (ev):

   -60.7847 -60.7829 -60.7408 -60.7370 -60.7104 -60.6918 -60.6674 -60.6483
   -60.5692 -60.4927 -54.3621 -54.2837 -54.2272 -53.9357 -52.7036 -46.2781
   -46.2580 -41.6591 -41.6320 -41.5589 -41.5490 -39.8203 -27.7885 -27.7773
   -27.7045 -27.6885 -27.6059 -27.5949 -27.4764 -27.4644 -27.4340 -27.3363
   -27.3208 -27.2717 -27.2664 -27.2476 -27.2254 -27.1916 -27.1729 -27.1565
   -27.1318 -27.1116 -27.0707 -27.0390 -26.9635 -26.9621 -26.9489 -26.9423
   -26.8943 -26.8868 -26.8639 -26.8507 -24.1318 -23.8943 -23.6203 -23.5098
   -23.2892 -23.1571 -23.0908 -22.9800 -22.9009 -22.7765 -22.7276 -22.5161
   -22.5039 -22.4522 -22.3838 -22.3071 -22.2637 -22.1867 -21.7524 -21.6952
   -21.6318 -20.2196 -19.9346 -19.8681 -19.8616 -19.6223 -19.6100 -19.6085
   -19.5954 -19.5774 -19.5407 -19.3961 -19.3637 -18.1661 -17.9724 -17.8268
     1.1988   2.2749   2.9273   3.1347   3.3400   3.4392   3.5304   3.5935
     3.6812   3.8894   3.9087   4.0932   4.1487   4.4882   4.5493   4.6969
     4.7501   4.8799   5.0267   5.1053   5.1812   5.2607   5.2820   5.3657
     5.4206   5.5464   5.5751   5.7222   5.7262   5.7370   5.7601   5.8687
     5.9789   6.0593   6.1742   6.1924   6.2397   6.2855   6.3626   6.4287
     6.4462   6.5919   6.6462   6.7136   6.7987   6.9830   7.0130   7.0884
     7.0997   7.1562   7.2371   7.2696   7.3184   7.4356   7.5452   7.5534
     7.6127   7.7685   7.8854   7.9032   8.0797   8.0813   8.1093   8.2079
     8.2391   8.2503   8.3526   8.3732   8.4047   8.5448   8.6534   8.6811
     8.8620   8.8980   9.0102   9.0812   9.1434   9.2145   9.2706

 ------ SPIN DOWN ----------


          k = 0.0000 0.0000 0.0000 ( 61588 PWs)   bands (ev):

   -60.7829 -60.7820 -60.7389 -60.7362 -60.7086 -60.6910 -60.6655 -60.6475
   -60.5690 -60.4924 -54.3621 -54.2838 -54.2272 -53.9355 -52.7032 -46.2774
   -46.2577 -41.6542 -41.6336 -41.5541 -41.5504 -39.8203 -27.7861 -27.7758
   -27.7019 -27.6871 -27.6045 -27.5927 -27.4737 -27.4631 -27.4336 -27.3349
   -27.3195 -27.2697 -27.2652 -27.2464 -27.2241 -27.1908 -27.1707 -27.1558
   -27.1312 -27.1111 -27.0701 -27.0388 -26.9615 -26.9604 -26.9468 -26.9405
   -26.8916 -26.8853 -26.8612 -26.8499 -24.1317 -23.8943 -23.6199 -23.5098
   -23.2890 -23.1571 -23.0907 -22.9795 -22.9009 -22.7764 -22.7274 -22.5156
   -22.5038 -22.4519 -22.3833 -22.3068 -22.2632 -22.1863 -21.7521 -21.6948
   -21.6312 -20.2146 -19.9383 -19.8623 -19.8567 -19.6180 -19.6090 -19.6078
   -19.5943 -19.5783 -19.5416 -19.3894 -19.3661 -18.1663 -17.9721 -17.8261
     1.2000   2.2761   2.9304   3.1357   3.3417   3.4421   3.5315   3.5944
     3.6823   3.8906   3.9121   4.0946   4.1510   4.4893   4.5508   4.6994
     4.7517   4.8817   5.0291   5.1074   5.1834   5.2624   5.2840   5.3687
     5.4231   5.5480   5.5766   5.7235   5.7285   5.7375   5.7616   5.8704
     5.9803   6.0613   6.1765   6.1939   6.2414   6.2870   6.3644   6.4323
     6.4476   6.5930   6.6480   6.7158   6.8008   6.9863   7.0190   7.0929
     7.1091   7.1590   7.2454   7.2747   7.3208   7.4437   7.5493   7.5562
     7.6163   7.7721   7.8873   7.9052   8.0830   8.0862   8.1118   8.2137
     8.2433   8.2518   8.3578   8.3758   8.4072   8.5475   8.6557   8.6836
     8.8643   8.9036   9.0141   9.0835   9.1454   9.2156   9.2754

     the Fermi energy is     7.2391 ev

!    total energy              =   -2943.05220992 Ry
     estimated scf accuracy    <       0.00066523 Ry
     smearing contrib. (-TS)   =      -0.10276139 Ry
     internal energy E=F+TS    =   -2942.94944853 Ry

     total magnetization       =     0.08 Bohr mag/cell
     absolute magnetization    =     0.11 Bohr mag/cell

     convergence has been achieved in  13 iterations

     negative rho (up, down):  9.088E-01 9.088E-01

     Forces acting on atoms (cartesian axes, Ry/au):

     atom    1 type  1   force =    -0.00508269   -0.02423710    0.00322389
     atom    2 type  1   force =    -0.12491947   -0.01514951   -0.00605041
     atom    3 type  1   force =    -0.11918787    0.01340452    0.00235171
     atom    4 type  1   force =     0.12762410   -0.00157290   -0.00591270
     atom    5 type  1   force =     0.05308027    0.06952697    0.00722790
     atom    6 type  2   force =    -0.00218508   -0.01424112    0.01545590
     atom    7 type  2   force =    -0.01434883    0.00749207   -0.01091185
     atom    8 type  3   force =    -0.10562734    0.00375406   -0.00566161
     atom    9 type  3   force =     0.12856513    0.04322718   -0.00756757
     atom   10 type  3   force =    -0.02354140   -0.02763995   -0.05871872
     atom   11 type  3   force =    -0.02220433   -0.03395711    0.05737687
     atom   12 type  3   force =    -0.01171372    0.03523619   -0.05650005
     atom   13 type  3   force =    -0.01465212    0.02976300    0.06311127
     atom   14 type  3   force =     0.01923553   -0.03398301   -0.06509037
     atom   15 type  3   force =     0.01960327   -0.03997413    0.06415890
     atom   16 type  3   force =     0.01595716    0.04585545   -0.05789111
     atom   17 type  3   force =     0.01576184    0.03913997    0.06383368
     atom   18 type  4   force =    -0.01209350    0.01420707   -0.00579492
     atom   19 type  4   force =    -0.12436132   -0.00722410   -0.11675851
     atom   20 type  4   force =    -0.13071115    0.00490779    0.11952374
     atom   21 type  4   force =     0.11812581   -0.00815235   -0.11893634
     atom   22 type  4   force =     0.12620760    0.00271074    0.12204787
     atom   23 type  5   force =     0.08646811   -0.10309373   -0.00251758
     The non-local contrib.  to forces
     atom    1 type  1   force =    -0.00276806   -0.00887354    0.02457420
     atom    2 type  1   force =    -0.25375045   -0.15633355    0.01425812
     atom    3 type  1   force =    -0.23069933    0.15527257   -0.02746273
     atom    4 type  1   force =     0.24461940   -0.18916871    0.01495077
     atom    5 type  1   force =     0.12372358    0.24139136   -0.02433661
     atom    6 type  2   force =     0.00653613   -0.04991836   -0.07288961
     atom    7 type  2   force =    -0.00742747    0.06664227    0.06144504
     atom    8 type  3   force =    -0.25349824    0.00737131   -0.00723437
     atom    9 type  3   force =     0.21777060    0.00012561   -0.01473261
     atom   10 type  3   force =    -0.21386295    0.00667033   -0.20748681
     atom   11 type  3   force =    -0.22060274    0.00586424    0.19899525
     atom   12 type  3   force =    -0.20362334   -0.02333509   -0.17843323
     atom   13 type  3   force =    -0.21130496   -0.00674382    0.20907548
     atom   14 type  3   force =     0.21046072    0.00312627   -0.21691462
     atom   15 type  3   force =     0.22072794    0.00532643    0.20495310
     atom   16 type  3   force =     0.21933825   -0.02586353   -0.17186939
     atom   17 type  3   force =     0.22333761   -0.01058886    0.20294976
     atom   18 type  4   force =    -0.00705920    0.05667378   -0.06861117
     atom   19 type  4   force =     0.06242904    0.00548321    0.07216979
     atom   20 type  4   force =     0.05771745   -0.01582008   -0.06737974
     atom   21 type  4   force =    -0.06413858    0.00927723    0.06543461
     atom   22 type  4   force =    -0.05779770   -0.01407641   -0.05618708
     atom   23 type  5   force =    -0.04992718    0.01601116   -0.00028642
     The ionic contribution  to forces
     atom    1 type  1   force =    -0.15905115   -4.69651337   14.07542515
     atom    2 type  1   force =   -39.72588377   -6.07826559    0.77968469
     atom    3 type  1   force =   -39.81772641    6.21047490   -0.71284143
     atom    4 type  1   force =    39.53825981   -5.97820182    0.77874840
     atom    5 type  1   force =    38.18556487    7.89739934   -0.69237617
     atom    6 type  2   force =    -0.16883259   -3.65833932  -13.97728008
     atom    7 type  2   force =    -0.61881640    3.50563163   14.30458496
     atom    8 type  3   force =   -52.23942467   -0.05945702   -0.06497761
     atom    9 type  3   force =    51.19331070   -1.41475963   -0.06581422
     atom   10 type  3   force =   -36.08253748   -2.06127564  -23.10395416
     atom   11 type  3   force =   -35.15662961   -0.81418787   22.10821359
     atom   12 type  3   force =   -35.30700327    0.83805351  -22.21027122
     atom   13 type  3   force =   -36.09790733    2.22201091   23.14027534
     atom   14 type  3   force =    35.97512911   -2.03397179  -23.17500841
     atom   15 type  3   force =    35.04988480   -0.78662086   22.17930581
     atom   16 type  3   force =    35.05598065    0.96652709  -22.50753469
     atom   17 type  3   force =    35.84319470    2.35143130   23.44114829
     atom   18 type  4   force =    -0.57710909    4.28204536  -14.20467501
     atom   19 type  4   force =   -35.94145755    0.90005062  -25.58659188
     atom   20 type  4   force =   -35.92474598   -1.01012132   25.56517148
     atom   21 type  4   force =    35.75702277    0.77666884  -25.80571720
     atom   22 type  4   force =    35.73940216   -1.13316777   25.78769238
     atom   23 type  5   force =     5.47937571   -0.22541150   -0.05320799
     The local contribution  to forces
     atom    1 type  1   force =     0.15647891    4.68182219  -14.10136409
     atom    2 type  1   force =    39.87010256    6.21763367   -0.80976640
     atom    3 type  1   force =    39.94399722   -6.35365967    0.74022152
     atom    4 type  1   force =   -39.66961378    6.16778304   -0.81110786
     atom    5 type  1   force =   -38.25922017   -8.07875271    0.71978572
     atom    6 type  2   force =     0.16416809    3.70258527   14.03643907
     atom    7 type  2   force =     0.61407338   -3.55908626  -14.37669104
     atom    8 type  3   force =    52.41212917    0.05661913    0.05277586
     atom    9 type  3   force =   -51.29632441    1.46559208    0.05650699
     atom   10 type  3   force =    36.29552017    2.02923044   23.26572835
     atom   11 type  3   force =    35.37876744    0.76483082  -22.26232714
     atom   12 type  3   force =    35.52415718   -0.77342743   22.34044417
     atom   13 type  3   force =    36.31914540   -2.18059289  -23.29705524
     atom   14 type  3   force =   -36.18369138    1.99373519   23.33979890
     atom   15 type  3   force =   -35.27241433    0.72627666  -22.33155040
     atom   16 type  3   force =   -35.27684622   -0.88957368   22.62786266
     atom   17 type  3   force =   -36.07203801   -2.29751622  -23.58918054
     atom   18 type  4   force =     0.57787387   -4.33397046   14.24367222
     atom   19 type  4   force =    35.77100518   -0.91747884   25.40512645
     atom   20 type  4   force =    35.74034601    1.03341431  -25.38185003
     atom   21 type  4   force =   -35.58740180   -0.79490714   25.62981711
     atom   22 type  4   force =   -35.55850247    1.15541351  -25.61187898
     atom   23 type  5   force =    -5.34289090    0.10559520    0.04932781
     The core correction contribution to forces
     atom    1 type  1   force =    -0.00050795    0.00190530   -0.00175810
     atom    2 type  1   force =    -0.01128421   -0.00046593    0.00094881
     atom    3 type  1   force =    -0.00956216    0.00339835   -0.00156039
     atom    4 type  1   force =     0.01127467   -0.00504374    0.00088936
     atom    5 type  1   force =     0.00050626    0.01096089   -0.00117763
     atom    6 type  2   force =    -0.00034319    0.00248068    0.00308634
     atom    7 type  2   force =     0.00032779   -0.00339923   -0.00245162
     atom    8 type  3   force =    -0.03021179   -0.00007358   -0.00040115
     atom    9 type  3   force =     0.02171151   -0.00696339   -0.00157353
     atom   10 type  3   force =    -0.02290428    0.00903641   -0.01727053
     atom   11 type  3   force =    -0.02486264    0.00903906    0.01805380
     atom   12 type  3   force =    -0.02225382   -0.01062200   -0.01513166
     atom   13 type  3   force =    -0.02244015   -0.00966240    0.01652688
     atom   14 type  3   force =     0.02174356    0.00945711   -0.01771063
     atom   15 type  3   force =     0.02335819    0.01007086    0.01806220
     atom   16 type  3   force =     0.02393160   -0.01061406   -0.01365221
     atom   17 type  3   force =     0.02334334   -0.00936235    0.01500683
     atom   18 type  4   force =     0.00048871   -0.00328587    0.00331423
     atom   19 type  4   force =    -0.00979634    0.00019809   -0.00955855
     atom   20 type  4   force =    -0.00972520    0.00049719    0.00943827
     atom   21 type  4   force =     0.00997077    0.00017013   -0.00900200
     atom   22 type  4   force =     0.00976426    0.00048938    0.00861611
     atom   23 type  5   force =     0.00000000    0.00000000    0.00000000
     The Hubbard contrib.    to forces
     atom    1 type  1   force =     0.00000000    0.00000000    0.00000000
     atom    2 type  1   force =     0.00000000    0.00000000    0.00000000
     atom    3 type  1   force =     0.00000000    0.00000000    0.00000000
     atom    4 type  1   force =     0.00000000    0.00000000    0.00000000
     atom    5 type  1   force =     0.00000000    0.00000000    0.00000000
     atom    6 type  2   force =     0.00000000    0.00000000    0.00000000
     atom    7 type  2   force =     0.00000000    0.00000000    0.00000000
     atom    8 type  3   force =     0.00000000    0.00000000    0.00000000
     atom    9 type  3   force =     0.00000000    0.00000000    0.00000000
     atom   10 type  3   force =     0.00000000    0.00000000    0.00000000
     atom   11 type  3   force =     0.00000000    0.00000000    0.00000000
     atom   12 type  3   force =     0.00000000    0.00000000    0.00000000
     atom   13 type  3   force =     0.00000000    0.00000000    0.00000000
     atom   14 type  3   force =     0.00000000    0.00000000    0.00000000
     atom   15 type  3   force =     0.00000000    0.00000000    0.00000000
     atom   16 type  3   force =     0.00000000    0.00000000    0.00000000
     atom   17 type  3   force =     0.00000000    0.00000000    0.00000000
     atom   18 type  4   force =     0.00000000    0.00000000    0.00000000
     atom   19 type  4   force =     0.00000000    0.00000000    0.00000000
     atom   20 type  4   force =     0.00000000    0.00000000    0.00000000
     atom   21 type  4   force =     0.00000000    0.00000000    0.00000000
     atom   22 type  4   force =     0.00000000    0.00000000    0.00000000
     atom   23 type  5   force =     0.00000000    0.00000000    0.00000000
     The SCF correction term to forces
     atom    1 type  1   force =     0.00105531   -0.00264293    0.00553885
     atom    2 type  1   force =    -0.00381385    0.00221663    0.00801648
     atom    3 type  1   force =    -0.00490745   -0.00214688    0.00318687
     atom    4 type  1   force =     0.00337375    0.00299307    0.00979875
     atom    5 type  1   force =     0.00279547   -0.00153716    0.00452472
     atom    6 type  2   force =    -0.00342378   -0.01111464    0.02529229
     atom    7 type  2   force =    -0.00221639   -0.00236159    0.00139293
     atom    8 type  3   force =     0.00566794   -0.00077102    0.01336778
     atom    9 type  3   force =    -0.00761352   -0.00083274    0.01723792
     atom   10 type  3   force =     0.00053288   -0.01136673    0.00345655
     atom   11 type  3   force =     0.00141296    0.00043139   -0.00636651
     atom   12 type  3   force =    -0.00270072    0.00450194    0.00608401
     atom   13 type  3   force =    -0.00185533    0.00468595   -0.00651907
     atom   14 type  3   force =    -0.00411673   -0.00639504    0.00393650
     atom   15 type  3   force =    -0.00166359    0.00490752   -0.00741968
     atom   16 type  3   force =    -0.00615737    0.00531439    0.00649464
     atom   17 type  3   force =    -0.00178606    0.00511086   -0.00689854
     atom   18 type  4   force =    -0.00599805    0.01267902    0.01969693
     atom   19 type  4   force =    -0.00625190    0.00445757    0.00128780
     atom   20 type  4   force =     0.00598630   -0.00312756   -0.00666413
     atom   21 type  4   force =     0.00296239    0.00057335   -0.00027674
     atom   22 type  4   force =    -0.00636890   -0.00601322   -0.00700244
     atom   23 type  5   force =     0.00020022    0.00064616    0.00084114

     Total force =     0.515965     Total SCF correction =     0.056494
     SCF correction compared to forces is large: reduce conv_thr to get better values


     Computing stress (Cartesian axis) and pressure


     negative rho (up, down):  9.088E-01 9.088E-01
          total   stress  (Ry/bohr**3)                   (kbar)     P=       88.23
   0.00069097  -0.00003142   0.00000046          101.64       -4.62        0.07
  -0.00003142   0.00069853  -0.00001356           -4.62      102.76       -1.99
   0.00000046  -0.00001356   0.00040978            0.07       -1.99       60.28


     Molecular Dynamics Calculation

     Starting temperature  =   300.00 K

     temperature is set once at start

     mass Hf               =   178.49
     mass Nb               =    92.91
     mass Ta               =   180.95
     mass Zr               =    91.22
     mass H                =     2.01
     Time step             =     4.20 a.u.,  0.2032 femto-seconds

     Entering Dynamics:    iteration =     1
                           time      =   0.0002 pico-seconds


ATOMIC_POSITIONS (angstrom)
Hf            2.6700442538        2.8271993124        6.6039643111
Hf            1.2530315389        1.2863607254        5.0584660525
Hf            1.2555279218        7.3898816580        5.0880678349
Hf            4.0870573379        1.2863611149        5.0584660565
Hf            4.0845589809        7.3898832681        5.0880679748
Nb            2.6700442792        2.7970067991        3.5155840686
Nb            2.6700436087        5.8764560678        6.6349973418
Ta            1.2094145094        4.3410049364        5.0711256721
Ta            4.1306749390        4.3410060535        5.0711256181
Ta            1.3072964605        1.3141987858        2.0587774484
Ta            1.3028321284        1.3084671536        8.0945808262
Ta            1.3040537332        7.3759040999        2.0462355808
Ta            1.3077548264        7.3651607693        8.0860040068
Ta            4.0327922169        1.3141986063        2.0587772680
Ta            4.0372565972        1.3084669833        8.0945810181
Ta            4.0360351861        7.3759044004        2.0462355415
Ta            4.0323340043        7.3651610347        8.0860040273
Zr            2.6700437208        5.8663636195        3.5273836051
Zr            1.2438720807        4.3221545376        1.9999934458
Zr            1.2404225179        4.3542005386        8.1497622587
Zr            4.0962163686        4.3221544855        1.9999933236
Zr            4.0996660285        4.3542004153        8.1497624004
H             5.0570582343        5.9439804107        5.0721733936


     kinetic energy (Ekin) =           4.04922334 Ry
     temperature           =       19373.38789672 K 
     Ekin + Etot (const)   =       -2939.00298657 Ry
     Ions kinetic stress =           71.51 (kbar)
                                     53.63          92.90           0.00
                                     92.90         160.91           0.00
                                      0.00           0.00           0.00



     Linear momentum :   -0.0000000000    0.0000000000    0.0000000000

     File outdir/pwscf.msd.dat deleted, as requested

     Writing config-only to output data dir outdir/pwscf.save/
     NEW-OLD atomic charge density approx. for the potential

     Check: negative core charge=   -0.000002

     negative rho (up, down):  9.088E-01 9.088E-01
     Generating pointlists ...
     new r_m :   0.0818 (alat units)  1.4432 (a.u.) for type    3

     total cpu time spent up to now is      381.0 secs

     Self-consistent Calculation

     iteration #  1     ecut=   120.00 Ry     beta= 0.70
     Davidson diagonalization with overlap
     ethr =  1.00E-06,  avg # of iterations = 11.5

     negative rho (up, down):  9.089E-01 9.089E-01

     total cpu time spent up to now is      417.1 secs

     total energy              =   -2943.05159659 Ry
     estimated scf accuracy    <       0.09105012 Ry

     total magnetization       =     0.08 Bohr mag/cell
     absolute magnetization    =     0.10 Bohr mag/cell

     iteration #  2     ecut=   120.00 Ry     beta= 0.70
     Davidson diagonalization with overlap
     ethr =  3.29E-05,  avg # of iterations =  2.0

     negative rho (up, down):  9.089E-01 9.089E-01

     total cpu time spent up to now is      440.8 secs

     total energy              =   -2943.05791559 Ry
     estimated scf accuracy    <       0.04810535 Ry

     total magnetization       =     0.08 Bohr mag/cell
     absolute magnetization    =     0.09 Bohr mag/cell

     iteration #  3     ecut=   120.00 Ry     beta= 0.70
     Davidson diagonalization with overlap
     ethr =  1.74E-05,  avg # of iterations =  1.0

     negative rho (up, down):  9.089E-01 9.089E-01

     total cpu time spent up to now is      475.4 secs

     total energy              =   -2943.06057363 Ry
     estimated scf accuracy    <       0.00220753 Ry

     total magnetization       =     0.07 Bohr mag/cell
     absolute magnetization    =     0.09 Bohr mag/cell

     iteration #  4     ecut=   120.00 Ry     beta= 0.70
     Davidson diagonalization with overlap
     ethr =  7.97E-07,  avg # of iterations =  2.0

     negative rho (up, down):  9.089E-01 9.089E-01

     Magnetic moment per site  (integrated on atomic sphere of radius R)
     atom   1 (R=0.074)  charge=  5.9342  magn=  0.0000
     atom   2 (R=0.074)  charge=  5.8654  magn=  0.0001
     atom   3 (R=0.074)  charge=  5.8646  magn=  0.0000
     atom   4 (R=0.074)  charge=  5.8649  magn=  0.0000
     atom   5 (R=0.074)  charge=  5.8777  magn=  0.0001
     atom   6 (R=0.110)  charge= 10.3499  magn=  0.0000
     atom   7 (R=0.110)  charge= 10.3485  magn=  0.0004
     atom   8 (R=0.082)  charge=  7.4326  magn=  0.0000
     atom   9 (R=0.082)  charge=  7.4356  magn=  0.0001
     atom  10 (R=0.082)  charge=  7.4147  magn=  0.0011
     atom  11 (R=0.082)  charge=  7.4146  magn=  0.0008
     atom  12 (R=0.082)  charge=  7.4171  magn=  0.0014
     atom  13 (R=0.082)  charge=  7.4153  magn=  0.0005
     atom  14 (R=0.082)  charge=  7.4152  magn=  0.0009
     atom  15 (R=0.082)  charge=  7.4161  magn=  0.0006
     atom  16 (R=0.082)  charge=  7.4163  magn=  0.0023
     atom  17 (R=0.082)  charge=  7.4151  magn=  0.0008
     atom  18 (R=0.111)  charge=  9.4558  magn= -0.0001
     atom  19 (R=0.111)  charge=  8.9903  magn=  0.0037
     atom  20 (R=0.111)  charge=  8.9954  magn= -0.0007
     atom  21 (R=0.111)  charge=  8.9929  magn=  0.0041
     atom  22 (R=0.111)  charge=  8.9984  magn= -0.0007
     atom  23 (R=0.074)  charge=  0.9889  magn=  0.0001

     total cpu time spent up to now is      512.5 secs

     End of self-consistent calculation

 ------ SPIN UP ------------


          k = 0.0000 0.0000 0.0000 ( 61588 PWs)   bands (ev):

   -60.7635 -60.7621 -60.7175 -60.7172 -60.6912 -60.6799 -60.6458 -60.6360
   -60.5531 -60.4064 -54.3386 -54.2468 -54.2072 -54.0140 -52.6858 -46.2645
   -46.2603 -41.6250 -41.6239 -41.5409 -41.5240 -39.8259 -27.7700 -27.7619
   -27.6847 -27.6738 -27.5845 -27.5724 -27.4577 -27.4484 -27.4031 -27.3167
   -27.2998 -27.2502 -27.2459 -27.2304 -27.2110 -27.1773 -27.1516 -27.1409
   -27.1127 -27.0553 -27.0131 -26.9851 -26.9426 -26.9411 -26.9329 -26.9233
   -26.8736 -26.8725 -26.8434 -26.8380 -24.1196 -23.8867 -23.6142 -23.4998
   -23.2706 -23.1361 -23.0808 -22.9846 -22.8847 -22.7747 -22.7485 -22.5190
   -22.5063 -22.4488 -22.3718 -22.3104 -22.2545 -22.1930 -21.7375 -21.6775
   -21.6171 -20.1888 -19.9267 -19.8333 -19.8319 -19.6019 -19.5940 -19.5912
   -19.5775 -19.5647 -19.5305 -19.3587 -19.3547 -18.1701 -17.9737 -17.8257
     1.0890   2.1578   2.9418   3.1486   3.3506   3.4584   3.5433   3.6147
     3.6940   3.8967   3.9228   4.1200   4.1712   4.5020   4.5633   4.7086
     4.7649   4.8935   5.0385   5.1192   5.1973   5.2729   5.2960   5.3804
     5.4270   5.5573   5.5860   5.7349   5.7416   5.7536   5.7742   5.8852
     6.0130   6.0736   6.1959   6.2126   6.2563   6.3020   6.3737   6.4316
     6.4535   6.6051   6.6567   6.7264   6.8107   6.9993   7.0252   7.1030
     7.1105   7.1684   7.2517   7.2824   7.3303   7.4514   7.5554   7.5679
     7.6290   7.7963   7.8992   7.9143   8.0812   8.0990   8.1239   8.2211
     8.2542   8.2648   8.3668   8.3905   8.4350   8.5578   8.6684   8.6891
     8.8751   8.9079   9.0227   9.0921   9.1389   9.2291   9.2883

 ------ SPIN DOWN ----------


          k = 0.0000 0.0000 0.0000 ( 61588 PWs)   bands (ev):

   -60.7619 -60.7613 -60.7164 -60.7157 -60.6894 -60.6791 -60.6439 -60.6351
   -60.5531 -60.4062 -54.3385 -54.2468 -54.2071 -54.0139 -52.6857 -46.2641
   -46.2603 -41.6250 -41.6210 -41.5417 -41.5203 -39.8260 -27.7678 -27.7605
   -27.6822 -27.6725 -27.5831 -27.5702 -27.4558 -27.4465 -27.4029 -27.3154
   -27.2986 -27.2488 -27.2443 -27.2295 -27.2096 -27.1766 -27.1495 -27.1401
   -27.1124 -27.0550 -27.0128 -26.9850 -26.9414 -26.9386 -26.9313 -26.9213
   -26.8716 -26.8704 -26.8409 -26.8371 -24.1194 -23.8866 -23.6139 -23.4997
   -23.2705 -23.1360 -23.0806 -22.9843 -22.8846 -22.7746 -22.7484 -22.5189
   -22.5062 -22.4487 -22.3714 -22.3102 -22.2541 -22.1928 -21.7374 -21.6774
   -21.6170 -20.1851 -19.9289 -19.8301 -19.8273 -19.6021 -19.5943 -19.5878
   -19.5764 -19.5627 -19.5307 -19.3563 -19.3533 -18.1702 -17.9735 -17.8253
     1.0898   2.1590   2.9444   3.1494   3.3519   3.4610   3.5442   3.6155
     3.6948   3.8975   3.9257   4.1213   4.1727   4.5027   4.5646   4.7107
     4.7663   4.8951   5.0405   5.1208   5.1991   5.2746   5.2976   5.3831
     5.4290   5.5584   5.5872   5.7357   5.7430   5.7551   5.7755   5.8866
     6.0144   6.0755   6.1974   6.2143   6.2578   6.3033   6.3751   6.4339
     6.4557   6.6062   6.6582   6.7282   6.8125   7.0021   7.0304   7.1084
     7.1172   7.1709   7.2590   7.2872   7.3323   7.4582   7.5586   7.5715
     7.6322   7.7993   7.9010   7.9161   8.0841   8.1033   8.1260   8.2261
     8.2576   8.2666   8.3713   8.3929   8.4372   8.5602   8.6702   8.6915
     8.8769   8.9131   9.0258   9.0938   9.1405   9.2300   9.2896

     the Fermi energy is     7.2521 ev

!    total energy              =   -2943.06034458 Ry
     estimated scf accuracy    <       0.00056928 Ry
     smearing contrib. (-TS)   =      -0.10257935 Ry
     internal energy E=F+TS    =   -2942.95776523 Ry

     total magnetization       =     0.07 Bohr mag/cell
     absolute magnetization    =     0.09 Bohr mag/cell

     convergence has been achieved in   4 iterations

     negative rho (up, down):  9.089E-01 9.089E-01

     Forces acting on atoms (cartesian axes, Ry/au):

     atom    1 type  1   force =    -0.00485760   -0.02868772    0.00900531
     atom    2 type  1   force =    -0.12468957   -0.01704108    0.00047848
     atom    3 type  1   force =    -0.12017939    0.01455930    0.00500296
     atom    4 type  1   force =     0.13341595   -0.00442620    0.00197574
     atom    5 type  1   force =     0.07189751    0.04674558    0.01196545
     atom    6 type  2   force =    -0.00190376   -0.01738589    0.01404398
     atom    7 type  2   force =    -0.01456178    0.00725079   -0.01239869
     atom    8 type  3   force =    -0.10437497    0.00354408   -0.00242171
     atom    9 type  3   force =     0.11232648    0.02406394   -0.00245509
     atom   10 type  3   force =    -0.02379461   -0.03169470   -0.06068161
     atom   11 type  3   force =    -0.02143476   -0.03397589    0.05358154
     atom   12 type  3   force =    -0.01094778    0.03674134   -0.05760504
     atom   13 type  3   force =    -0.01478085    0.03112504    0.05938075
     atom   14 type  3   force =     0.01821794   -0.03614106   -0.06694892
     atom   15 type  3   force =     0.01883017   -0.03907330    0.05970797
     atom   16 type  3   force =     0.01428594    0.04826694   -0.05895715
     atom   17 type  3   force =     0.01680273    0.04172065    0.05988447
     atom   18 type  4   force =    -0.01407738    0.02047306   -0.00266656
     atom   19 type  4   force =    -0.12687736   -0.00522816   -0.11795454
     atom   20 type  4   force =    -0.12847245    0.00377762    0.11491819
     atom   21 type  4   force =     0.12042957   -0.00903104   -0.12020298
     atom   22 type  4   force =     0.12520083   -0.00019663    0.11690032
     atom   23 type  5   force =     0.07954515   -0.05538667   -0.00455286
     The non-local contrib.  to forces
     atom    1 type  1   force =    -0.00184699   -0.00959140    0.02670404
     atom    2 type  1   force =    -0.25320655   -0.15656645    0.01808186
     atom    3 type  1   force =    -0.23404096    0.15374900   -0.02512553
     atom    4 type  1   force =     0.24730181   -0.19115570    0.01979316
     atom    5 type  1   force =     0.14150485    0.22490046   -0.02114628
     atom    6 type  2   force =     0.00649211   -0.04905455   -0.07266476
     atom    7 type  2   force =    -0.00566365    0.06708053    0.06377397
     atom    8 type  3   force =    -0.25204594    0.00650538   -0.00292150
     atom    9 type  3   force =     0.19339263   -0.01660255   -0.00815910
     atom   10 type  3   force =    -0.21328773    0.00361463   -0.20745563
     atom   11 type  3   force =    -0.21910021    0.00530802    0.19741038
     atom   12 type  3   force =    -0.20057309   -0.02224656   -0.17747055
     atom   13 type  3   force =    -0.20800957   -0.00555840    0.20639862
     atom   14 type  3   force =     0.20732210    0.00078716   -0.21623437
     atom   15 type  3   force =     0.21669674    0.00506204    0.20152389
     atom   16 type  3   force =     0.21483513   -0.02361467   -0.17072022
     atom   17 type  3   force =     0.21937037   -0.00817193    0.19992825
     atom   18 type  4   force =    -0.00774813    0.06034805   -0.06477041
     atom   19 type  4   force =     0.06046601    0.00726319    0.07381849
     atom   20 type  4   force =     0.05817049   -0.01651204   -0.06992379
     atom   21 type  4   force =    -0.06442184    0.01042252    0.06643278
     atom   22 type  4   force =    -0.05868925   -0.01527630   -0.05792760
     atom   23 type  5   force =    -0.04790015    0.00264342   -0.00064666
     The ionic contribution  to forces
     atom    1 type  1   force =    -0.17111807   -4.71667274   14.08547527
     atom    2 type  1   force =   -39.73032465   -6.08730285    0.77968635
     atom    3 type  1   force =   -39.82763131    6.22072679   -0.71283029
     atom    4 type  1   force =    39.54880657   -6.01548770    0.77878925
     atom    5 type  1   force =    38.42295839    7.86737318   -0.69459264
     atom    6 type  2   force =    -0.18136090   -3.67987245  -13.98791331
     atom    7 type  2   force =    -0.65188118    3.53730179   14.33673225
     atom    8 type  3   force =   -52.26569591   -0.06161019   -0.06498216
     atom    9 type  3   force =    51.04010725   -1.68360850   -0.06605202
     atom   10 type  3   force =   -36.08536420   -2.06656759  -23.10417781
     atom   11 type  3   force =   -35.15945456   -0.81944856   22.10842071
     atom   12 type  3   force =   -35.31142131    0.84262483  -22.21027607
     atom   13 type  3   force =   -36.10234969    2.22665655   23.14030790
     atom   14 type  3   force =    35.97940550   -2.04739292  -23.17371549
     atom   15 type  3   force =    35.05417541   -0.79997449   22.17796627
     atom   16 type  3   force =    35.07064390    0.97779311  -22.49613209
     atom   17 type  3   force =    35.85800998    2.36297683   23.42973287
     atom   18 type  4   force =    -0.60851917    4.31135796  -14.23468689
     atom   19 type  4   force =   -35.94933974    0.90039002  -25.59158245
     atom   20 type  4   force =   -35.93263608   -1.00963012   25.57013998
     atom   21 type  4   force =    35.75707873    0.77480864  -25.83065791
     atom   22 type  4   force =    35.73956143   -1.13452780   25.81270407
     atom   23 type  5   force =     5.50634960    0.10008622   -0.05235579
     The local contribution  to forces
     atom    1 type  1   force =     0.16716048    4.68954438  -14.08399837
     atom    2 type  1   force =    39.86374946    6.22363734   -0.78242914
     atom    3 type  1   force =    39.95006243   -6.35835852    0.75446757
     atom    4 type  1   force =   -39.67236864    6.19979668   -0.77855856
     atom    5 type  1   force =   -38.51190047   -8.04342839    0.74303020
     atom    6 type  2   force =     0.16694774    3.69397839   14.09203169
     atom    7 type  2   force =     0.64000698   -3.59109304  -14.40190051
     atom    8 type  3   force =    52.44010260    0.05788111    0.08876854
     atom    9 type  3   force =   -51.13299770    1.74511749    0.10023531
     atom   10 type  3   force =    36.29052909    2.00365650   23.26646352
     atom   11 type  3   force =    35.37892406    0.76790990  -22.27495798
     atom   12 type  3   force =    35.51197072   -0.76200975   22.34546776
     atom   13 type  3   force =    36.30710171   -2.17131506  -23.30778374
     atom   14 type  3   force =   -36.19244263    1.98984437   23.33975119
     atom   15 type  3   force =   -35.27392027    0.74693132  -22.34405422
     atom   16 type  3   force =   -35.30184869   -0.88084395   22.62498613
     atom   17 type  3   force =   -36.08216587   -2.29043102  -23.59348623
     atom   18 type  4   force =     0.59330026   -4.32955266   14.31286972
     atom   19 type  4   force =    35.75824154   -0.90832052   25.40917894
     atom   20 type  4   force =    35.75191294    1.02584433  -25.40151368
     atom   21 type  4   force =   -35.57851967   -0.79663775   25.65330722
     atom   22 type  4   force =   -35.56564662    1.14003443  -25.65566292
     atom   23 type  5   force =    -5.38128229   -0.16036830    0.05130626
     The core correction contribution to forces
     atom    1 type  1   force =    -0.00034550    0.00176409   -0.00207788
     atom    2 type  1   force =    -0.01098465   -0.00046311    0.00093682
     atom    3 type  1   force =    -0.00997070    0.00372628   -0.00151133
     atom    4 type  1   force =     0.01180627   -0.00532451    0.00091203
     atom    5 type  1   force =    -0.00005039    0.01037213   -0.00121683
     atom    6 type  2   force =    -0.00033999    0.00240725    0.00313717
     atom    7 type  2   force =     0.00029022   -0.00339261   -0.00257833
     atom    8 type  3   force =    -0.03001645    0.00006358   -0.00041588
     atom    9 type  3   force =     0.01871440   -0.00868229   -0.00144203
     atom   10 type  3   force =    -0.02296265    0.00919735   -0.01712927
     atom   11 type  3   force =    -0.02481544    0.00909663    0.01779706
     atom   12 type  3   force =    -0.02185085   -0.01059804   -0.01515348
     atom   13 type  3   force =    -0.02208204   -0.00968087    0.01642913
     atom   14 type  3   force =     0.02168919    0.00933866   -0.01786942
     atom   15 type  3   force =     0.02312795    0.00985629    0.01799192
     atom   16 type  3   force =     0.02374040   -0.01055931   -0.01373827
     atom   17 type  3   force =     0.02305180   -0.00939572    0.01503512
     atom   18 type  4   force =     0.00046076   -0.00323165    0.00336995
     atom   19 type  4   force =    -0.00976467    0.00017036   -0.00963968
     atom   20 type  4   force =    -0.00972101    0.00050503    0.00948749
     atom   21 type  4   force =     0.00998583    0.00009610   -0.00904806
     atom   22 type  4   force =     0.00976689    0.00047202    0.00860419
     atom   23 type  5   force =     0.00000000    0.00000000    0.00000000
     The Hubbard contrib.    to forces
     atom    1 type  1   force =     0.00000000    0.00000000    0.00000000
     atom    2 type  1   force =     0.00000000    0.00000000    0.00000000
     atom    3 type  1   force =     0.00000000    0.00000000    0.00000000
     atom    4 type  1   force =     0.00000000    0.00000000    0.00000000
     atom    5 type  1   force =     0.00000000    0.00000000    0.00000000
     atom    6 type  2   force =     0.00000000    0.00000000    0.00000000
     atom    7 type  2   force =     0.00000000    0.00000000    0.00000000
     atom    8 type  3   force =     0.00000000    0.00000000    0.00000000
     atom    9 type  3   force =     0.00000000    0.00000000    0.00000000
     atom   10 type  3   force =     0.00000000    0.00000000    0.00000000
     atom   11 type  3   force =     0.00000000    0.00000000    0.00000000
     atom   12 type  3   force =     0.00000000    0.00000000    0.00000000
     atom   13 type  3   force =     0.00000000    0.00000000    0.00000000
     atom   14 type  3   force =     0.00000000    0.00000000    0.00000000
     atom   15 type  3   force =     0.00000000    0.00000000    0.00000000
     atom   16 type  3   force =     0.00000000    0.00000000    0.00000000
     atom   17 type  3   force =     0.00000000    0.00000000    0.00000000
     atom   18 type  4   force =     0.00000000    0.00000000    0.00000000
     atom   19 type  4   force =     0.00000000    0.00000000    0.00000000
     atom   20 type  4   force =     0.00000000    0.00000000    0.00000000
     atom   21 type  4   force =     0.00000000    0.00000000    0.00000000
     atom   22 type  4   force =     0.00000000    0.00000000    0.00000000
     atom   23 type  5   force =     0.00000000    0.00000000    0.00000000
     The SCF correction term to forces
     atom    1 type  1   force =     0.00076913    0.00640568   -0.01595492
     atom    2 type  1   force =     0.00555347    0.00379172   -0.01465459
     atom    3 type  1   force =     0.00087780   -0.00514652   -0.00885464
     atom    4 type  1   force =    -0.00265341    0.00788276   -0.01781731
     atom    5 type  1   force =     0.01886178   -0.01233407   -0.01296618
     atom    6 type  2   force =     0.00583395    0.01529320   -0.01940398
     atom    7 type  2   force =     0.00216251   -0.00250814   -0.00728326
     atom    8 type  3   force =     0.00275739    0.00084193   -0.02172788
     atom    9 type  3   force =    -0.00741344   -0.01202248   -0.02589443
     atom   10 type  3   force =     0.00676754    0.01854214    0.00276042
     atom   11 type  3   force =     0.00248805    0.00329585    0.00605418
     atom   12 type  3   force =     0.01040339   -0.01089140    0.00097012
     atom   13 type  3   force =     0.01003540   -0.00883944    0.00517166
     atom   14 type  3   force =     0.00172044    0.01141940    0.00226200
     atom   15 type  3   force =    -0.00177301   -0.00081072    0.00742293
     atom   16 type  3   force =     0.00639185   -0.01437051   -0.00220987
     atom   17 type  3   force =    -0.00198688   -0.01311978    0.00981728
     atom   18 type  4   force =     0.00790557   -0.01831092   -0.01830610
     atom   19 type  4   force =     0.01299616   -0.00459348    0.00141298
     atom   20 type  4   force =     0.00327787    0.00370814    0.00787101
     atom   21 type  4   force =    -0.00421683    0.00241717    0.00090581
     atom   22 type  4   force =    -0.00031496    0.00923875    0.01032541
     atom   23 type  5   force =     0.00185464    0.00238972   -0.00171385

     Total force =     0.502401     Total SCF correction =     0.081423
     SCF correction compared to forces is large: reduce conv_thr to get better values


     Computing stress (Cartesian axis) and pressure


     negative rho (up, down):  9.089E-01 9.089E-01
          total   stress  (Ry/bohr**3)                   (kbar)     P=       86.31
   0.00066658  -0.00001383  -0.00000193           98.06       -2.04       -0.28
  -0.00001383   0.00069636  -0.00001181           -2.04      102.44       -1.74
  -0.00000193  -0.00001181   0.00039716           -0.28       -1.74       58.42


     Entering Dynamics:    iteration =     2
                           time      =   0.0004 pico-seconds


ATOMIC_POSITIONS (angstrom)
Hf            2.6700882719        2.8272739496        6.6039649203
Hf            1.2530652430        1.2864362915        5.0584659064
Hf            1.2555620491        7.3899598565        5.0880681894
Hf            4.0871130974        1.2864377944        5.0584660002
Hf            4.0846090718        7.3899649236        5.0880688687
Nb            2.6700883915        2.7970810762        3.5155864687
Nb            2.6700856553        5.8765342587        6.6349953735
Ta            1.2094500551        4.3410822219        5.0711253748
Ta            4.1307293777        4.3410856175        5.0711252650
Ta            1.3073388901        1.3142731882        2.0587723520
Ta            1.3028747295        1.3085412482        8.0945854826
Ta            1.3040972247        7.3759841552        2.0462307215
Ta            1.3077980178        7.3652403518        8.0860091538
Ta            4.0328382350        1.3142725776        2.0587716367
Ta            4.0373026604        1.3085406191        8.0945862133
Ta            4.0360808889        7.3759854086        2.0462305662
Ta            4.0323798440        7.3652414823        8.0860092232
Zr            2.6700859041        5.8664436941        3.5273829804
Zr            1.2438952979        4.3222305237        1.9999736490
Zr            1.2404451996        4.3542782168        8.1497818699
Zr            4.0962809627        4.3222299925        1.9999731520
Zr            4.0997316120        4.3542775239        8.1497823758
H             4.9838941156        5.8156284101        5.0721438400


     kinetic energy (Ekin) =           4.05687455 Ry
     temperature           =       19409.99485398 K 
     Ekin + Etot (const)   =       -2939.00347004 Ry
     Ions kinetic stress =           71.65 (kbar)
                                     53.02          92.66           0.01
                                     92.66         161.92           0.02
                                      0.01           0.02           0.00



     Linear momentum :   -0.0000000000    0.0000000000   -0.0000000000

     Writing config-only to output data dir outdir/pwscf.save/
     NEW-OLD atomic charge density approx. for the potential

     Check: negative core charge=   -0.000002

     negative rho (up, down):  9.089E-01 9.089E-01
     Generating pointlists ...
     new r_m :   0.0752 (alat units)  1.3280 (a.u.) for type    3

     total cpu time spent up to now is      538.4 secs

     Self-consistent Calculation

     iteration #  1     ecut=   120.00 Ry     beta= 0.70
     Davidson diagonalization with overlap
     c_bands:  1 eigenvalues not converged
     c_bands:  1 eigenvalues not converged
     ethr =  1.00E-06,  avg # of iterations = 20.0

     negative rho (up, down):  9.089E-01 9.089E-01

     total cpu time spent up to now is      576.4 secs

     total energy              =   -2943.03793517 Ry
     estimated scf accuracy    <       0.15679944 Ry

     total magnetization       =     0.07 Bohr mag/cell
     absolute magnetization    =     0.08 Bohr mag/cell

     iteration #  2     ecut=   120.00 Ry     beta= 0.70
     Davidson diagonalization with overlap
     ethr =  5.66E-05,  avg # of iterations =  2.0

     negative rho (up, down):  9.090E-01 9.090E-01

     total cpu time spent up to now is      599.8 secs

     total energy              =   -2943.04873497 Ry
     estimated scf accuracy    <       0.08178094 Ry

     total magnetization       =     0.07 Bohr mag/cell
     absolute magnetization    =     0.08 Bohr mag/cell

     iteration #  3     ecut=   120.00 Ry     beta= 0.70
     Davidson diagonalization with overlap
     ethr =  2.95E-05,  avg # of iterations =  1.0

     negative rho (up, down):  9.090E-01 9.090E-01

     total cpu time spent up to now is      634.0 secs

     total energy              =   -2943.05336959 Ry
     estimated scf accuracy    <       0.00342393 Ry

     total magnetization       =     0.07 Bohr mag/cell
     absolute magnetization    =     0.08 Bohr mag/cell

     iteration #  4     ecut=   120.00 Ry     beta= 0.70
     Davidson diagonalization with overlap
     ethr =  1.24E-06,  avg # of iterations = 14.0

     negative rho (up, down):  9.089E-01 9.089E-01

     total cpu time spent up to now is      673.2 secs

     total energy              =   -2943.05353205 Ry
     estimated scf accuracy    <       0.00106304 Ry

     total magnetization       =     0.06 Bohr mag/cell
     absolute magnetization    =     0.07 Bohr mag/cell

     iteration #  5     ecut=   120.00 Ry     beta= 0.70
     Davidson diagonalization with overlap
     ethr =  3.84E-07,  avg # of iterations =  2.0

     negative rho (up, down):  9.089E-01 9.089E-01

     Magnetic moment per site  (integrated on atomic sphere of radius R)
     atom   1 (R=0.074)  charge=  5.9343  magn=  0.0000
     atom   2 (R=0.074)  charge=  5.8657  magn=  0.0000
     atom   3 (R=0.074)  charge=  5.8649  magn=  0.0001
     atom   4 (R=0.074)  charge=  5.8653  magn=  0.0000
     atom   5 (R=0.074)  charge=  5.8742  magn=  0.0001
     atom   6 (R=0.110)  charge= 10.3488  magn=  0.0000
     atom   7 (R=0.110)  charge= 10.3477  magn=  0.0003
     atom   8 (R=0.075)  charge=  6.6097  magn=  0.0000
     atom   9 (R=0.075)  charge=  6.6226  magn=  0.0001
     atom  10 (R=0.075)  charge=  6.5957  magn=  0.0007
     atom  11 (R=0.075)  charge=  6.5929  magn=  0.0006
     atom  12 (R=0.075)  charge=  6.5951  magn=  0.0010
     atom  13 (R=0.075)  charge=  6.5942  magn=  0.0004
     atom  14 (R=0.075)  charge=  6.5949  magn=  0.0006
     atom  15 (R=0.075)  charge=  6.5917  magn=  0.0005
     atom  16 (R=0.075)  charge=  6.5964  magn=  0.0015
     atom  17 (R=0.075)  charge=  6.5937  magn=  0.0006
     atom  18 (R=0.111)  charge=  9.4546  magn= -0.0001
     atom  19 (R=0.111)  charge=  8.9970  magn=  0.0028
     atom  20 (R=0.111)  charge=  8.9924  magn= -0.0002
     atom  21 (R=0.111)  charge=  9.0022  magn=  0.0033
     atom  22 (R=0.111)  charge=  8.9947  magn= -0.0000
     atom  23 (R=0.074)  charge=  1.0310  magn=  0.0001

     total cpu time spent up to now is      690.2 secs

     End of self-consistent calculation

 ------ SPIN UP ------------


          k = 0.0000 0.0000 0.0000 ( 61588 PWs)   bands (ev):

   -60.7655 -60.7606 -60.7203 -60.7154 -60.6929 -60.6737 -60.6486 -60.6301
   -60.5554 -60.3337 -54.3488 -54.2444 -54.2185 -54.0768 -52.7020 -46.2746
   -46.2487 -41.6372 -41.6214 -41.5384 -41.5366 -39.8221 -27.7724 -27.7606
   -27.6884 -27.6719 -27.5828 -27.5732 -27.4567 -27.4444 -27.3905 -27.3165
   -27.2975 -27.2513 -27.2443 -27.2292 -27.2078 -27.1772 -27.1530 -27.1335
   -27.1137 -27.0209 -26.9697 -26.9524 -26.9400 -26.9390 -26.9327 -26.9202
   -26.8757 -26.8692 -26.8461 -26.8332 -24.1284 -23.8974 -23.6229 -23.5150
   -23.2760 -23.1396 -23.0962 -23.0026 -22.8915 -22.7891 -22.7763 -22.5447
   -22.5090 -22.4478 -22.3788 -22.3221 -22.2566 -22.2010 -21.7500 -21.6881
   -21.6302 -20.2005 -19.9244 -19.8450 -19.8428 -19.6046 -19.5985 -19.5952
   -19.5822 -19.5679 -19.5301 -19.3723 -19.3516 -18.1664 -17.9724 -17.8262
     0.9559   2.0669   2.9398   3.1480   3.3475   3.4628   3.5415   3.6235
     3.6921   3.8923   3.9206   4.1272   4.1781   4.4996   4.5632   4.7078
     4.7644   4.8908   5.0363   5.1150   5.1970   5.2712   5.2942   5.3811
     5.4170   5.5539   5.5838   5.7307   5.7403   5.7537   5.7733   5.8858
     6.0289   6.0744   6.1975   6.2209   6.2625   6.3094   6.3701   6.4136
     6.4553   6.6051   6.6559   6.7258   6.8105   6.9964   7.0188   7.1009
     7.1161   7.1646   7.2457   7.2809   7.3304   7.4499   7.5468   7.5643
     7.6286   7.8050   7.9007   7.9115   8.0792   8.0964   8.1224   8.2179
     8.2512   8.2669   8.3660   8.3884   8.4497   8.5547   8.6670   8.6795
     8.8728   8.9090   9.0179   9.0912   9.1187   9.2273   9.2834

 ------ SPIN DOWN ----------


          k = 0.0000 0.0000 0.0000 ( 61588 PWs)   bands (ev):

   -60.7641 -60.7598 -60.7188 -60.7147 -60.6914 -60.6729 -60.6470 -60.6293
   -60.5554 -60.3336 -54.3487 -54.2443 -54.2185 -54.0766 -52.7020 -46.2744
   -46.2486 -41.6345 -41.6216 -41.5385 -41.5340 -39.8221 -27.7704 -27.7594
   -27.6863 -27.6707 -27.5815 -27.5715 -27.4545 -27.4432 -27.3903 -27.3152
   -27.2965 -27.2497 -27.2433 -27.2282 -27.2067 -27.1766 -27.1512 -27.1328
   -27.1134 -27.0206 -26.9693 -26.9517 -26.9383 -26.9380 -26.9311 -26.9188
   -26.8735 -26.8679 -26.8440 -26.8323 -24.1283 -23.8974 -23.6226 -23.5149
   -23.2758 -23.1394 -23.0960 -23.0024 -22.8914 -22.7890 -22.7761 -22.5446
   -22.5088 -22.4478 -22.3785 -22.3219 -22.2563 -22.2009 -21.7499 -21.6881
   -21.6302 -20.1976 -19.9254 -19.8420 -19.8400 -19.6026 -19.5974 -19.5943
   -19.5808 -19.5673 -19.5299 -19.3684 -19.3520 -18.1664 -17.9722 -17.8259
     0.9564   2.0680   2.9421   3.1487   3.3486   3.4651   3.5423   3.6242
     3.6927   3.8930   3.9232   4.1286   4.1792   4.5002   4.5642   4.7096
     4.7656   4.8921   5.0381   5.1164   5.1984   5.2726   5.2956   5.3835
     5.4188   5.5548   5.5849   5.7313   5.7420   5.7548   5.7746   5.8869
     6.0303   6.0761   6.1987   6.2223   6.2638   6.3106   6.3713   6.4152
     6.4577   6.6061   6.6573   6.7274   6.8121   6.9988   7.0232   7.1071
     7.1205   7.1670   7.2517   7.2850   7.3322   7.4557   7.5511   7.5663
     7.6313   7.8075   7.9023   7.9131   8.0816   8.1001   8.1243   8.2219
     8.2542   8.2685   8.3698   8.3905   8.4515   8.5568   8.6687   8.6815
     8.8743   8.9135   9.0205   9.0927   9.1200   9.2283   9.2854

     the Fermi energy is     7.2496 ev

!    total energy              =   -2943.05333547 Ry
     estimated scf accuracy    <       0.00031835 Ry
     smearing contrib. (-TS)   =      -0.10271186 Ry
     internal energy E=F+TS    =   -2942.95062361 Ry

     total magnetization       =     0.06 Bohr mag/cell
     absolute magnetization    =     0.07 Bohr mag/cell

     convergence has been achieved in   5 iterations

     negative rho (up, down):  9.089E-01 9.089E-01

     Forces acting on atoms (cartesian axes, Ry/au):

     atom    1 type  1   force =    -0.00553559   -0.02544902    0.00407290
     atom    2 type  1   force =    -0.12104849   -0.01531418   -0.00825462
     atom    3 type  1   force =    -0.11809667    0.01297954   -0.00122259
     atom    4 type  1   force =     0.13468916   -0.00329229   -0.00910368
     atom    5 type  1   force =     0.08971735    0.01823031    0.00326207
     atom    6 type  2   force =    -0.00292628   -0.01757130    0.01527489
     atom    7 type  2   force =    -0.01491920    0.00778498   -0.00969779
     atom    8 type  3   force =    -0.10540083    0.00394814   -0.00584827
     atom    9 type  3   force =     0.07795033   -0.02597624   -0.00588235
     atom   10 type  3   force =    -0.02314130   -0.02816597   -0.05777043
     atom   11 type  3   force =    -0.02182338   -0.03238380    0.05804775
     atom   12 type  3   force =    -0.00950307    0.03503899   -0.05548861
     atom   13 type  3   force =    -0.01318708    0.02876139    0.06402958
     atom   14 type  3   force =     0.01706104   -0.03452893   -0.06407736
     atom   15 type  3   force =     0.01717194   -0.03869358    0.06462603
     atom   16 type  3   force =     0.01405847    0.04545916   -0.05677681
     atom   17 type  3   force =     0.01508254    0.03824072    0.06550499
     atom   18 type  4   force =    -0.01214634    0.01665671   -0.00596002
     atom   19 type  4   force =    -0.12445666   -0.00611373   -0.11549128
     atom   20 type  4   force =    -0.12809835    0.00449847    0.11919335
     atom   21 type  4   force =     0.11812268   -0.00797617   -0.11748333
     atom   22 type  4   force =     0.12395461    0.00221748    0.12104141
     atom   23 type  5   force =     0.09247511    0.02164933   -0.00199584
     The non-local contrib.  to forces
     atom    1 type  1   force =     0.00024442   -0.00541060    0.02053544
     atom    2 type  1   force =    -0.25003163   -0.15669968    0.01232203
     atom    3 type  1   force =    -0.23505197    0.15175825   -0.02918782
     atom    4 type  1   force =     0.24901752   -0.18841329    0.01338617
     atom    5 type  1   force =     0.16862682    0.19730173   -0.02663733
     atom    6 type  2   force =     0.00703785   -0.04705073   -0.07319287
     atom    7 type  2   force =    -0.00393970    0.06665203    0.06459696
     atom    8 type  3   force =    -0.25060509    0.00566770   -0.00744662
     atom    9 type  3   force =     0.16723991   -0.04284332   -0.01251969
     atom   10 type  3   force =    -0.21298794    0.00525493   -0.20774526
     atom   11 type  3   force =    -0.22178783    0.00655235    0.20102475
     atom   12 type  3   force =    -0.19784991   -0.02331417   -0.17781832
     atom   13 type  3   force =    -0.20738775   -0.00733075    0.20935299
     atom   14 type  3   force =     0.20652156    0.00080047   -0.21563227
     atom   15 type  3   force =     0.21856742    0.00503594    0.20386142
     atom   16 type  3   force =     0.21282059   -0.02408308   -0.17196344
     atom   17 type  3   force =     0.21859141   -0.00974371    0.20379157
     atom   18 type  4   force =    -0.00448134    0.05710062   -0.06959615
     atom   19 type  4   force =     0.06203591    0.00701028    0.07317678
     atom   20 type  4   force =     0.05880376   -0.01572233   -0.06797276
     atom   21 type  4   force =    -0.06356436    0.01221034    0.06529774
     atom   22 type  4   force =    -0.05861182   -0.01221535   -0.05426139
     atom   23 type  5   force =    -0.04767467   -0.01382092   -0.00076121
     The ionic contribution  to forces
     atom    1 type  1   force =    -0.18473618   -4.73774790   14.09720685
     atom    2 type  1   force =   -39.73476952   -6.09689478    0.77968151
     atom    3 type  1   force =   -39.83550639    6.23032531   -0.71281824
     atom    4 type  1   force =    39.55776330   -6.05375072    0.77880960
     atom    5 type  1   force =    38.64066334    7.79838871   -0.69681063
     atom    6 type  2   force =    -0.19550557   -3.70237901  -14.00033559
     atom    7 type  2   force =    -0.68144195    3.57402396   14.36859744
     atom    8 type  3   force =   -52.29385427   -0.06295298   -0.06499720
     atom    9 type  3   force =    50.84449883   -2.02308290   -0.06635973
     atom   10 type  3   force =   -36.08805699   -2.07204304  -23.10449055
     atom   11 type  3   force =   -35.16215731   -0.82490628   22.10872604
     atom   12 type  3   force =   -35.31502466    0.84674125  -22.20991674
     atom   13 type  3   force =   -36.10594779    2.23084359   23.13996386
     atom   14 type  3   force =    35.98321978   -2.06124066  -23.17305999
     atom   15 type  3   force =    35.05802270   -0.81376694   22.17726964
     atom   16 type  3   force =    35.08526770    0.98654685  -22.48254045
     atom   17 type  3   force =    35.87278508    2.37197134   23.41606335
     atom   18 type  4   force =    -0.63674758    4.34542469  -14.26449738
     atom   19 type  4   force =   -35.95714595    0.90118672  -25.59647229
     atom   20 type  4   force =   -35.94045034   -1.00864923   25.57500924
     atom   21 type  4   force =    35.75776243    0.77497735  -25.85608687
     atom   22 type  4   force =    35.74038845   -1.13378278   25.83813358
     atom   23 type  5   force =     5.59097290    0.53076744   -0.05107544
     The local contribution  to forces
     atom    1 type  1   force =     0.18039644    4.72094732  -14.12325675
     atom    2 type  1   force =    39.87755484    6.24048381   -0.81813035
     atom    3 type  1   force =    39.96763448   -6.37300286    0.72603987
     atom    4 type  1   force =   -39.68636105    6.24421474   -0.82104494
     atom    5 type  1   force =   -38.72601380   -7.98529310    0.71038708
     atom    6 type  2   force =     0.19044578    3.73350350   14.06791478
     atom    7 type  2   force =     0.67527533   -3.63347313  -14.45330775
     atom    8 type  3   force =    52.47341843    0.05957950    0.04759590
     atom    9 type  3   force =   -50.94814110    2.05413878    0.05289281
     atom   10 type  3   force =    36.30665309    2.03041802   23.27329509
     atom   11 type  3   force =    35.39143832    0.78173938  -22.26515675
     atom   12 type  3   force =    35.53209167   -0.77852623   22.34776636
     atom   13 type  3   force =    36.32704636   -2.19113590  -23.29557111
     atom   14 type  3   force =   -36.19451025    2.01608471   23.34320738
     atom   15 type  3   force =   -35.28479121    0.76288057  -22.32843018
     atom   16 type  3   force =   -35.30613863   -0.90747877   22.61157485
     atom   17 type  3   force =   -36.09943546   -2.32128030  -23.56257314
     atom   18 type  4   force =     0.63519552   -4.38534566   14.30866006
     atom   19 type  4   force =    35.78448307   -0.91491590   25.41660685
     atom   20 type  4   force =    35.76774254    1.02913529  -25.39062260
     atom   21 type  4   force =   -35.58447166   -0.79427941   25.68336402
     atom   22 type  4   force =   -35.56953095    1.15053271  -25.66548594
     atom   23 type  5   force =    -5.45158198   -0.49671581    0.04685585
     The core correction contribution to forces
     atom    1 type  1   force =    -0.00006486    0.00180723   -0.00213775
     atom    2 type  1   force =    -0.01070155   -0.00053653    0.00089128
     atom    3 type  1   force =    -0.01036051    0.00385376   -0.00143602
     atom    4 type  1   force =     0.01236391   -0.00522629    0.00094349
     atom    5 type  1   force =     0.00014918    0.00962794   -0.00125013
     atom    6 type  2   force =    -0.00033793    0.00238565    0.00318658
     atom    7 type  2   force =     0.00024649   -0.00336154   -0.00265233
     atom    8 type  3   force =    -0.02984344    0.00020996   -0.00040131
     atom    9 type  3   force =     0.01597614   -0.01055888   -0.00125694
     atom   10 type  3   force =    -0.02306515    0.00918831   -0.01702462
     atom   11 type  3   force =    -0.02505027    0.00922318    0.01781410
     atom   12 type  3   force =    -0.02184123   -0.01055462   -0.01526151
     atom   13 type  3   force =    -0.02217581   -0.00965488    0.01657716
     atom   14 type  3   force =     0.02172907    0.00923814   -0.01793006
     atom   15 type  3   force =     0.02338324    0.00984351    0.01818426
     atom   16 type  3   force =     0.02340306   -0.01031977   -0.01384499
     atom   17 type  3   force =     0.02297463   -0.00918985    0.01523423
     atom   18 type  4   force =     0.00041109   -0.00321538    0.00342558
     atom   19 type  4   force =    -0.00974266    0.00015209   -0.00961121
     atom   20 type  4   force =    -0.00968992    0.00048164    0.00946318
     atom   21 type  4   force =     0.00994062    0.00001576   -0.00899809
     atom   22 type  4   force =     0.00973082    0.00035402    0.00848718
     atom   23 type  5   force =     0.00000000    0.00000000    0.00000000
     The Hubbard contrib.    to forces
     atom    1 type  1   force =     0.00000000    0.00000000    0.00000000
     atom    2 type  1   force =     0.00000000    0.00000000    0.00000000
     atom    3 type  1   force =     0.00000000    0.00000000    0.00000000
     atom    4 type  1   force =     0.00000000    0.00000000    0.00000000
     atom    5 type  1   force =     0.00000000    0.00000000    0.00000000
     atom    6 type  2   force =     0.00000000    0.00000000    0.00000000
     atom    7 type  2   force =     0.00000000    0.00000000    0.00000000
     atom    8 type  3   force =     0.00000000    0.00000000    0.00000000
     atom    9 type  3   force =     0.00000000    0.00000000    0.00000000
     atom   10 type  3   force =     0.00000000    0.00000000    0.00000000
     atom   11 type  3   force =     0.00000000    0.00000000    0.00000000
     atom   12 type  3   force =     0.00000000    0.00000000    0.00000000
     atom   13 type  3   force =     0.00000000    0.00000000    0.00000000
     atom   14 type  3   force =     0.00000000    0.00000000    0.00000000
     atom   15 type  3   force =     0.00000000    0.00000000    0.00000000
     atom   16 type  3   force =     0.00000000    0.00000000    0.00000000
     atom   17 type  3   force =     0.00000000    0.00000000    0.00000000
     atom   18 type  4   force =     0.00000000    0.00000000    0.00000000
     atom   19 type  4   force =     0.00000000    0.00000000    0.00000000
     atom   20 type  4   force =     0.00000000    0.00000000    0.00000000
     atom   21 type  4   force =     0.00000000    0.00000000    0.00000000
     atom   22 type  4   force =     0.00000000    0.00000000    0.00000000
     atom   23 type  5   force =     0.00000000    0.00000000    0.00000000
     The SCF correction term to forces
     atom    1 type  1   force =    -0.00101876   -0.00500828    0.01048223
     atom    2 type  1   force =    -0.00274400   -0.00163021    0.01573803
     atom    3 type  1   force =    -0.00445565    0.00008186    0.01493674
     atom    4 type  1   force =     0.00226213   -0.00007994    0.01755913
     atom    5 type  1   force =     0.00664845   -0.00175817    0.01633020
     atom    6 type  2   force =    -0.00420978   -0.00399393    0.01645911
     atom    7 type  2   force =    -0.00470272    0.00398044    0.01182501
     atom    8 type  3   force =    -0.00415982    0.00148075    0.01815809
     atom    9 type  3   force =    -0.00126681   -0.00359313    0.02011832
     atom   10 type  3   force =    -0.00532766   -0.00094740   -0.00304797
     atom   11 type  3   force =    -0.00390964   -0.00495564   -0.00560326
     atom   12 type  3   force =    -0.00652230    0.00072955   -0.00150128
     atom   13 type  3   force =    -0.00436544    0.00607612   -0.00753620
     atom   14 type  3   force =     0.00045752    0.00062521   -0.00190531
     atom   15 type  3   force =     0.00234642   -0.00264986   -0.00750198
     atom   16 type  3   force =    -0.00093761    0.00083073   -0.00124566
     atom   17 type  3   force =     0.00052352    0.00652004   -0.00825390
     atom   18 type  4   force =    -0.00616739    0.00272923    0.01480498
     atom   19 type  4   force =    -0.00373039    0.00048987   -0.00043428
     atom   20 type  4   force =    -0.00414773   -0.00071011   -0.00792658
     atom   21 type  4   force =    -0.00118771   -0.00086343   -0.00230301
     atom   22 type  4   force =     0.00233475   -0.00263434   -0.00707490
[...]
     4.7746   4.8744   5.0424   5.1206   5.1998   5.2758   5.2969   5.3832
     5.4113   5.5584   5.6071   5.7397   5.7459   5.7617   5.7779   5.8868
     6.0294   6.0832   6.1986   6.2335   6.2695   6.3231   6.3752   6.4098
     6.4546   6.6092   6.6606   6.7346   6.8196   6.9971   7.0186   7.1051
     7.1157   7.1720   7.2396   7.2798   7.3323   7.4543   7.5452   7.5676
     7.6366   7.8121   7.9135   7.9173   8.0830   8.1053   8.1274   8.2156
     8.2536   8.2791   8.3717   8.3945   8.4672   8.5620   8.6687   8.6738
     8.8726   8.9117   9.0228   9.0923   9.1294   9.2377   9.2858

     the Fermi energy is     7.2489 ev

!    total energy              =   -2943.04647251 Ry
     estimated scf accuracy    <       0.00043933 Ry
     smearing contrib. (-TS)   =      -0.10271676 Ry
     internal energy E=F+TS    =   -2942.94375575 Ry

     total magnetization       =     0.00 Bohr mag/cell
     absolute magnetization    =     0.00 Bohr mag/cell

     convergence has been achieved in   5 iterations

     negative rho (up, down):  9.092E-01 9.092E-01

     Forces acting on atoms (cartesian axes, Ry/au):

     atom    1 type  1   force =    -0.01094475   -0.03354745    0.01593272
     atom    2 type  1   force =    -0.11848575   -0.01785460    0.00286698
     atom    3 type  1   force =    -0.11780080    0.01402683    0.00949617
     atom    4 type  1   force =     0.13461222   -0.00763176    0.00289596
     atom    5 type  1   force =     0.11043910   -0.01459145    0.01425704
     atom    6 type  2   force =    -0.00765915   -0.02075547    0.00690505
     atom    7 type  2   force =    -0.01328119    0.00750252   -0.01091303
     atom    8 type  3   force =    -0.10844566    0.00561257   -0.00340077
     atom    9 type  3   force =     0.04842931   -0.06731190   -0.00168310
     atom   10 type  3   force =    -0.02237947   -0.02674219   -0.06249076
     atom   11 type  3   force =    -0.02145177   -0.03372000    0.05353801
     atom   12 type  3   force =    -0.01056046    0.03518008   -0.05929476
     atom   13 type  3   force =    -0.01378735    0.03151843    0.05888841
     atom   14 type  3   force =     0.01646322   -0.03258611   -0.06810084
     atom   15 type  3   force =     0.01724368   -0.03975683    0.05921038
     atom   16 type  3   force =     0.01354657    0.04412471   -0.06139120
     atom   17 type  3   force =     0.01532027    0.04000467    0.06065749
     atom   18 type  4   force =    -0.01147337    0.01584371   -0.00636933
     atom   19 type  4   force =    -0.12215755   -0.00517163   -0.11766376
     atom   20 type  4   force =    -0.12894115    0.00483052    0.11448672
     atom   21 type  4   force =     0.11545269   -0.00841987   -0.11946930
     atom   22 type  4   force =     0.12495034    0.00224572    0.11622573
     atom   23 type  5   force =     0.11091106    0.10719951   -0.00458382
     The non-local contrib.  to forces
     atom    1 type  1   force =     0.00433864   -0.00448089    0.01836573
     atom    2 type  1   force =    -0.24822369   -0.15883754    0.01934378
     atom    3 type  1   force =    -0.23717619    0.15163905   -0.02253335
     atom    4 type  1   force =     0.25059253   -0.18344013    0.02042508
     atom    5 type  1   force =     0.19728912    0.16360918   -0.02095742
     atom    6 type  2   force =     0.00808355   -0.04650221   -0.06993645
     atom    7 type  2   force =    -0.00403541    0.06965562    0.06504564
     atom    8 type  3   force =    -0.25193232    0.00605080   -0.00291009
     atom    9 type  3   force =     0.13814622   -0.06921859   -0.00419925
     atom   10 type  3   force =    -0.21552833    0.00525878   -0.21084570
     atom   11 type  3   force =    -0.22071743    0.00307511    0.20011093
     atom   12 type  3   force =    -0.19964336   -0.02331581   -0.17885524
     atom   13 type  3   force =    -0.20566043   -0.00391381    0.20681024
     atom   14 type  3   force =     0.20641933    0.00131669   -0.21778928
     atom   15 type  3   force =     0.21433806    0.00274468    0.20230961
     atom   16 type  3   force =     0.21319121   -0.02424147   -0.17465556
     atom   17 type  3   force =     0.21573525   -0.00651671    0.20311672
     atom   18 type  4   force =    -0.00698701    0.06031095   -0.06585425
     atom   19 type  4   force =     0.06263239    0.00779921    0.07134430
     atom   20 type  4   force =     0.05729297   -0.01584999   -0.06886192
     atom   21 type  4   force =    -0.06509455    0.01236812    0.06350980
     atom   22 type  4   force =    -0.05757559   -0.01211465   -0.05521849
     atom   23 type  5   force =    -0.05081498   -0.03175322   -0.00053729
     The ionic contribution  to forces
     atom    1 type  1   force =    -0.30789387   -4.78901654   14.28094613
     atom    2 type  1   force =   -39.74767598   -6.13645715    0.78050685
     atom    3 type  1   force =   -39.77825180    6.19643958   -0.71130865
     atom    4 type  1   force =    39.57260917   -6.24764787    0.77948799
     atom    5 type  1   force =    38.85110255    7.36527513   -0.69585556
     atom    6 type  2   force =    -0.32153077   -3.75709206  -14.19116395
     atom    7 type  2   force =    -0.55375813    3.61991554   14.30120008
     atom    8 type  3   force =   -52.36533575    0.01998652   -0.06521050
     atom    9 type  3   force =    50.47919932   -1.78854000   -0.04005861
     atom   10 type  3   force =   -36.07342622   -2.07399923  -23.08334876
     atom   11 type  3   force =   -35.14874311   -0.82780201   22.08724086
     atom   12 type  3   force =   -35.28063752    0.81985193  -22.16765988
     atom   13 type  3   force =   -36.06689882    2.20259205   23.09491789
     atom   14 type  3   force =    35.96758606   -2.08651623  -23.16566274
     atom   15 type  3   force =    35.04431758   -0.83977016   22.16849956
     atom   16 type  3   force =    35.08224157    0.93463661  -22.38931255
     atom   17 type  3   force =    35.86665897    2.31723706   23.31756363
     atom   18 type  4   force =    -0.52018083    4.38532835  -14.19924781
     atom   19 type  4   force =   -35.91484454    0.92327137  -25.53204500
     atom   20 type  4   force =   -35.89740965   -0.98181170   25.50903261
     atom   21 type  4   force =    35.72796443    0.84151764  -25.79403126
     atom   22 type  4   force =    35.71193875   -1.06132201   25.77052081
     atom   23 type  5   force =     5.67296861    0.96392317   -0.05501115
     The local contribution  to forces
     atom    1 type  1   force =     0.28988178    4.74607929  -14.26651547
     atom    2 type  1   force =    39.88939586    6.27301698   -0.77496551
     atom    3 type  1   force =    39.90998039   -6.33456084    0.76788245
     atom    4 type  1   force =   -39.70173629    6.42340219   -0.77468086
     atom    5 type  1   force =   -38.93675663   -7.55379860    0.75624816
     atom    6 type  2   force =     0.30381351    3.77790699   14.27193621
     atom    7 type  2   force =     0.54092991   -3.66382670  -14.35810201
     atom    8 type  3   force =    52.53851302   -0.01920879    0.08589076
     atom    9 type  3   force =   -50.58127173    1.80358490    0.06312787
     atom   10 type  3   force =    36.29108394    2.03294299   23.23905052
     atom   11 type  3   force =    35.37058022    0.77066157  -22.25450339
     atom   12 type  3   force =    35.49215208   -0.75159107   22.29362318
     atom   13 type  3   force =    36.27942754   -2.14791121  -23.26348736
     atom   14 type  3   force =   -36.18483875    2.04767722   23.32526158
     atom   15 type  3   force =   -35.26542785    0.77722256  -22.33408371
     atom   16 type  3   force =   -35.31161540   -0.85896393   22.50941093
     atom   17 type  3   force =   -36.09194179   -2.25181597  -23.48139999
     atom   18 type  4   force =     0.51223810   -4.42467085   14.26411498
     atom   19 type  4   force =    35.74578850   -0.93624383   25.34341574
     atom   20 type  4   force =    35.71468962    1.00295811  -25.33502572
     atom   21 type  4   force =   -35.56504053   -0.86324739   25.61149244
     atom   22 type  4   force =   -35.53518940    1.07564039  -25.60728244
     atom   23 type  5   force =    -5.51043066   -0.82361706    0.05430372
     The core correction contribution to forces
     atom    1 type  1   force =     0.00049192    0.00215472   -0.00272126
     atom    2 type  1   force =    -0.01057167   -0.00074769    0.00086253
     atom    3 type  1   force =    -0.01090279    0.00360054   -0.00140638
     atom    4 type  1   force =     0.01247838   -0.00432599    0.00091787
     atom    5 type  1   force =     0.00131795    0.00933077   -0.00138546
     atom    6 type  2   force =    -0.00038878    0.00233739    0.00307353
     atom    7 type  2   force =     0.00024666   -0.00350231   -0.00268594
     atom    8 type  3   force =    -0.02983787    0.00048458   -0.00050396
     atom    9 type  3   force =     0.01303322   -0.01237262   -0.00097455
     atom   10 type  3   force =    -0.02312098    0.00922071   -0.01712098
     atom   11 type  3   force =    -0.02477714    0.00921619    0.01775564
     atom   12 type  3   force =    -0.02201194   -0.01041975   -0.01518390
     atom   13 type  3   force =    -0.02207169   -0.00948223    0.01651965
     atom   14 type  3   force =     0.02182194    0.00928366   -0.01785002
     atom   15 type  3   force =     0.02305281    0.00980894    0.01804678
     atom   16 type  3   force =     0.02352483   -0.01033836   -0.01405638
     atom   17 type  3   force =     0.02274268   -0.00920221    0.01545029
     atom   18 type  4   force =     0.00049260   -0.00334943    0.00337981
     atom   19 type  4   force =    -0.00975576    0.00011554   -0.00954908
     atom   20 type  4   force =    -0.00968685    0.00049220    0.00946220
     atom   21 type  4   force =     0.00999432    0.00001951   -0.00892030
     atom   22 type  4   force =     0.00976028    0.00034847    0.00848943
     atom   23 type  5   force =     0.00000000    0.00000000    0.00000000
     The Hubbard contrib.    to forces
     atom    1 type  1   force =     0.00000000    0.00000000    0.00000000
     atom    2 type  1   force =     0.00000000    0.00000000    0.00000000
     atom    3 type  1   force =     0.00000000    0.00000000    0.00000000
     atom    4 type  1   force =     0.00000000    0.00000000    0.00000000
     atom    5 type  1   force =     0.00000000    0.00000000    0.00000000
     atom    6 type  2   force =     0.00000000    0.00000000    0.00000000
     atom    7 type  2   force =     0.00000000    0.00000000    0.00000000
     atom    8 type  3   force =     0.00000000    0.00000000    0.00000000
     atom    9 type  3   force =     0.00000000    0.00000000    0.00000000
     atom   10 type  3   force =     0.00000000    0.00000000    0.00000000
     atom   11 type  3   force =     0.00000000    0.00000000    0.00000000
     atom   12 type  3   force =     0.00000000    0.00000000    0.00000000
     atom   13 type  3   force =     0.00000000    0.00000000    0.00000000
     atom   14 type  3   force =     0.00000000    0.00000000    0.00000000
     atom   15 type  3   force =     0.00000000    0.00000000    0.00000000
     atom   16 type  3   force =     0.00000000    0.00000000    0.00000000
     atom   17 type  3   force =     0.00000000    0.00000000    0.00000000
     atom   18 type  4   force =     0.00000000    0.00000000    0.00000000
     atom   19 type  4   force =     0.00000000    0.00000000    0.00000000
     atom   20 type  4   force =     0.00000000    0.00000000    0.00000000
     atom   21 type  4   force =     0.00000000    0.00000000    0.00000000
     atom   22 type  4   force =     0.00000000    0.00000000    0.00000000
     atom   23 type  5   force =     0.00000000    0.00000000    0.00000000
     The SCF correction term to forces
     atom    1 type  1   force =     0.00226962    0.01155683   -0.01283399
     atom    2 type  1   force =    -0.00137742    0.00501166   -0.02157225
     atom    3 type  1   force =    -0.00141758   -0.00325065   -0.02182947
     atom    4 type  1   force =     0.00070125    0.00422089   -0.02194570
     atom    5 type  1   force =    -0.00248105    0.00083292   -0.02248425
     atom    6 type  2   force =     0.00239617    0.00243530   -0.00569586
     atom    7 type  2   force =     0.00336862   -0.01489877   -0.01506237
     atom    8 type  3   force =     0.00018009   -0.00185967   -0.01935856
     atom    9 type  3   force =    -0.00064488   -0.00092472   -0.01827013
     atom   10 type  3   force =    -0.00135504   -0.00032457    0.01108257
     atom   11 type  3   force =     0.00223853    0.01097000    0.00424239
     atom   12 type  3   force =    -0.00038689    0.00049564    0.01008951
     atom   13 type  3   force =     0.00144889   -0.00992552    0.00543641
     atom   14 type  3   force =     0.00550748   -0.00450659    0.00924805
     atom   15 type  3   force =     0.00099591    0.01007801    0.00574656
     atom   16 type  3   force =     0.00623719    0.00287271    0.00853079
     atom   17 type  3   force =     0.00215800   -0.00985664    0.00723527
     atom   18 type  4   force =     0.00299660   -0.00193445   -0.00745364
     atom   19 type  4   force =    -0.00594531   -0.00027305    0.01047871
     atom   20 type  4   force =     0.00620558   -0.00111724    0.00118797
     atom   21 type  4   force =     0.00766184    0.00076312    0.00978844
     atom   22 type  4   force =    -0.00395087   -0.00046562    0.00102485
     atom   23 type  5   force =    -0.00077907   -0.00151253   -0.00203068

     Total force =     0.511719     Total SCF correction =     0.070674
     SCF correction compared to forces is large: reduce conv_thr to get better values


     Computing stress (Cartesian axis) and pressure


     negative rho (up, down):  9.092E-01 9.092E-01
          total   stress  (Ry/bohr**3)                   (kbar)     P=       88.14
   0.00067829   0.00004059  -0.00000029           99.78        5.97       -0.04
   0.00004059   0.00072284  -0.00001317            5.97      106.33       -1.94
  -0.00000029  -0.00001317   0.00039631           -0.04       -1.94       58.30


     Entering Dynamics:    iteration =    20
                           time      =   0.0041 pico-seconds


ATOMIC_POSITIONS (angstrom)
Hf            2.6709181783        2.8284239819        6.6040550812
Hf            1.2525248613        1.2876459000        5.0584168009
Hf            1.2550249153        7.3914914940        5.0880980284
Hf            4.0895273265        1.2877047584        5.0583958085
Hf            4.0865456096        7.3913063964        5.0881347779
Nb            2.6709519808        2.7981297979        3.5158375139
Nb            2.6707588673        5.8781375361        6.6346924536
Ta            1.2089795924        4.3425432660        5.0710720964
Ta            4.1170211032        4.3175130769        5.0712030849
Ta            1.3078592338        1.3153352372        2.0580821768
Ta            1.3034216751        1.3095350208        8.0952262349
Ta            1.3047530864        7.3777683334        2.0456017311
Ta            1.3084255666        7.3669524347        8.0866993629
Ta            4.0338233973        1.3152950236        2.0580518353
Ta            4.0382824932        1.3095149955        8.0952613083
Ta            4.0370378500        7.3778337439        2.0456195207
Ta            4.0333487652        7.3670215013        8.0866916953
Zr            2.6707584767        5.8682482164        3.5272830461
Zr            1.2418539304        4.3234576721        1.9974139583
Zr            1.2383222695        4.3557482440        8.1523678519
Zr            4.0997593864        4.3234252782        1.9974378386
Zr            4.1033463339        4.3557167126        8.1523352966
H             5.0993484423        5.7764104792        5.0655061172


     kinetic energy (Ekin) =           4.04403571 Ry
     temperature           =       19348.56783454 K 
     Ekin + Etot (const)   =       -2939.00243680 Ry
     Ions kinetic stress =           71.42 (kbar)
                                     70.30         100.34          -0.62
                                    100.34         143.82          -0.88
                                     -0.62          -0.88           0.14



     Linear momentum :    0.0000000000   -0.0000000000   -0.0000000000

     The maximum number of steps has been reached.

     End of molecular dynamics calculation

     diffusion coefficients :
     atom     1   D =       0.00000001 cm^2/s
     atom     2   D =       0.00000001 cm^2/s
     atom     3   D =       0.00000001 cm^2/s
     atom     4   D =       0.00000003 cm^2/s
     atom     5   D =       0.00000003 cm^2/s
     atom     6   D =       0.00000001 cm^2/s
     atom     7   D =       0.00000002 cm^2/s
     atom     8   D =       0.00000001 cm^2/s
     atom     9   D =       0.00000301 cm^2/s
     atom    10   D =       0.00000001 cm^2/s
     atom    11   D =       0.00000001 cm^2/s
     atom    12   D =       0.00000002 cm^2/s
     atom    13   D =       0.00000002 cm^2/s
     atom    14   D =       0.00000001 cm^2/s
     atom    15   D =       0.00000001 cm^2/s
     atom    16   D =       0.00000002 cm^2/s
     atom    17   D =       0.00000002 cm^2/s
     atom    18   D =       0.00000002 cm^2/s
     atom    19   D =       0.00000005 cm^2/s
     atom    20   D =       0.00000006 cm^2/s
     atom    21   D =       0.00000009 cm^2/s
     atom    22   D =       0.00000009 cm^2/s
     atom    23   D =       0.00036266 cm^2/s

     < D > =       0.00001592 cm^2/s

     Writing all to output data dir outdir/pwscf.save/

     init_run     :      9.32s CPU     11.92s WALL (       1 calls)
     electrons    :   2369.31s CPU   3018.20s WALL (      20 calls)
     update_pot   :     19.90s CPU     20.42s WALL (      19 calls)
     forces       :    182.99s CPU    236.88s WALL (      20 calls)
     stress       :    296.74s CPU    337.17s WALL (      20 calls)

     Called by init_run:
     wfcinit      :      7.13s CPU      8.99s WALL (       1 calls)
     potinit      :      0.30s CPU      0.50s WALL (       1 calls)
     hinit0       :      0.77s CPU      1.06s WALL (       1 calls)

     Called by electrons:
     c_bands      :   1886.18s CPU   2408.30s WALL (     102 calls)
     sum_band     :    320.74s CPU    408.53s WALL (     102 calls)
     v_of_rho     :     10.29s CPU     12.76s WALL (     122 calls)
     newd         :    176.89s CPU    216.49s WALL (     122 calls)
     mix_rho      :      0.93s CPU      1.29s WALL (     102 calls)

     Called by c_bands:
     init_us_2    :      3.56s CPU      3.71s WALL (     490 calls)
     init_us_2:cp :      3.55s CPU      3.71s WALL (     490 calls)
     regterg      :   1872.39s CPU   2390.44s WALL (     204 calls)

     Called by *egterg:
     rdiaghg      :     65.14s CPU     83.15s WALL (    1601 calls)
     h_psi        :    948.56s CPU   1107.86s WALL (    1641 calls)
     s_psi        :    317.22s CPU    318.08s WALL (    1641 calls)
     g_psi        :      0.68s CPU      0.74s WALL (    1435 calls)

     Called by h_psi:
     h_psi:calbec :    472.63s CPU    588.14s WALL (    1641 calls)
     vloc_psi     :    101.51s CPU    143.84s WALL (    1641 calls)
     add_vuspsi   :    373.25s CPU    374.64s WALL (    1641 calls)

     General routines
     calbec       :    781.57s CPU   1005.15s WALL (    2045 calls)
     fft          :     11.83s CPU     36.18s WALL (    2529 calls)
     ffts         :      0.21s CPU      0.32s WALL (     102 calls)
     fftw         :    109.73s CPU    157.30s WALL (  106914 calls)

     Parallel routines

     PWSCF        :  48m24.26s CPU      1h 0m WALL


   This run was terminated on:  22:12:14  15Jun2023            

=------------------------------------------------------------------------------=
   JOB DONE.
=------------------------------------------------------------------------------=
