
     Program PWSCF v.7.2 starts on 12Jun2023 at 22:23:14 

     This program is part of the open-source Quantum ESPRESSO suite
     for quantum simulation of materials; please cite
         "P. Giannozzi et al., J. Phys.:Condens. Matter 21 395502 (2009);
         "P. Giannozzi et al., J. Phys.:Condens. Matter 29 465901 (2017);
         "P. Giannozzi et al., J. Chem. Phys. 152 154105 (2020);
          URL http://www.quantum-espresso.org", 
     in publications or presentations arising from this work. More details at
     http://www.quantum-espresso.org/quote

     Parallel version (MPI), running on    42 processors

     MPI processes distributed on     1 nodes
     179846 MiB available memory on the printing compute node when the environment starts

     Reading input from md_data/md_Hf5Nb2Ta10Zr5H_20steps_100eV_incident45_polar90.in
Warning: card &CELL ignored
Warning: card / ignored

     Current dimensions of program PWSCF are:
     Max number of different atomic species (ntypx) = 10
     Max number of k-points (npk) =  40000
     Max angular momentum in pseudopotentials (lmaxx) =  4

     File outdir/pwscf.md deleted, as requested

     gamma-point specific algorithms are used

     R & G space division:  proc/nbgrp/npool/nimage =      42
     Subspace diagonalization in iterative solution of the eigenvalue problem:
     one sub-group per band group will be used
     custom distributed-memory algorithm (size of sub-group:  2*  2 procs)


     Parallelization info
     --------------------
     sticks:   dense  smooth     PW     G-vecs:    dense   smooth      PW
     Min         262     262     63                23470    23470    2920
     Max         265     265     66                23484    23484    2942
     Sum       11057   11057   2753               986005   986005  123175

     Using Slab Decomposition



     bravais-lattice index     =            0
     lattice parameter (alat)  =      17.6500  a.u.
     unit-cell volume          =    5552.8853 (a.u.)^3
     number of atoms/cell      =           23
     number of atomic types    =            5
     number of electrons       =       277.00
     number of Kohn-Sham states=          167
     kinetic-energy cutoff     =     120.0000  Ry
     charge density cutoff     =     480.0000  Ry
     scf convergence threshold =      1.0E-03
     mixing beta               =       0.7000
     number of iterations used =            8  TF        mixing
     energy convergence thresh.=      0.0E+00
     force convergence thresh. =      0.0E+00
     Exchange-correlation=  SLA  PW   PBX  PBC
                           (   1   4   3   4   0   0   0)
     nstep                     =           20


     celldm(1)=  17.650041  celldm(2)=   0.000000  celldm(3)=   0.000000
     celldm(4)=   0.000000  celldm(5)=   0.000000  celldm(6)=   0.000000

     crystal axes: (cart. coord. in units of alat)
               a(1) = (   1.000000   0.000000   0.000000 )  
               a(2) = (   0.000000   0.929336   0.000000 )  
               a(3) = (   0.000000   0.000000   1.086698 )  

     reciprocal axes: (cart. coord. in units 2 pi/alat)
               b(1) = (  1.000000  0.000000  0.000000 )  
               b(2) = (  0.000000  1.076037  0.000000 )  
               b(3) = (  0.000000  0.000000  0.920219 )  


     PseudoPot. # 1 for Hf read from file:
     q-e/pseudo/hf_pbe_v1.uspp.F.UPF
     MD5 check sum: 8ee9378dfe14276e333edf04c5e4aa26
     Pseudo is Ultrasoft + core correction, Zval = 12.0
     Generated by new atomic code, or converted to UPF format
     Using radial grid of  921 points,  8 beta functions with: 
                l(1) =   0
                l(2) =   0
                l(3) =   0
                l(4) =   1
                l(5) =   1
                l(6) =   2
                l(7) =   2
                l(8) =   3
     Q(r) pseudized with  6 coefficients,  rinner =    1.200   1.200   1.200
                                                       1.200   1.200   1.200
                                                       1.200

     PseudoPot. # 2 for Nb read from file:
     q-e/pseudo/nb_pbe_v1.uspp.F.UPF
     MD5 check sum: 573aab8a2fa660278ed4a62cd769473f
     Pseudo is Ultrasoft + core correction, Zval = 13.0
     Generated by new atomic code, or converted to UPF format
     Using radial grid of  887 points,  6 beta functions with: 
                l(1) =   0
                l(2) =   0
                l(3) =   1
                l(4) =   1
                l(5) =   2
                l(6) =   2
     Q(r) pseudized with  6 coefficients,  rinner =    1.000   1.000   1.000
                                                       1.000   1.000

     PseudoPot. # 3 for Ta read from file:
     q-e/pseudo/ta_pbe_v1.uspp.F.UPF
     MD5 check sum: f8bbe9446314a3b8ea5d9f3e3836c939
     Pseudo is Ultrasoft + core correction, Zval = 13.0
     Generated by new atomic code, or converted to UPF format
     Using radial grid of  921 points,  7 beta functions with: 
                l(1) =   0
                l(2) =   0
                l(3) =   1
                l(4) =   1
                l(5) =   2
                l(6) =   2
                l(7) =   3
     Q(r) pseudized with  6 coefficients,  rinner =    1.300   1.300   1.300
                                                       1.300   1.300   1.300
                                                       1.300

     PseudoPot. # 4 for Zr read from file:
     q-e/pseudo/zr_pbe_v1.uspp.F.UPF
     MD5 check sum: 5db81b1e868ab7776c4564c113de050b
     Pseudo is Ultrasoft + core correction, Zval = 12.0
     Generated by new atomic code, or converted to UPF format
     Using radial grid of  887 points,  6 beta functions with: 
                l(1) =   0
                l(2) =   0
                l(3) =   1
                l(4) =   1
                l(5) =   2
                l(6) =   2
     Q(r) pseudized with  6 coefficients,  rinner =    1.200   1.200   1.200
                                                       1.200   1.200

     PseudoPot. # 5 for H  read from file:
     q-e/pseudo/h_pbe_v1.4.uspp.F.UPF
     MD5 check sum: 761ae9a214b05c3daf00ab9f6b793d6f
     Pseudo is Ultrasoft, Zval =  1.0
     Generated by new atomic code, or converted to UPF format
     Using radial grid of  615 points,  2 beta functions with: 
                l(1) =   0
                l(2) =   0
     Q(r) pseudized with  8 coefficients,  rinner =    0.700

     atomic species   valence    mass     pseudopotential
        Hf            12.00   178.49000     Hf( 1.00)
        Nb            13.00    92.90637     Nb( 1.00)
        Ta            13.00   180.94788     Ta( 1.00)
        Zr            12.00    91.22400     Zr( 1.00)
        H              1.00     2.01400     H ( 1.00)

     Starting magnetic structure 
     atomic species   magnetization
        Hf           0.000
        Nb           0.000
        Ta           0.000
        Zr           0.000
        H            0.000

     No symmetry found



   Cartesian axes

     site n.     atom                  positions (alat units)
         1           Hf  tau(   1) = (   0.2858672   0.3026898   0.7070626  )
         2           Hf  tau(   2) = (   0.1341532   0.1377178   0.5415917  )
         3           Hf  tau(   3) = (   0.1344204   0.7911996   0.5447610  )
         4           Hf  tau(   4) = (   0.4375813   0.1377178   0.5415917  )
         5           Hf  tau(   5) = (   0.4373140   0.7911996   0.5447610  )
         6           Nb  tau(   6) = (   0.2858672   0.2994572   0.3764008  )
         7           Nb  tau(   7) = (   0.2858672   0.6291626   0.7103852  )
         8           Ta  tau(   8) = (   0.1294832   0.4647675   0.5429471  )
         9           Ta  tau(   9) = (   0.4422513   0.4647675   0.5429471  )
        10           Ta  tau(  10) = (   0.1399628   0.1406984   0.2204260  )
        11           Ta  tau(  11) = (   0.1394848   0.1400847   0.8666573  )
        12           Ta  tau(  12) = (   0.1396156   0.7897030   0.2190832  )
        13           Ta  tau(  13) = (   0.1400119   0.7885528   0.8657390  )
        14           Ta  tau(  14) = (   0.4317717   0.1406984   0.2204260  )
        15           Ta  tau(  15) = (   0.4322496   0.1400847   0.8666573  )
        16           Ta  tau(  16) = (   0.4321189   0.7897030   0.2190832  )
        17           Ta  tau(  17) = (   0.4317226   0.7885528   0.8657390  )
        18           Zr  tau(  18) = (   0.2858672   0.6280820   0.3776642  )
        19           Zr  tau(  19) = (   0.1331729   0.4627493   0.2141328  )
        20           Zr  tau(  20) = (   0.1328036   0.4661802   0.8725649  )
        21           Zr  tau(  21) = (   0.4385616   0.4627493   0.2141328  )
        22           Zr  tau(  22) = (   0.4389309   0.4661802   0.8725649  )
        23           H   tau(  23) = (   0.5936660   0.4646681   0.6944747  )

     number of k points=     1  Gaussian smearing, width (Ry)=  0.0220
                       cart. coord. in units 2pi/alat
        k(    1) = (   0.0000000   0.0000000   0.0000000), wk =   1.0000000

     Dense  grid:   493003 G-vectors     FFT dimensions: ( 125, 120, 135)

     Estimated max dynamical RAM per process >     133.03 MB

     Estimated total dynamical RAM >       5.46 GB

     Check: negative core charge=   -0.000002
     Generating pointlists ...
     new r_m :   0.1117 (alat units)  1.9717 (a.u.) for type    1
     new r_m :   0.1098 (alat units)  1.9374 (a.u.) for type    2
     new r_m :   0.0884 (alat units)  1.5596 (a.u.) for type    3
     new r_m :   0.0973 (alat units)  1.7177 (a.u.) for type    4
     new r_m :   0.0884 (alat units)  1.5596 (a.u.) for type    5

     Initial potential from superposition of free atoms

     starting charge     266.9726, renormalised to     277.0000

     negative rho (up, down):  9.216E-01 9.216E-01
     Starting wfcs are  287 randomized atomic wfcs

     total cpu time spent up to now is       12.3 secs

     Self-consistent Calculation

     iteration #  1     ecut=   120.00 Ry     beta= 0.70
     Davidson diagonalization with overlap
     ethr =  1.00E-02,  avg # of iterations =  2.0

     negative rho (up, down):  9.973E-01 9.969E-01

     total cpu time spent up to now is       32.4 secs

     total energy              =   -2930.59251708 Ry
     estimated scf accuracy    <     276.79727809 Ry

     total magnetization       =    -0.00 Bohr mag/cell
     absolute magnetization    =     0.09 Bohr mag/cell

     iteration #  2     ecut=   120.00 Ry     beta= 0.70
     Davidson diagonalization with overlap
     ethr =  1.00E-02,  avg # of iterations =  5.0

     negative rho (up, down):  9.689E-01 9.697E-01

     total cpu time spent up to now is       54.9 secs

     total energy              =   -2942.24632788 Ry
     estimated scf accuracy    <      30.08846244 Ry

     total magnetization       =     0.01 Bohr mag/cell
     absolute magnetization    =     0.27 Bohr mag/cell

     iteration #  3     ecut=   120.00 Ry     beta= 0.70
     Davidson diagonalization with overlap
     ethr =  1.00E-02,  avg # of iterations =  2.0

     negative rho (up, down):  9.992E-01 1.009E+00

     total cpu time spent up to now is       94.0 secs

     total energy              =   -2942.67748868 Ry
     estimated scf accuracy    <      13.12501623 Ry

     total magnetization       =     0.01 Bohr mag/cell
     absolute magnetization    =     0.43 Bohr mag/cell

     iteration #  4     ecut=   120.00 Ry     beta= 0.70
     Davidson diagonalization with overlap
     ethr =  4.74E-03,  avg # of iterations =  3.0

     negative rho (up, down):  1.006E+00 1.013E+00

     total cpu time spent up to now is      131.6 secs

     total energy              =   -2942.93888465 Ry
     estimated scf accuracy    <       3.16456346 Ry

     total magnetization       =     0.15 Bohr mag/cell
     absolute magnetization    =     0.47 Bohr mag/cell

     iteration #  5     ecut=   120.00 Ry     beta= 0.70
     Davidson diagonalization with overlap
     ethr =  1.14E-03,  avg # of iterations =  8.0

     negative rho (up, down):  9.844E-01 9.880E-01

     total cpu time spent up to now is      156.2 secs

     total energy              =   -2943.09544051 Ry
     estimated scf accuracy    <       1.83755723 Ry

     total magnetization       =     0.07 Bohr mag/cell
     absolute magnetization    =     0.23 Bohr mag/cell

     iteration #  6     ecut=   120.00 Ry     beta= 0.70
     Davidson diagonalization with overlap
     ethr =  6.63E-04,  avg # of iterations =  2.0

     negative rho (up, down):  9.711E-01 9.730E-01

     total cpu time spent up to now is      173.7 secs

     total energy              =   -2943.13834930 Ry
     estimated scf accuracy    <       0.99255670 Ry

     total magnetization       =     0.06 Bohr mag/cell
     absolute magnetization    =     0.17 Bohr mag/cell

     iteration #  7     ecut=   120.00 Ry     beta= 0.70
     Davidson diagonalization with overlap
     ethr =  3.58E-04,  avg # of iterations =  2.0

     negative rho (up, down):  9.447E-01 9.458E-01

     total cpu time spent up to now is      190.6 secs

     total energy              =   -2943.08998763 Ry
     estimated scf accuracy    <       0.39780872 Ry

     total magnetization       =     0.05 Bohr mag/cell
     absolute magnetization    =     0.14 Bohr mag/cell

     iteration #  8     ecut=   120.00 Ry     beta= 0.70
     Davidson diagonalization with overlap
     ethr =  1.44E-04,  avg # of iterations = 10.0

     negative rho (up, down):  9.204E-01 9.205E-01

     total cpu time spent up to now is      209.4 secs

     total energy              =   -2943.08980977 Ry
     estimated scf accuracy    <       0.19024083 Ry

     total magnetization       =     0.04 Bohr mag/cell
     absolute magnetization    =     0.11 Bohr mag/cell

     iteration #  9     ecut=   120.00 Ry     beta= 0.70
     Davidson diagonalization with overlap
     ethr =  6.87E-05,  avg # of iterations = 10.5

     negative rho (up, down):  9.077E-01 9.076E-01

     total cpu time spent up to now is      240.2 secs

     total energy              =   -2943.08419077 Ry
     estimated scf accuracy    <       0.05819568 Ry

     total magnetization       =     0.03 Bohr mag/cell
     absolute magnetization    =     0.08 Bohr mag/cell

     iteration # 10     ecut=   120.00 Ry     beta= 0.70
     Davidson diagonalization with overlap
     ethr =  2.10E-05,  avg # of iterations = 11.0

     negative rho (up, down):  9.087E-01 9.087E-01

     total cpu time spent up to now is      285.1 secs

     total energy              =   -2943.08886266 Ry
     estimated scf accuracy    <       0.03669412 Ry

     total magnetization       =     0.02 Bohr mag/cell
     absolute magnetization    =     0.06 Bohr mag/cell

     iteration # 11     ecut=   120.00 Ry     beta= 0.70
     Davidson diagonalization with overlap
     ethr =  1.32E-05,  avg # of iterations =  2.0

     negative rho (up, down):  9.091E-01 9.091E-01

     total cpu time spent up to now is      308.1 secs

     total energy              =   -2943.09332902 Ry
     estimated scf accuracy    <       0.00495974 Ry

     total magnetization       =     0.02 Bohr mag/cell
     absolute magnetization    =     0.05 Bohr mag/cell

     iteration # 12     ecut=   120.00 Ry     beta= 0.70
     Davidson diagonalization with overlap
     ethr =  1.79E-06,  avg # of iterations = 16.0

     negative rho (up, down):  9.091E-01 9.091E-01

     total cpu time spent up to now is      333.1 secs

     total energy              =   -2943.09538026 Ry
     estimated scf accuracy    <       0.00203147 Ry

     total magnetization       =     0.02 Bohr mag/cell
     absolute magnetization    =     0.04 Bohr mag/cell

     iteration # 13     ecut=   120.00 Ry     beta= 0.70
     Davidson diagonalization with overlap
     ethr =  7.33E-07,  avg # of iterations =  3.5

     negative rho (up, down):  9.088E-01 9.088E-01

     Magnetic moment per site  (integrated on atomic sphere of radius R)
     atom   1 (R=0.112)  charge=  9.4662  magn=  0.0000
     atom   2 (R=0.112)  charge=  9.0584  magn=  0.0001
     atom   3 (R=0.112)  charge=  9.0582  magn=  0.0001
     atom   4 (R=0.112)  charge=  9.0620  magn= -0.0000
     atom   5 (R=0.112)  charge=  9.0606  magn= -0.0003
     atom   6 (R=0.110)  charge= 10.3493  magn=  0.0002
     atom   7 (R=0.110)  charge= 10.3513  magn=  0.0001
     atom   8 (R=0.088)  charge=  8.1318  magn= -0.0000
     atom   9 (R=0.088)  charge=  8.1250  magn= -0.0003
     atom  10 (R=0.088)  charge=  8.1088  magn=  0.0002
     atom  11 (R=0.088)  charge=  8.1062  magn=  0.0001
     atom  12 (R=0.088)  charge=  8.1107  magn=  0.0009
     atom  13 (R=0.088)  charge=  8.1074  magn= -0.0000
     atom  14 (R=0.088)  charge=  8.1068  magn=  0.0005
     atom  15 (R=0.088)  charge=  8.1100  magn=  0.0004
     atom  16 (R=0.088)  charge=  8.1076  magn=  0.0011
     atom  17 (R=0.088)  charge=  8.1097  magn= -0.0001
     atom  18 (R=0.097)  charge=  8.3391  magn= -0.0001
     atom  19 (R=0.097)  charge=  8.0806  magn=  0.0010
     atom  20 (R=0.097)  charge=  8.0816  magn=  0.0003
     atom  21 (R=0.097)  charge=  8.0782  magn=  0.0007
     atom  22 (R=0.097)  charge=  8.0795  magn=  0.0001
     atom  23 (R=0.088)  charge=  1.0425  magn= -0.0000

     total cpu time spent up to now is      351.1 secs

     End of self-consistent calculation

 ------ SPIN UP ------------


          k = 0.0000 0.0000 0.0000 ( 61588 PWs)   bands (ev):

   -60.7742 -60.7702 -60.7253 -60.7247 -60.6940 -60.6936 -60.6498 -60.6473
   -60.5000 -60.4773 -54.3851 -54.3383 -54.2606 -54.2141 -52.7054 -46.2603
   -46.2431 -41.6124 -41.5953 -41.5083 -41.4925 -39.7824 -27.7780 -27.7691
   -27.6875 -27.6864 -27.5882 -27.5783 -27.4630 -27.4497 -27.3893 -27.3291
   -27.3072 -27.2596 -27.2558 -27.2383 -27.2213 -27.1686 -27.1593 -27.1449
   -27.1071 -27.0768 -27.0451 -26.9818 -26.9494 -26.9455 -26.9440 -26.9282
   -26.8844 -26.8731 -26.8494 -26.8466 -24.1702 -23.9618 -23.6555 -23.5740
   -23.3152 -23.1832 -23.1579 -23.0613 -22.9304 -22.8598 -22.8460 -22.6269
   -22.4976 -22.4446 -22.3892 -22.3487 -22.2713 -22.2281 -21.7573 -21.7096
   -21.6307 -20.1674 -19.9063 -19.8044 -19.7859 -19.5930 -19.5713 -19.5602
   -19.5515 -19.5378 -19.5127 -19.3390 -19.3320 -18.1309 -17.9255 -17.7928
     1.4359   2.7315   2.9460   3.1449   3.3166   3.4321   3.4869   3.6784
     3.7428   3.7502   3.9255   4.0159   4.2875   4.4651   4.5633   4.6937
     4.7340   4.9442   5.0323   5.0712   5.1197   5.2637   5.2938   5.3137
     5.3944   5.5635   5.5740   5.7254   5.7449   5.7540   5.7755   5.8299
     5.9337   6.0819   6.1453   6.2311   6.2797   6.3270   6.3733   6.3837
     6.4540   6.6498   6.6603   6.6801   6.8575   6.9720   7.0252   7.0642
     7.1097   7.1496   7.2740   7.3212   7.3930   7.4259   7.5023   7.5945
     7.6537   7.6729   7.8991   7.9753   8.0924   8.0975   8.1351   8.1707
     8.2514   8.3349   8.3518   8.3644   8.5077   8.5177   8.6307   8.7704
     8.8052   8.9151   8.9691   9.0673   9.2214   9.2487   9.2895

 ------ SPIN DOWN ----------


          k = 0.0000 0.0000 0.0000 ( 61588 PWs)   bands (ev):

   -60.7742 -60.7695 -60.7253 -60.7241 -60.6940 -60.6928 -60.6490 -60.6472
   -60.5001 -60.4776 -54.3852 -54.3383 -54.2607 -54.2141 -52.7054 -46.2604
   -46.2429 -41.6121 -41.5941 -41.5081 -41.4914 -39.7826 -27.7778 -27.7681
   -27.6874 -27.6854 -27.5881 -27.5776 -27.4628 -27.4486 -27.3894 -27.3288
   -27.3070 -27.2592 -27.2556 -27.2381 -27.2205 -27.1683 -27.1586 -27.1449
   -27.1072 -27.0771 -27.0454 -26.9821 -26.9494 -26.9447 -26.9439 -26.9271
   -26.8842 -26.8720 -26.8494 -26.8455 -24.1703 -23.9620 -23.6555 -23.5740
   -23.3152 -23.1832 -23.1580 -23.0613 -22.9305 -22.8598 -22.8461 -22.6270
   -22.4976 -22.4446 -22.3891 -22.3486 -22.2712 -22.2280 -21.7573 -21.7097
   -21.6306 -20.1662 -19.9062 -19.8030 -19.7849 -19.5923 -19.5703 -19.5595
   -19.5509 -19.5367 -19.5125 -19.3374 -19.3318 -18.1312 -17.9256 -17.7928
     1.4361   2.7316   2.9468   3.1450   3.3166   3.4324   3.4876   3.6786
     3.7430   3.7503   3.9266   4.0165   4.2876   4.4653   4.5636   4.6940
     4.7344   4.9446   5.0329   5.0720   5.1201   5.2643   5.2942   5.3139
     5.3950   5.5638   5.5743   5.7256   5.7448   5.7545   5.7759   5.8304
     5.9338   6.0823   6.1458   6.2317   6.2800   6.3275   6.3738   6.3841
     6.4545   6.6504   6.6607   6.6805   6.8581   6.9727   7.0271   7.0651
     7.1120   7.1506   7.2758   7.3216   7.3942   7.4284   7.5037   7.5955
     7.6547   7.6734   7.8996   7.9759   8.0930   8.0987   8.1355   8.1716
     8.2535   8.3350   8.3529   8.3658   8.5081   8.5183   8.6313   8.7709
     8.8060   8.9167   8.9698   9.0678   9.2217   9.2495   9.2880

     the Fermi energy is     7.2535 ev

!    total energy              =   -2943.09642536 Ry
     estimated scf accuracy    <       0.00045876 Ry
     smearing contrib. (-TS)   =      -0.10082510 Ry
     internal energy E=F+TS    =   -2942.99560025 Ry

     total magnetization       =     0.02 Bohr mag/cell
     absolute magnetization    =     0.03 Bohr mag/cell

     convergence has been achieved in  13 iterations

     negative rho (up, down):  9.088E-01 9.088E-01

     Forces acting on atoms (cartesian axes, Ry/au):

     atom    1 type  1   force =    -0.01258004   -0.02439709    0.00166640
     atom    2 type  1   force =    -0.11277307   -0.01482295   -0.00173503
     atom    3 type  1   force =    -0.11137395    0.01261150    0.00224450
     atom    4 type  1   force =     0.11032483   -0.02380391   -0.00544731
     atom    5 type  1   force =     0.11117596    0.02107453   -0.00057394
     atom    6 type  2   force =    -0.00541903   -0.01898298    0.00705865
     atom    7 type  2   force =    -0.01440153    0.01404434   -0.00946057
     atom    8 type  3   force =    -0.10902386    0.00288774   -0.00307213
     atom    9 type  3   force =     0.14086065    0.00278812    0.02518874
     atom   10 type  3   force =    -0.02430935   -0.03299794   -0.05970531
     atom   11 type  3   force =    -0.01712232   -0.03466216    0.05699254
     atom   12 type  3   force =    -0.01826580    0.03747089   -0.05378234
     atom   13 type  3   force =    -0.01830554    0.02905252    0.06043674
     atom   14 type  3   force =     0.02490644   -0.02946866   -0.05518926
     atom   15 type  3   force =     0.01500390   -0.04166264    0.05339294
     atom   16 type  3   force =     0.01976752    0.03433244   -0.04986534
     atom   17 type  3   force =     0.01462312    0.03661321    0.05679425
     atom   18 type  4   force =    -0.00842612    0.02867169   -0.01171787
     atom   19 type  4   force =    -0.13025958   -0.00485598   -0.11549284
     atom   20 type  4   force =    -0.13334603    0.00479553    0.11122903
     atom   21 type  4   force =     0.12881064   -0.00521761   -0.11460589
     atom   22 type  4   force =     0.16634210    0.00723462    0.09448020
     atom   23 type  5   force =    -0.01620896   -0.00070520    0.01116385
     The non-local contrib.  to forces
     atom    1 type  1   force =     0.00009174   -0.01054413    0.02915609
     atom    2 type  1   force =    -0.24384723   -0.16357586    0.01727452
     atom    3 type  1   force =    -0.23812425    0.15965155   -0.02653590
     atom    4 type  1   force =     0.25837695   -0.16218662    0.03643458
     atom    5 type  1   force =     0.24856367    0.15737715   -0.00925405
     atom    6 type  2   force =     0.00605929   -0.04861672   -0.05944992
     atom    7 type  2   force =    -0.01377309    0.05844593    0.05304875
     atom    8 type  3   force =    -0.26415190    0.00104807    0.00274727
     atom    9 type  3   force =     0.18586906   -0.00234361   -0.03027137
     atom   10 type  3   force =    -0.21592406    0.00534192   -0.20454676
     atom   11 type  3   force =    -0.21737171    0.00793090    0.19469774
     atom   12 type  3   force =    -0.20473991   -0.01973536   -0.17591698
     atom   13 type  3   force =    -0.20734783   -0.00426692    0.20711633
     atom   14 type  3   force =     0.20966173    0.00558505   -0.22029803
     atom   15 type  3   force =     0.23592726    0.01095693    0.17097977
     atom   16 type  3   force =     0.19804260   -0.02096858   -0.18946545
     atom   17 type  3   force =     0.22500255   -0.00787118    0.18055009
     atom   18 type  4   force =     0.00559937    0.05755782   -0.05646321
     atom   19 type  4   force =     0.05871693    0.00928091    0.07669460
     atom   20 type  4   force =     0.04742034   -0.01456750   -0.06077752
     atom   21 type  4   force =    -0.05271206    0.00933215    0.07552718
     atom   22 type  4   force =    -0.05297027   -0.01105437   -0.10109975
     atom   23 type  5   force =    -0.03930105   -0.00001609   -0.00823689
     The ionic contribution  to forces
     atom    1 type  1   force =    -0.44969510   -4.81330317   13.97256656
     atom    2 type  1   force =   -39.69297474   -6.18134449    0.70653563
     atom    3 type  1   force =   -39.66593387    6.16853334   -0.78748937
     atom    4 type  1   force =    39.47777957   -6.37663388    0.59093706
     atom    5 type  1   force =    39.44778100    6.36703742   -0.90239240
     atom    6 type  2   force =    -0.16098649   -3.61354528  -14.03877660
     atom    7 type  2   force =    -0.48086571    3.82644708   13.90459003
     atom    8 type  3   force =   -52.15435781    0.07188417   -0.19472503
     atom    9 type  3   force =    50.83948915    0.07261729   -1.31884376
     atom   10 type  3   force =   -36.05635243   -2.11149785  -23.05275762
     atom   11 type  3   force =   -35.15612569   -0.90573549   22.10836361
     atom   12 type  3   force =   -35.24037884    0.81387098  -22.10575344
     atom   13 type  3   force =   -36.05649349    2.23968417   23.08663735
     atom   14 type  3   force =    35.97957442   -2.13976680  -23.08265808
     atom   15 type  3   force =    34.92670667   -1.09610048   22.23619926
     atom   16 type  3   force =    35.16416690    0.84185650  -22.13498969
     atom   17 type  3   force =    35.82480784    2.43137709   23.21459641
     atom   18 type  4   force =    -0.15028029    4.41819595  -13.99134323
     atom   19 type  4   force =   -35.89884718    0.95673184  -25.51448947
     atom   20 type  4   force =   -35.93518385   -0.95254835   25.58084793
     atom   21 type  4   force =    35.79201630    0.95621612  -25.58022643
     atom   22 type  4   force =    34.99995350   -0.94515151   26.45740551
     atom   23 type  5   force =     4.64620012   -0.02882465    0.84576578
     The local contribution  to forces
     atom    1 type  1   force =     0.43582682    4.79669532  -14.00467210
     atom    2 type  1   force =    39.84903802    6.32869767   -0.72218900
     atom    3 type  1   force =    39.81579382   -6.31462955    0.81770792
     atom    4 type  1   force =   -39.65271500    6.51677738   -0.63313932
     atom    5 type  1   force =   -39.61129523   -6.50371737    0.90873510
     atom    6 type  2   force =     0.15068658    3.63507701   14.12100391
     atom    7 type  2   force =     0.47933658   -3.87142371  -13.97604104
     atom    8 type  3   force =    52.34921858   -0.07046590    0.19421776
     atom    9 type  3   force =   -50.91108060   -0.06829731    1.38745608
     atom   10 type  3   force =    36.26840626    2.05731417   23.22208560
     atom   11 type  3   force =    35.38670691    0.85641575  -22.27370908
     atom   12 type  3   force =    35.44844408   -0.74395495   22.25278396
     atom   13 type  3   force =    36.26864207   -2.19515489  -23.25913808
     atom   14 type  3   force =   -36.18858190    2.09230521   23.27381680
     atom   15 type  3   force =   -35.18160412    1.03799911  -22.37750174
     atom   16 type  3   force =   -35.37016093   -0.77385760   22.30108453
     atom   17 type  3   force =   -36.06331426   -2.37506170  -23.36116571
     atom   18 type  4   force =     0.13541076   -4.43784836   14.04675200
     atom   19 type  4   force =    35.71222482   -0.96899899   25.34163992
     atom   20 type  4   force =    35.76296833    0.96756526  -25.42873657
     atom   21 type  4   force =   -35.61460470   -0.97093432   25.41253370
     atom   22 type  4   force =   -34.79009938    0.95751575  -26.28828482
     atom   23 type  5   force =    -4.62397740    0.02811339   -0.82690892
     The core correction contribution to forces
     atom    1 type  1   force =     0.00248293    0.00134279   -0.00016598
     atom    2 type  1   force =    -0.01255897   -0.00187306   -0.00006985
     atom    3 type  1   force =    -0.01252272    0.00280493   -0.00213888
     atom    4 type  1   force =     0.01432785   -0.00302166    0.00397398
     atom    5 type  1   force =     0.01463121    0.00285878    0.00196131
     atom    6 type  2   force =    -0.00038871    0.00206485    0.00233053
     atom    7 type  2   force =     0.00062193   -0.00286840   -0.00193862
     atom    8 type  3   force =    -0.03281511    0.00015781   -0.00003392
     atom    9 type  3   force =     0.02075788    0.00007444   -0.00673760
     atom   10 type  3   force =    -0.02175001    0.00976222   -0.01598294
     atom   11 type  3   force =    -0.02399402    0.00938369    0.01744759
     atom   12 type  3   force =    -0.02173257   -0.00999997   -0.01536019
     atom   13 type  3   force =    -0.02256097   -0.00888015    0.01713075
     atom   14 type  3   force =     0.02226097    0.00942909   -0.01693053
     atom   15 type  3   force =     0.02620150    0.01045183    0.01355098
     atom   16 type  3   force =     0.02189770   -0.00976428   -0.01636390
     atom   17 type  3   force =     0.02375064   -0.00915305    0.01397923
     atom   18 type  4   force =    -0.00037933   -0.00291823    0.00272541
     atom   19 type  4   force =    -0.00963564    0.00003226   -0.00971432
     atom   20 type  4   force =    -0.00897617    0.00038286    0.00889856
     atom   21 type  4   force =     0.00927974    0.00002161   -0.00981200
     atom   22 type  4   force =     0.00858998    0.00020273    0.01164757
     atom   23 type  5   force =     0.00000000    0.00000000    0.00000000
     The Hubbard contrib.    to forces
     atom    1 type  1   force =     0.00000000    0.00000000    0.00000000
     atom    2 type  1   force =     0.00000000    0.00000000    0.00000000
     atom    3 type  1   force =     0.00000000    0.00000000    0.00000000
     atom    4 type  1   force =     0.00000000    0.00000000    0.00000000
     atom    5 type  1   force =     0.00000000    0.00000000    0.00000000
     atom    6 type  2   force =     0.00000000    0.00000000    0.00000000
     atom    7 type  2   force =     0.00000000    0.00000000    0.00000000
     atom    8 type  3   force =     0.00000000    0.00000000    0.00000000
     atom    9 type  3   force =     0.00000000    0.00000000    0.00000000
     atom   10 type  3   force =     0.00000000    0.00000000    0.00000000
     atom   11 type  3   force =     0.00000000    0.00000000    0.00000000
     atom   12 type  3   force =     0.00000000    0.00000000    0.00000000
     atom   13 type  3   force =     0.00000000    0.00000000    0.00000000
     atom   14 type  3   force =     0.00000000    0.00000000    0.00000000
     atom   15 type  3   force =     0.00000000    0.00000000    0.00000000
     atom   16 type  3   force =     0.00000000    0.00000000    0.00000000
     atom   17 type  3   force =     0.00000000    0.00000000    0.00000000
     atom   18 type  4   force =     0.00000000    0.00000000    0.00000000
     atom   19 type  4   force =     0.00000000    0.00000000    0.00000000
     atom   20 type  4   force =     0.00000000    0.00000000    0.00000000
     atom   21 type  4   force =     0.00000000    0.00000000    0.00000000
     atom   22 type  4   force =     0.00000000    0.00000000    0.00000000
     atom   23 type  5   force =     0.00000000    0.00000000    0.00000000
     The SCF correction term to forces
     atom    1 type  1   force =    -0.00132213    0.00143137    0.00486970
     atom    2 type  1   force =    -0.01246585    0.00329207   -0.00319847
     atom    3 type  1   force =    -0.01062263   -0.00372950    0.00078859
     atom    4 type  1   force =     0.01251976    0.00128014   -0.00356573
     atom    5 type  1   force =     0.01145961   -0.00246218    0.00046397
     atom    6 type  2   force =    -0.00082539    0.00605642   -0.01796141
     atom    7 type  2   force =     0.00024306    0.00346272    0.01096817
     atom    8 type  3   force =    -0.00695333    0.00028286   -0.00519035
     atom    9 type  3   force =     0.00578947    0.00075658   -0.00632674
     atom   10 type  3   force =     0.00127520    0.00610086   -0.00841573
     atom   11 type  3   force =    -0.00637351   -0.00263774    0.01028055
     atom   12 type  3   force =     0.00010573   -0.00269054   -0.00944784
     atom   13 type  3   force =    -0.00058101   -0.00231041    0.00877824
     atom   14 type  3   force =     0.00195552    0.00299805   -0.00903155
     atom   15 type  3   force =     0.00773689   -0.00495075    0.01025253
     atom   16 type  3   force =     0.00578555   -0.00291433   -0.01004296
     atom   17 type  3   force =     0.00434065   -0.00265869    0.00892210
     atom   18 type  4   force =     0.00118768   -0.00629622   -0.01330098
     atom   19 type  4   force =     0.00724580   -0.00188272   -0.00953570
     atom   20 type  4   force =     0.00038961    0.00398254    0.01108450
     atom   21 type  4   force =    -0.00520435    0.00016610   -0.01254047
     atom   22 type  4   force =     0.00083257    0.00574128    0.01489954
     atom   23 type  5   force =     0.00083367    0.00004142    0.00063175

     Total force =     0.501116     Total SCF correction =     0.056579
     SCF correction compared to forces is large: reduce conv_thr to get better values


     Computing stress (Cartesian axis) and pressure


     negative rho (up, down):  9.088E-01 9.088E-01
          total   stress  (Ry/bohr**3)                   (kbar)     P=       82.82
   0.00066208   0.00000036   0.00001317           97.39        0.05        1.94
   0.00000036   0.00066377  -0.00001120            0.05       97.64       -1.65
   0.00001317  -0.00001120   0.00036315            1.94       -1.65       53.42


     Molecular Dynamics Calculation

     Starting temperature  =   300.00 K

     temperature is set once at start

     mass Hf               =   178.49
     mass Nb               =    92.91
     mass Ta               =   180.95
     mass Zr               =    91.22
     mass H                =     2.01
     Time step             =     4.20 a.u.,  0.2032 femto-seconds

     Entering Dynamics:    iteration =     1
                           time      =   0.0002 pico-seconds


ATOMIC_POSITIONS (angstrom)
Hf            2.6700884813        2.8271223293        6.6040531517
Hf            1.2530763300        1.2862837561        5.0585550616
Hf            1.2555725886        7.3898046566        5.0881567171
Hf            4.0871012842        1.2862834985        5.0585549551
Hf            4.0846050903        7.3898048994        5.0881566362
Nb            2.6700885436        2.7969295592        3.5156724910
Nb            2.6700880485        5.8763794504        6.6350863070
Ta            1.2094588559        4.3409279333        5.0712146306
Ta            4.1307197296        4.3409279305        5.0712154304
Ta            1.3073408814        1.3141216556        2.0588663057
Ta            1.3028767149        1.3083901551        8.0946697005
Ta            1.3040979904        7.3758271845        2.0463245430
Ta            1.3077991656        7.3650837706        8.0860928164
Ta            4.0328368200        1.3141217554        2.0588664335
Ta            4.0373009097        1.3083899569        8.0946695987
Ta            4.0360797366        7.3758270957        2.0463246539
Ta            4.0323784147        7.3650839846        8.0860927133
Zr            2.6700883693        5.8662874529        3.5274721579
Zr            1.2439161922        4.3220776919        2.0000824021
Zr            1.2404668126        4.3541235537        8.1498506784
Zr            4.0962614110        4.3220776716        2.0000824519
Zr            4.0997127241        4.3541236906        8.1498497382
H             5.3972222502        4.3399981572        6.3388447855


     kinetic energy (Ekin) =           8.09817811 Ry
     temperature           =       38745.49079383 K 
     Ekin + Etot (const)   =       -2934.99824725 Ry
     Ions kinetic stress =          143.02 (kbar)
                                    214.53           0.00         214.53
                                      0.00           0.00           0.00
                                    214.53           0.00         214.53



     Linear momentum :   -0.0000000000    0.0000000000   -0.0000000000

     File outdir/pwscf.msd.dat deleted, as requested

     Writing config-only to output data dir outdir/pwscf.save/
     NEW-OLD atomic charge density approx. for the potential

     Check: negative core charge=   -0.000002

     negative rho (up, down):  9.088E-01 9.088E-01
     Generating pointlists ...
     new r_m :   0.0791 (alat units)  1.3968 (a.u.) for type    3
     new r_m :   0.0791 (alat units)  1.3968 (a.u.) for type    5

     total cpu time spent up to now is      376.2 secs

     Self-consistent Calculation

     iteration #  1     ecut=   120.00 Ry     beta= 0.70
     Davidson diagonalization with overlap
     ethr =  1.00E-06,  avg # of iterations = 13.5

     negative rho (up, down):  9.087E-01 9.087E-01

     total cpu time spent up to now is      441.7 secs

     total energy              =   -2943.08588089 Ry
     estimated scf accuracy    <       0.02933035 Ry

     total magnetization       =     0.02 Bohr mag/cell
     absolute magnetization    =     0.03 Bohr mag/cell

     iteration #  2     ecut=   120.00 Ry     beta= 0.70
     Davidson diagonalization with overlap
     ethr =  1.06E-05,  avg # of iterations =  2.0

     negative rho (up, down):  9.088E-01 9.088E-01

     total cpu time spent up to now is      467.2 secs

     total energy              =   -2943.08804558 Ry
     estimated scf accuracy    <       0.00576597 Ry

     total magnetization       =     0.02 Bohr mag/cell
     absolute magnetization    =     0.03 Bohr mag/cell

     iteration #  3     ecut=   120.00 Ry     beta= 0.70
     Davidson diagonalization with overlap
     ethr =  2.08E-06,  avg # of iterations =  2.0

     negative rho (up, down):  9.087E-01 9.087E-01

     total cpu time spent up to now is      484.5 secs

     total energy              =   -2943.08835055 Ry
     estimated scf accuracy    <       0.00108965 Ry

     total magnetization       =     0.02 Bohr mag/cell
     absolute magnetization    =     0.02 Bohr mag/cell

     iteration #  4     ecut=   120.00 Ry     beta= 0.70
     Davidson diagonalization with overlap
     ethr =  3.93E-07,  avg # of iterations =  2.0

     negative rho (up, down):  9.088E-01 9.088E-01

     Magnetic moment per site  (integrated on atomic sphere of radius R)
     atom   1 (R=0.112)  charge=  9.4656  magn=  0.0000
     atom   2 (R=0.112)  charge=  9.0570  magn=  0.0001
     atom   3 (R=0.112)  charge=  9.0568  magn=  0.0001
     atom   4 (R=0.112)  charge=  9.0602  magn=  0.0000
     atom   5 (R=0.112)  charge=  9.0590  magn= -0.0001
     atom   6 (R=0.110)  charge= 10.3472  magn=  0.0000
     atom   7 (R=0.110)  charge= 10.3500  magn=  0.0001
     atom   8 (R=0.079)  charge=  7.1198  magn=  0.0000
     atom   9 (R=0.079)  charge=  7.1264  magn= -0.0000
     atom  10 (R=0.079)  charge=  7.1015  magn=  0.0002
     atom  11 (R=0.079)  charge=  7.1013  magn=  0.0002
     atom  12 (R=0.079)  charge=  7.1010  magn=  0.0005
     atom  13 (R=0.079)  charge=  7.1026  magn=  0.0000
     atom  14 (R=0.079)  charge=  7.1008  magn=  0.0003
     atom  15 (R=0.079)  charge=  7.1038  magn=  0.0003
     atom  16 (R=0.079)  charge=  7.1014  magn=  0.0005
     atom  17 (R=0.079)  charge=  7.1049  magn=  0.0000
     atom  18 (R=0.097)  charge=  8.3379  magn= -0.0000
     atom  19 (R=0.097)  charge=  8.0837  magn=  0.0006
     atom  20 (R=0.097)  charge=  8.0813  magn=  0.0001
     atom  21 (R=0.097)  charge=  8.0824  magn=  0.0006
     atom  22 (R=0.097)  charge=  8.0767  magn=  0.0002
     atom  23 (R=0.079)  charge=  0.9697  magn=  0.0000

     total cpu time spent up to now is      502.5 secs

     End of self-consistent calculation

 ------ SPIN UP ------------


          k = 0.0000 0.0000 0.0000 ( 61588 PWs)   bands (ev):

   -60.7643 -60.7551 -60.7175 -60.7074 -60.6827 -60.6764 -60.6366 -60.6298
   -60.4670 -60.3627 -54.3721 -54.3264 -54.2475 -54.2022 -52.6928 -46.2424
   -46.2160 -41.5999 -41.5954 -41.5150 -41.4887 -39.7669 -27.7665 -27.7535
   -27.6767 -27.6693 -27.5771 -27.5638 -27.4501 -27.4318 -27.3509 -27.3157
   -27.2819 -27.2492 -27.2403 -27.2227 -27.2044 -27.1524 -27.1397 -27.1077
   -27.0393 -27.0365 -26.9744 -26.9401 -26.9331 -26.9319 -26.9117 -26.9096
   -26.8741 -26.8548 -26.8382 -26.8283 -24.1544 -23.9461 -23.6406 -23.5610
   -23.3015 -23.1682 -23.1448 -23.0468 -22.9150 -22.8484 -22.8310 -22.6146
   -22.4796 -22.4253 -22.3728 -22.3300 -22.2526 -22.2077 -21.7437 -21.6954
   -21.6188 -20.1623 -19.9025 -19.8061 -19.7763 -19.5756 -19.5679 -19.5627
   -19.5487 -19.5277 -19.5135 -19.3365 -19.3321 -18.1193 -17.9090 -17.7795
     1.3989   2.5019   2.9526   3.1622   3.3240   3.4481   3.4975   3.6915
     3.7518   3.7689   3.9399   4.0265   4.2994   4.4893   4.5765   4.7060
     4.7457   4.9634   5.0523   5.0942   5.1304   5.2749   5.3069   5.3326
     5.4080   5.5815   5.5890   5.7422   5.7619   5.7705   5.7885   5.8371
     5.9456   6.0945   6.1596   6.2461   6.2921   6.3407   6.3876   6.3918
     6.4700   6.6617   6.6836   6.6931   6.8764   6.9895   7.0379   7.0758
     7.1203   7.1605   7.2847   7.3350   7.4052   7.4341   7.5137   7.5917
     7.6505   7.6776   7.9121   7.9914   8.0919   8.1086   8.1458   8.1808
     8.2637   8.3538   8.3645   8.3763   8.5267   8.5319   8.6396   8.7834
     8.8209   8.9202   8.9812   9.0781   9.2415   9.2719   9.3095

 ------ SPIN DOWN ----------


          k = 0.0000 0.0000 0.0000 ( 61588 PWs)   bands (ev):

   -60.7643 -60.7546 -60.7174 -60.7070 -60.6825 -60.6757 -60.6364 -60.6292
   -60.4670 -60.3626 -54.3721 -54.3264 -54.2475 -54.2022 -52.6928 -46.2423
   -46.2159 -41.5998 -41.5947 -41.5148 -41.4880 -39.7669 -27.7663 -27.7528
   -27.6765 -27.6685 -27.5770 -27.5632 -27.4497 -27.4309 -27.3509 -27.3154
   -27.2817 -27.2491 -27.2399 -27.2225 -27.2038 -27.1522 -27.1390 -27.1075
   -27.0392 -27.0364 -26.9744 -26.9400 -26.9327 -26.9315 -26.9111 -26.9094
   -26.8738 -26.8541 -26.8380 -26.8275 -24.1544 -23.9462 -23.6406 -23.5611
   -23.3014 -23.1681 -23.1447 -23.0467 -22.9150 -22.8484 -22.8310 -22.6147
   -22.4796 -22.4253 -22.3727 -22.3299 -22.2525 -22.2076 -21.7436 -21.6954
   -21.6187 -20.1616 -19.9024 -19.8052 -19.7756 -19.5752 -19.5675 -19.5622
   -19.5485 -19.5272 -19.5132 -19.3356 -19.3319 -18.1193 -17.9090 -17.7794
     1.3991   2.5021   2.9533   3.1624   3.3241   3.4484   3.4981   3.6918
     3.7521   3.7691   3.9407   4.0270   4.2997   4.4896   4.5769   4.7064
     4.7461   4.9640   5.0528   5.0949   5.1307   5.2753   5.3072   5.3330
     5.4087   5.5818   5.5893   5.7426   5.7623   5.7708   5.7889   5.8375
     5.9458   6.0950   6.1601   6.2465   6.2924   6.3411   6.3880   6.3922
     6.4705   6.6622   6.6840   6.6935   6.8771   6.9901   7.0394   7.0768
     7.1222   7.1614   7.2862   7.3355   7.4062   7.4363   7.5151   7.5925
     7.6514   7.6782   7.9125   7.9920   8.0926   8.1097   8.1463   8.1817
     8.2655   8.3541   8.3654   8.3775   8.5272   8.5325   8.6402   8.7839
     8.8214   8.9217   8.9819   9.0786   9.2418   9.2720   9.3113

     the Fermi energy is     7.2644 ev

!    total energy              =   -2943.08827331 Ry
     estimated scf accuracy    <       0.00030759 Ry
     smearing contrib. (-TS)   =      -0.10204482 Ry
     internal energy E=F+TS    =   -2942.98622849 Ry

     total magnetization       =     0.02 Bohr mag/cell
     absolute magnetization    =     0.02 Bohr mag/cell

     convergence has been achieved in   4 iterations

     negative rho (up, down):  9.088E-01 9.088E-01

     Forces acting on atoms (cartesian axes, Ry/au):

     atom    1 type  1   force =    -0.01356126   -0.02553219    0.00618583
     atom    2 type  1   force =    -0.11832533   -0.01400279   -0.00064205
     atom    3 type  1   force =    -0.11664526    0.01240999    0.00441150
     atom    4 type  1   force =     0.11528410   -0.02225758   -0.00514531
     atom    5 type  1   force =     0.11619415    0.01935064    0.00108992
     atom    6 type  2   force =    -0.00663109   -0.01976934    0.00435495
     atom    7 type  2   force =    -0.01458096    0.01493704   -0.00853074
     atom    8 type  3   force =    -0.11356529    0.00263934   -0.00204856
     atom    9 type  3   force =     0.10995459    0.00390838   -0.01164218
     atom   10 type  3   force =    -0.02445375   -0.02994811   -0.06219665
     atom   11 type  3   force =    -0.01802701   -0.03484496    0.05922278
     atom   12 type  3   force =    -0.01934457    0.03537433   -0.05682163
     atom   13 type  3   force =    -0.01794667    0.02857887    0.06238329
     atom   14 type  3   force =     0.02592089   -0.02778048   -0.05794302
     atom   15 type  3   force =     0.01619263   -0.04336038    0.05548695
     atom   16 type  3   force =     0.02199197    0.03259169   -0.05310689
     atom   17 type  3   force =     0.01486577    0.03751220    0.05902595
     atom   18 type  4   force =    -0.00813898    0.02748971   -0.01473319
     atom   19 type  4   force =    -0.12827331   -0.00506320   -0.11840070
     atom   20 type  4   force =    -0.13281845    0.00530932    0.11388934
     atom   21 type  4   force =     0.12782178   -0.00487451   -0.12031316
     atom   22 type  4   force =     0.15837295    0.00837048    0.09744221
     atom   23 type  5   force =     0.02571311   -0.00103844    0.04803137
     The non-local contrib.  to forces
     atom    1 type  1   force =    -0.00051361   -0.01205198    0.03221609
     atom    2 type  1   force =    -0.24636494   -0.16241099    0.01834718
     atom    3 type  1   force =    -0.24090306    0.15881547   -0.02474801
     atom    4 type  1   force =     0.26033262   -0.16049184    0.03647361
     atom    5 type  1   force =     0.25052834    0.15502571   -0.00921941
     atom    6 type  2   force =     0.00712427   -0.05145143   -0.06235969
     atom    7 type  2   force =    -0.01277527    0.06015990    0.05426108
     atom    8 type  3   force =    -0.26149535    0.00085675    0.00235980
     atom    9 type  3   force =     0.14839551   -0.00144180   -0.06470358
     atom   10 type  3   force =    -0.21376656    0.00613694   -0.20709627
     atom   11 type  3   force =    -0.21504041    0.00913370    0.19579448
     atom   12 type  3   force =    -0.20376035   -0.02031007   -0.17928223
     atom   13 type  3   force =    -0.20385592   -0.00634485    0.20804244
     atom   14 type  3   force =     0.20853999    0.00629359   -0.22327646
     atom   15 type  3   force =     0.23210865    0.00767855    0.17335920
     atom   16 type  3   force =     0.19794814   -0.02223789   -0.19272968
     atom   17 type  3   force =     0.22043197   -0.00561277    0.18326986
     atom   18 type  4   force =     0.00637184    0.05758801   -0.06148125
     atom   19 type  4   force =     0.05949569    0.00860645    0.07271754
     atom   20 type  4   force =     0.04808792   -0.01377324   -0.05917426
     atom   21 type  4   force =    -0.05427706    0.00948233    0.07176628
     atom   22 type  4   force =    -0.05558090   -0.00997973   -0.09170511
     atom   23 type  5   force =    -0.04828080   -0.00013631   -0.02174969
     The ionic contribution  to forces
     atom    1 type  1   force =    -0.49382734   -4.84607543   14.00641659
     atom    2 type  1   force =   -39.70886187   -6.18589516    0.71054179
     atom    3 type  1   force =   -39.68193216    6.17311424   -0.78332976
     atom    4 type  1   force =    39.47760282   -6.41056083    0.59274762
     atom    5 type  1   force =    39.44763098    6.40129829   -0.90004764
     atom    6 type  2   force =    -0.18518750   -3.62905989  -14.06333950
     atom    7 type  2   force =    -0.52680400    3.86126830   13.94141597
     atom    8 type  3   force =   -52.19635196    0.07188712   -0.19049093
     atom    9 type  3   force =    50.51711100    0.07295033   -1.63956196
     atom   10 type  3   force =   -36.06299719   -2.11293944  -23.06111286
     atom   11 type  3   force =   -35.16853194   -0.90553404   22.11446394
     atom   12 type  3   force =   -35.24699468    0.81528880  -22.11410600
     atom   13 type  3   force =   -36.06893414    2.23952204   23.09281811
     atom   14 type  3   force =    35.98104078   -2.14479869  -23.09959814
     atom   15 type  3   force =    34.94506905   -1.09318646   22.25207444
     atom   16 type  3   force =    35.16569393    0.84678999  -22.15186435
     atom   17 type  3   force =    35.84318855    2.42858140   23.23068577
     atom   18 type  4   force =    -0.17297370    4.43258643  -14.01419801
     atom   19 type  4   force =   -35.90829534    0.95670124  -25.52595219
     atom   20 type  4   force =   -35.95965998   -0.95254715   25.59047307
     atom   21 type  4   force =    35.79225958    0.95610925  -25.61433524
     atom   22 type  4   force =    35.11264722   -0.94543081   26.50770741
     atom   23 type  5   force =     5.09910792   -0.03006952    1.11859186
     The local contribution  to forces
     atom    1 type  1   force =     0.47778563    4.82498764  -14.02417119
     atom    2 type  1   force =    39.84531143    6.33451757   -0.72225519
     atom    3 type  1   force =    39.81456792   -6.31964676    0.82163052
     atom    4 type  1   force =   -39.63426681    6.55265452   -0.63118274
     atom    5 type  1   force =   -39.59314182   -6.53995599    0.91521891
     atom    6 type  2   force =     0.17489644    3.66341183   14.12462389
     atom    7 type  2   force =     0.52430271   -3.89679830  -13.99136301
     atom    8 type  3   force =    52.37521755   -0.07158624    0.18976424
     atom    9 type  3   force =   -50.56633777   -0.06866295    1.70534238
     atom   10 type  3   force =    36.26666015    2.07324186   23.21140454
     atom   11 type  3   force =    35.39000554    0.84807216  -22.26089458
     atom   12 type  3   force =    35.44653352   -0.75422146   22.24151347
     atom   13 type  3   force =    36.27782612   -2.19072075  -23.24641372
     atom   14 type  3   force =   -36.17827488    2.10571928   23.27082572
     atom   15 type  3   force =   -35.18851469    1.02195681  -22.37482243
     atom   16 type  3   force =   -35.35482653   -0.78660862   22.29683145
     atom   17 type  3   force =   -36.07251454   -2.36668169  -23.35826684
     atom   18 type  4   force =     0.16263589   -4.46561227   14.05515173
     atom   19 type  4   force =    35.72885888   -0.97148820   25.33276975
     atom   20 type  4   force =    35.78909829    0.97049818  -25.41515263
     atom   21 type  4   force =   -35.61760357   -0.97030666   25.42314640
     atom   22 type  4   force =   -34.92443938    0.96361544  -26.31257065
     atom   23 type  5   force =    -5.02701285    0.02907470   -1.05096822
     The core correction contribution to forces
     atom    1 type  1   force =     0.00237120    0.00139729   -0.00022212
     atom    2 type  1   force =    -0.01245393   -0.00178532    0.00006742
     atom    3 type  1   force =    -0.01248002    0.00271953   -0.00194227
     atom    4 type  1   force =     0.01416176   -0.00280252    0.00357199
     atom    5 type  1   force =     0.01444136    0.00253043    0.00163006
     atom    6 type  2   force =    -0.00040912    0.00227348    0.00251007
     atom    7 type  2   force =     0.00058919   -0.00293435   -0.00197225
     atom    8 type  3   force =    -0.03196833    0.00013716    0.00012083
     atom    9 type  3   force =     0.01709885    0.00032911   -0.01005360
     atom   10 type  3   force =    -0.02156937    0.00982535   -0.01581826
     atom   11 type  3   force =    -0.02387707    0.00954783    0.01747719
     atom   12 type  3   force =    -0.02164530   -0.01006711   -0.01524152
     atom   13 type  3   force =    -0.02239853   -0.00902149    0.01708966
     atom   14 type  3   force =     0.02214252    0.00913090   -0.01702676
     atom   15 type  3   force =     0.02589130    0.01049760    0.01361329
     atom   16 type  3   force =     0.02181995   -0.00960593   -0.01645737
     atom   17 type  3   force =     0.02335712   -0.00907264    0.01409476
     atom   18 type  4   force =    -0.00033610   -0.00307281    0.00297157
     atom   19 type  4   force =    -0.00962524    0.00006258   -0.00968405
     atom   20 type  4   force =    -0.00901930    0.00036802    0.00893741
     atom   21 type  4   force =     0.00933547    0.00002403   -0.00980617
     atom   22 type  4   force =     0.00903709    0.00017893    0.01106974
     atom   23 type  5   force =     0.00000000    0.00000000    0.00000000
     The Hubbard contrib.    to forces
     atom    1 type  1   force =     0.00000000    0.00000000    0.00000000
     atom    2 type  1   force =     0.00000000    0.00000000    0.00000000
     atom    3 type  1   force =     0.00000000    0.00000000    0.00000000
     atom    4 type  1   force =     0.00000000    0.00000000    0.00000000
     atom    5 type  1   force =     0.00000000    0.00000000    0.00000000
     atom    6 type  2   force =     0.00000000    0.00000000    0.00000000
     atom    7 type  2   force =     0.00000000    0.00000000    0.00000000
     atom    8 type  3   force =     0.00000000    0.00000000    0.00000000
     atom    9 type  3   force =     0.00000000    0.00000000    0.00000000
     atom   10 type  3   force =     0.00000000    0.00000000    0.00000000
     atom   11 type  3   force =     0.00000000    0.00000000    0.00000000
     atom   12 type  3   force =     0.00000000    0.00000000    0.00000000
     atom   13 type  3   force =     0.00000000    0.00000000    0.00000000
     atom   14 type  3   force =     0.00000000    0.00000000    0.00000000
     atom   15 type  3   force =     0.00000000    0.00000000    0.00000000
     atom   16 type  3   force =     0.00000000    0.00000000    0.00000000
     atom   17 type  3   force =     0.00000000    0.00000000    0.00000000
     atom   18 type  4   force =     0.00000000    0.00000000    0.00000000
     atom   19 type  4   force =     0.00000000    0.00000000    0.00000000
     atom   20 type  4   force =     0.00000000    0.00000000    0.00000000
     atom   21 type  4   force =     0.00000000    0.00000000    0.00000000
     atom   22 type  4   force =     0.00000000    0.00000000    0.00000000
     atom   23 type  5   force =     0.00000000    0.00000000    0.00000000
     The SCF correction term to forces
     atom    1 type  1   force =     0.00060555    0.00611556   -0.00753728
     atom    2 type  1   force =     0.00402667    0.00147639   -0.00682699
     atom    3 type  1   force =     0.00408474   -0.00268722   -0.00668273
     atom    4 type  1   force =    -0.00256360   -0.00115163   -0.00623953
     atom    5 type  1   force =    -0.00328202    0.00035747   -0.00597574
     atom    6 type  2   force =    -0.00307249   -0.00503805    0.00343644
     atom    7 type  2   force =     0.00008910   -0.00685325   -0.01035628
     atom    8 type  3   force =     0.00101548    0.00124983   -0.00328625
     atom    9 type  3   force =    -0.00633031    0.00063896   -0.00214916
     atom   10 type  3   force =     0.00720189   -0.00630754    0.01094245
     atom   11 type  3   force =    -0.00060044    0.00384067   -0.00710199
     atom   12 type  3   force =     0.00650493    0.00458943    0.01081090
     atom   13 type  3   force =    -0.00060152   -0.00495081   -0.00863695
     atom   14 type  3   force =    -0.00754483   -0.00422028    0.01164889
     atom   15 type  3   force =     0.00162101    0.00959838   -0.00822129
     atom   16 type  3   force =    -0.00866083    0.00415941    0.01162931
     atom   17 type  3   force =     0.00038535   -0.00979683   -0.01024135
     atom   18 type  4   force =    -0.00385422    0.00590563    0.00333904
     atom   19 type  4   force =     0.00127539    0.00096000    0.01226451
     atom   20 type  4   force =    -0.00134268    0.00066879   -0.01067798
     atom   21 type  4   force =    -0.00190995   -0.00027818    0.00943184
     atom   22 type  4   force =     0.01669162   -0.00010808   -0.01654292
     atom   23 type  5   force =     0.00188152   -0.00000204    0.00267370

     Total force =     0.503068     Total SCF correction =     0.054081
     SCF correction compared to forces is large: reduce conv_thr to get better values


     Computing stress (Cartesian axis) and pressure


     negative rho (up, down):  9.088E-01 9.088E-01
          total   stress  (Ry/bohr**3)                   (kbar)     P=       84.29
   0.00067550   0.00000025   0.00002732           99.37        0.04        4.02
   0.00000025   0.00067251  -0.00001168            0.04       98.93       -1.72
   0.00002732  -0.00001168   0.00037098            4.02       -1.72       54.57


     Entering Dynamics:    iteration =     2
                           time      =   0.0004 pico-seconds


ATOMIC_POSITIONS (angstrom)
Hf            2.6701762275        2.8271201643        6.6041424397
Hf            1.2531551904        1.2862825274        5.0586438602
Hf            1.2556515855        7.3898057305        5.0882459198
Hf            4.0871999496        1.2862815384        5.0586433888
Hf            4.0847038323        7.3898066144        5.0882455675
Nb            2.6701763992        2.7969263336        3.5157622454
Nb            2.6701745326        5.8763818711        6.6351737304
Ta            1.2095382280        4.3409281644        5.0713033130
Ta            4.1308188246        4.3409282306        5.0713043695
Ta            1.3074276946        1.3141190267        2.0589499810
Ta            1.3029640953        1.3083872019        8.0947635507
Ta            1.3041852639        7.3758302471        2.0464086901
Ta            1.3078865170        7.3650862103        8.0861869429
Ta            4.0329278772        1.3141193491        2.0589504773
Ta            4.0373911360        1.3083863237        8.0947631355
Ta            4.0361704260        7.3758299120        2.0464091221
Ta            4.0324685552        7.3650871439        8.0861865467
Zr            2.6701758678        5.8662921486        3.5275587313
Zr            1.2439833642        4.3220768509        2.0001515115
Zr            1.2405333011        4.3541244190        8.1499585937
Zr            4.0963718774        4.3220768315        2.0001513963
Zr            4.0998287273        4.3541250365        8.1499548668
H             5.2497348370        4.3399910834        6.1915404640


     kinetic energy (Ekin) =           8.08861738 Ry
     temperature           =       38699.74778458 K 
     Ekin + Etot (const)   =       -2934.99965593 Ry
     Ions kinetic stress =          142.85 (kbar)
                                    214.46           0.01         214.28
                                      0.01           0.00           0.01
                                    214.28           0.01         214.10



     Linear momentum :   -0.0000000000    0.0000000000   -0.0000000000

     Writing config-only to output data dir outdir/pwscf.save/
     NEW-OLD atomic charge density approx. for the potential

     Check: negative core charge=   -0.000002

     negative rho (up, down):  9.087E-01 9.087E-01
     Generating pointlists ...
     new r_m :   0.0699 (alat units)  1.2342 (a.u.) for type    3
     new r_m :   0.0699 (alat units)  1.2342 (a.u.) for type    5

     total cpu time spent up to now is      527.8 secs

     Self-consistent Calculation

     iteration #  1     ecut=   120.00 Ry     beta= 0.70
     Davidson diagonalization with overlap
     ethr =  1.00E-06,  avg # of iterations =  9.0

     negative rho (up, down):  9.089E-01 9.089E-01

     total cpu time spent up to now is      584.3 secs

     total energy              =   -2943.03922489 Ry
     estimated scf accuracy    <       0.05824570 Ry

     total magnetization       =     0.02 Bohr mag/cell
     absolute magnetization    =     0.02 Bohr mag/cell

     iteration #  2     ecut=   120.00 Ry     beta= 0.70
     Davidson diagonalization with overlap
     ethr =  2.10E-05,  avg # of iterations =  2.0

     negative rho (up, down):  9.089E-01 9.089E-01

     total cpu time spent up to now is      620.2 secs

     total energy              =   -2943.04387521 Ry
     estimated scf accuracy    <       0.01926836 Ry

     total magnetization       =     0.02 Bohr mag/cell
     absolute magnetization    =     0.02 Bohr mag/cell

     iteration #  3     ecut=   120.00 Ry     beta= 0.70
     Davidson diagonalization with overlap
     ethr =  6.96E-06,  avg # of iterations =  1.0

     negative rho (up, down):  9.088E-01 9.088E-01

     total cpu time spent up to now is      635.9 secs

     total energy              =   -2943.04502892 Ry
     estimated scf accuracy    <       0.00261688 Ry

     total magnetization       =     0.02 Bohr mag/cell
     absolute magnetization    =     0.02 Bohr mag/cell

     iteration #  4     ecut=   120.00 Ry     beta= 0.70
     Davidson diagonalization with overlap
     ethr =  9.45E-07,  avg # of iterations =  2.0

     negative rho (up, down):  9.086E-01 9.086E-01

     Magnetic moment per site  (integrated on atomic sphere of radius R)
     atom   1 (R=0.112)  charge=  9.4652  magn=  0.0000
     atom   2 (R=0.112)  charge=  9.0579  magn=  0.0000
     atom   3 (R=0.112)  charge=  9.0579  magn=  0.0001
     atom   4 (R=0.112)  charge=  9.0623  magn=  0.0000
     atom   5 (R=0.112)  charge=  9.0611  magn=  0.0000
     atom   6 (R=0.110)  charge= 10.3502  magn=  0.0000
     atom   7 (R=0.110)  charge= 10.3507  magn=  0.0001
     atom   8 (R=0.070)  charge=  5.8327  magn=  0.0000
     atom   9 (R=0.070)  charge=  5.8494  magn= -0.0000
     atom  10 (R=0.070)  charge=  5.8182  magn=  0.0001
     atom  11 (R=0.070)  charge=  5.8169  magn=  0.0001
     atom  12 (R=0.070)  charge=  5.8170  magn=  0.0002
     atom  13 (R=0.070)  charge=  5.8187  magn=  0.0000
     atom  14 (R=0.070)  charge=  5.8152  magn=  0.0002
     atom  15 (R=0.070)  charge=  5.8147  magn=  0.0002
     atom  16 (R=0.070)  charge=  5.8145  magn=  0.0003
     atom  17 (R=0.070)  charge=  5.8153  magn=  0.0000
     atom  18 (R=0.097)  charge=  8.3390  magn= -0.0000
     atom  19 (R=0.097)  charge=  8.0826  magn=  0.0004
     atom  20 (R=0.097)  charge=  8.0829  magn=  0.0001
     atom  21 (R=0.097)  charge=  8.0827  magn=  0.0004
     atom  22 (R=0.097)  charge=  8.0791  magn=  0.0002
     atom  23 (R=0.070)  charge=  0.9114  magn= -0.0000

     total cpu time spent up to now is      652.6 secs

     End of self-consistent calculation

 ------ SPIN UP ------------


          k = 0.0000 0.0000 0.0000 ( 61588 PWs)   bands (ev):

   -60.7659 -60.7639 -60.7185 -60.7154 -60.6876 -60.6833 -60.6417 -60.6360
   -60.4676 -60.2161 -54.3732 -54.3274 -54.2485 -54.2032 -52.6911 -46.2500
   -46.2311 -41.6262 -41.5947 -41.5342 -41.4843 -39.7862 -27.7664 -27.7616
   -27.6801 -27.6753 -27.5779 -27.5730 -27.4506 -27.4422 -27.3420 -27.3217
   -27.2727 -27.2515 -27.2466 -27.2231 -27.2135 -27.1540 -27.1499 -27.1063
   -27.0378 -26.9520 -26.9435 -26.9418 -26.9306 -26.9136 -26.8939 -26.8736
   -26.8636 -26.8531 -26.8390 -26.8344 -24.1569 -23.9474 -23.6460 -23.5648
   -23.3043 -23.1710 -23.1476 -23.0494 -22.9177 -22.8516 -22.8331 -22.6171
   -22.4894 -22.4383 -22.3808 -22.3361 -22.2595 -22.2142 -21.7458 -21.6931
   -21.6179 -20.1629 -19.9272 -19.8081 -19.7725 -19.6045 -19.5846 -19.5732
   -19.5633 -19.5276 -19.5181 -19.3552 -19.3342 -18.1412 -17.9229 -17.7945
     1.3108   2.2501   2.9447   3.1574   3.3117   3.4475   3.4911   3.6867
     3.7450   3.7710   3.9346   4.0168   4.2929   4.4934   4.5609   4.6973
     4.7376   4.9590   5.0509   5.1023   5.1269   5.2700   5.3035   5.3345
     5.4105   5.5743   5.5881   5.7404   5.7616   5.7701   5.7835   5.8306
     5.9397   6.0922   6.1564   6.2412   6.2849   6.3340   6.3795   6.3828
     6.4709   6.6533   6.6864   6.6932   6.8782   6.9905   7.0339   7.0744
     7.1221   7.1603   7.2778   7.3319   7.3921   7.4308   7.5120   7.5727
     7.6342   7.6737   7.9092   7.9949   8.0817   8.1037   8.1422   8.1745
     8.2587   8.3527   8.3613   8.3725   8.5215   8.5388   8.6340   8.7784
     8.8228   8.9184   8.9815   9.0741   9.2411   9.2744   9.3042

 ------ SPIN DOWN ----------


          k = 0.0000 0.0000 0.0000 ( 61588 PWs)   bands (ev):

   -60.7655 -60.7638 -60.7182 -60.7153 -60.6871 -60.6831 -60.6413 -60.6357
   -60.4675 -60.2161 -54.3732 -54.3275 -54.2486 -54.2032 -52.6911 -46.2499
   -46.2311 -41.6260 -41.5942 -41.5341 -41.4837 -39.7862 -27.7659 -27.7613
   -27.6796 -27.6750 -27.5775 -27.5726 -27.4502 -27.4417 -27.3418 -27.3214
   -27.2726 -27.2511 -27.2465 -27.2228 -27.2130 -27.1537 -27.1494 -27.1062
   -27.0377 -26.9517 -26.9430 -26.9416 -26.9301 -26.9133 -26.8937 -26.8732
   -26.8631 -26.8531 -26.8385 -26.8341 -24.1570 -23.9475 -23.6459 -23.5648
   -23.3043 -23.1710 -23.1476 -23.0494 -22.9177 -22.8516 -22.8332 -22.6172
   -22.4893 -22.4382 -22.3807 -22.3360 -22.2595 -22.2142 -21.7457 -21.6931
   -21.6178 -20.1623 -19.9270 -19.8075 -19.7719 -19.6043 -19.5845 -19.5727
   -19.5631 -19.5274 -19.5176 -19.3550 -19.3335 -18.1412 -17.9229 -17.7944
     1.3110   2.2502   2.9453   3.1576   3.3119   3.4478   3.4917   3.6870
     3.7453   3.7712   3.9352   4.0172   4.2931   4.4937   4.5613   4.6975
     4.7379   4.9595   5.0514   5.1029   5.1272   5.2704   5.3038   5.3348
     5.4111   5.5746   5.5884   5.7407   5.7620   5.7703   5.7838   5.8310
     5.9398   6.0927   6.1569   6.2415   6.2852   6.3345   6.3799   6.3832
     6.4714   6.6537   6.6868   6.6935   6.8788   6.9910   7.0352   7.0754
     7.1236   7.1611   7.2791   7.3323   7.3930   7.4327   7.5132   7.5734
     7.6350   7.6743   7.9095   7.9954   8.0823   8.1047   8.1427   8.1752
     8.2602   8.3530   8.3622   8.3734   8.5220   8.5394   8.6345   8.7789
     8.8232   8.9197   8.9820   9.0745   9.2413   9.2743   9.3124

     the Fermi energy is     7.2601 ev

!    total energy              =   -2943.04504734 Ry
     estimated scf accuracy    <       0.00030736 Ry
     smearing contrib. (-TS)   =      -0.10358196 Ry
     internal energy E=F+TS    =   -2942.94146538 Ry

     total magnetization       =     0.02 Bohr mag/cell
     absolute magnetization    =     0.02 Bohr mag/cell

     convergence has been achieved in   4 iterations

     negative rho (up, down):  9.086E-01 9.086E-01

     Forces acting on atoms (cartesian axes, Ry/au):

     atom    1 type  1   force =    -0.01395228   -0.02268909    0.00305255
     atom    2 type  1   force =    -0.11488794   -0.01379361   -0.00393163
     atom    3 type  1   force =    -0.11382607    0.01136532    0.00034345
     atom    4 type  1   force =     0.11220393   -0.02287906   -0.00747969
     atom    5 type  1   force =     0.11272929    0.01940143   -0.00170250
     atom    6 type  2   force =    -0.00729296   -0.02148739    0.00428170
     atom    7 type  2   force =    -0.01411261    0.01411842   -0.00812872
     atom    8 type  3   force =    -0.11758823    0.00268085    0.00076374
     atom    9 type  3   force =     0.02358920    0.00575373   -0.10037679
     atom   10 type  3   force =    -0.02174527   -0.03190123   -0.05673263
     atom   11 type  3   force =    -0.01812260   -0.03370038    0.05702328
     atom   12 type  3   force =    -0.01675002    0.03622103   -0.05122623
     atom   13 type  3   force =    -0.01829536    0.02687875    0.05982253
     atom   14 type  3   force =     0.02358962   -0.02881306   -0.05309461
     atom   15 type  3   force =     0.01711846   -0.04059056    0.05220949
     atom   16 type  3   force =     0.01926540    0.03319468   -0.04840047
     atom   17 type  3   force =     0.01604866    0.03509693    0.05631068
     atom   18 type  4   force =    -0.00910789    0.02979309   -0.01233005
     atom   19 type  4   force =    -0.12861911   -0.00453474   -0.11323090
     atom   20 type  4   force =    -0.13113073    0.00519921    0.10968393
     atom   21 type  4   force =     0.12880805   -0.00526028   -0.11998910
     atom   22 type  4   force =     0.15313922    0.00773084    0.09478724
     atom   23 type  5   force =     0.11893924   -0.00178488    0.13834470
     The non-local contrib.  to forces
     atom    1 type  1   force =    -0.00243332   -0.01093165    0.03156126
     atom    2 type  1   force =    -0.24476145   -0.16242021    0.01705504
     atom    3 type  1   force =    -0.23973012    0.15856273   -0.02606740
     atom    4 type  1   force =     0.25767568   -0.16179910    0.03324574
     atom    5 type  1   force =     0.24733122    0.15538938   -0.01308610
     atom    6 type  2   force =     0.00801391   -0.05362717   -0.06257975
     atom    7 type  2   force =    -0.01142890    0.05977433    0.05440508
     atom    8 type  3   force =    -0.25715830    0.00120979    0.00038300
     atom    9 type  3   force =     0.13062436    0.00067367   -0.08152435
     atom   10 type  3   force =    -0.21267502    0.00515492   -0.20497436
     atom   11 type  3   force =    -0.21536429    0.01253789    0.19253567
     atom   12 type  3   force =    -0.20269624   -0.01985729   -0.17734051
     atom   13 type  3   force =    -0.20466688   -0.01005722    0.20435893
     atom   14 type  3   force =     0.20763411    0.00593638   -0.22099370
     atom   15 type  3   force =     0.22915296    0.00683619    0.17350773
     atom   16 type  3   force =     0.19661562   -0.02184319   -0.19044115
     atom   17 type  3   force =     0.21805940   -0.00478086    0.18356743
     atom   18 type  4   force =     0.00499551    0.05894345   -0.06145446
     atom   19 type  4   force =     0.05915233    0.00935065    0.07625958
     atom   20 type  4   force =     0.04911609   -0.01338342   -0.06410626
     atom   21 type  4   force =    -0.05651415    0.00967508    0.07439830
     atom   22 type  4   force =    -0.05649184   -0.01031940   -0.09021484
     atom   23 type  5   force =    -0.06226363   -0.00025006   -0.04234679
     The ionic contribution  to forces
     atom    1 type  1   force =    -0.53474922   -4.88119226   14.04738733
     atom    2 type  1   force =   -39.72522949   -6.19127390    0.71498656
     atom    3 type  1   force =   -39.69839767    6.17853725   -0.77872444
     atom    4 type  1   force =    39.48082210   -6.44614582    0.59812176
     atom    5 type  1   force =    39.45093897    6.43716196   -0.89406712
     atom    6 type  2   force =    -0.21210201   -3.64790008  -14.09065162
     atom    7 type  2   force =    -0.56899808    3.89837168   13.98567390
     atom    8 type  3   force =   -52.24238123    0.07188613   -0.18610560
     atom    9 type  3   force =    50.06159319    0.07349435   -2.09363513
     atom   10 type  3   force =   -36.06982247   -2.11470728  -23.06946438
     atom   11 type  3   force =   -35.17927930   -0.90551142   22.12018930
     atom   12 type  3   force =   -35.25380441    0.81704083  -22.12246601
     atom   13 type  3   force =   -36.07970129    2.23954605   23.09863220
     atom   14 type  3   force =    35.98280916   -2.15066616  -23.11683586
     atom   15 type  3   force =    34.96477873   -1.08711364   22.26464559
     atom   16 type  3   force =    35.16753936    0.85255642  -22.16904452
     atom   17 type  3   force =    35.86294460    2.42258912   23.24346362
     atom   18 type  4   force =    -0.19823944    4.45004944  -14.03962131
     atom   19 type  4   force =   -35.91828427    0.95664838  -25.53762506
     atom   20 type  4   force =   -35.98052047   -0.95253589   25.60000655
     atom   21 type  4   force =    35.79249532    0.95596345  -25.65118713
     atom   22 type  4   force =    35.23504500   -0.94588852   26.52427144
     atom   23 type  5   force =     5.66254291   -0.03091008    1.55204995
     The local contribution  to forces
     atom    1 type  1   force =     0.51754677    4.86999482  -14.08015855
     atom    2 type  1   force =    39.87033644    6.34075919   -0.73999346
     atom    3 type  1   force =    39.83897149   -6.32793222    0.80110308
     atom    4 type  1   force =   -39.64685043    6.58557419   -0.64406719
     atom    5 type  1   force =   -39.60652359   -6.57262715    0.90053795
     atom    6 type  2   force =     0.19166062    3.67181249   14.16237768
     atom    7 type  2   force =     0.55993662   -3.94515686  -14.05323281
     atom    8 type  3   force =    52.41093650   -0.07001452    0.18881369
     atom    9 type  3   force =   -50.18236794   -0.06965080    2.09967594
     atom   10 type  3   force =    36.28412299    2.06417084   23.24889346
     atom   11 type  3   force =    35.40174213    0.85518803  -22.28495331
     atom   12 type  3   force =    35.46355054   -0.75001801   22.28021501
     atom   13 type  3   force =    36.28864420   -2.19821831  -23.27153232
     atom   14 type  3   force =   -36.19620059    2.10394787   23.31576288
     atom   15 type  3   force =   -35.20684092    1.03623630  -22.41212611
     atom   16 type  3   force =   -35.37549152   -0.78595467   22.34209571
     atom   17 type  3   force =   -36.09299894   -2.37775726  -23.39700315
     atom   18 type  4   force =     0.17804891   -4.46957259   14.09085773
     atom   19 type  4   force =    35.73782843   -0.96867466   25.37052863
     atom   20 type  4   force =    35.81269579    0.97039808  -25.44700538
     atom   21 type  4   force =   -35.61921429   -0.97024593   25.47517937
     atom   22 type  4   force =   -35.05476727    0.96199675  -26.35112986
     atom   23 type  5   force =    -5.48465800    0.02931029   -1.37451606
     The core correction contribution to forces
     atom    1 type  1   force =     0.00208392    0.00129065   -0.00011501
     atom    2 type  1   force =    -0.01232840   -0.00183840    0.00019003
     atom    3 type  1   force =    -0.01241354    0.00272782   -0.00173733
     atom    4 type  1   force =     0.01390626   -0.00289545    0.00292617
     atom    5 type  1   force =     0.01410171    0.00246929    0.00107780
     atom    6 type  2   force =    -0.00040584    0.00251713    0.00260511
     atom    7 type  2   force =     0.00050722   -0.00292289   -0.00197254
     atom    8 type  3   force =    -0.03118115    0.00015474    0.00011697
     atom    9 type  3   force =     0.01469403    0.00077417   -0.01281239
     atom   10 type  3   force =    -0.02149734    0.00999905   -0.01576756
     atom   11 type  3   force =    -0.02407835    0.00962478    0.01757016
     atom   12 type  3   force =    -0.02155920   -0.01010942   -0.01523795
     atom   13 type  3   force =    -0.02262103   -0.00908992    0.01716079
     atom   14 type  3   force =     0.02218729    0.00892976   -0.01718854
     atom   15 type  3   force =     0.02565164    0.01025489    0.01403911
     atom   16 type  3   force =     0.02187220   -0.00946148   -0.01660899
     atom   17 type  3   force =     0.02321533   -0.00887189    0.01458839
     atom   18 type  4   force =    -0.00026767   -0.00320593    0.00311212
     atom   19 type  4   force =    -0.00961143    0.00004138   -0.00973771
     atom   20 type  4   force =    -0.00910012    0.00034818    0.00904468
     atom   21 type  4   force =     0.00943875    0.00001386   -0.00985376
     atom   22 type  4   force =     0.00946133    0.00018370    0.01054422
     atom   23 type  5   force =     0.00000000    0.00000000    0.00000000
     The Hubbard contrib.    to forces
     atom    1 type  1   force =     0.00000000    0.00000000    0.00000000
     atom    2 type  1   force =     0.00000000    0.00000000    0.00000000
     atom    3 type  1   force =     0.00000000    0.00000000    0.00000000
     atom    4 type  1   force =     0.00000000    0.00000000    0.00000000
     atom    5 type  1   force =     0.00000000    0.00000000    0.00000000
     atom    6 type  2   force =     0.00000000    0.00000000    0.00000000
     atom    7 type  2   force =     0.00000000    0.00000000    0.00000000
     atom    8 type  3   force =     0.00000000    0.00000000    0.00000000
     atom    9 type  3   force =     0.00000000    0.00000000    0.00000000
     atom   10 type  3   force =     0.00000000    0.00000000    0.00000000
     atom   11 type  3   force =     0.00000000    0.00000000    0.00000000
     atom   12 type  3   force =     0.00000000    0.00000000    0.00000000
     atom   13 type  3   force =     0.00000000    0.00000000    0.00000000
     atom   14 type  3   force =     0.00000000    0.00000000    0.00000000
     atom   15 type  3   force =     0.00000000    0.00000000    0.00000000
     atom   16 type  3   force =     0.00000000    0.00000000    0.00000000
     atom   17 type  3   force =     0.00000000    0.00000000    0.00000000
     atom   18 type  4   force =     0.00000000    0.00000000    0.00000000
     atom   19 type  4   force =     0.00000000    0.00000000    0.00000000
     atom   20 type  4   force =     0.00000000    0.00000000    0.00000000
     atom   21 type  4   force =     0.00000000    0.00000000    0.00000000
     atom   22 type  4   force =     0.00000000    0.00000000    0.00000000
     atom   23 type  5   force =     0.00000000    0.00000000    0.00000000
     The SCF correction term to forces
     atom    1 type  1   force =     0.00315155   -0.00179635    0.00436608
     atom    2 type  1   force =    -0.00335307    0.00103400    0.00381876
     atom    3 type  1   force =    -0.00270426   -0.00047598    0.00575810
     atom    4 type  1   force =     0.00620230    0.00244141    0.00228239
     atom    5 type  1   force =     0.00643295   -0.00293776    0.00382353
     atom    6 type  2   force =     0.00509233    0.00576452   -0.00748115
     atom    7 type  2   force =     0.00542251    0.00410646    0.00698621
     atom    8 type  3   force =     0.00174794   -0.00050100   -0.00245576
     atom    9 type  3   force =    -0.00140246    0.00051663   -0.01209230
     atom   10 type  3   force =    -0.00232146    0.00353553   -0.01543122
     atom   11 type  3   force =    -0.00159082   -0.00548538    0.01167003
     atom   12 type  3   force =    -0.00268874   -0.00078079   -0.01640821
     atom   13 type  3   force =    -0.00039838    0.00475244    0.01119149
     atom   14 type  3   force =     0.00671163    0.00309338   -0.01385083
     atom   15 type  3   force =     0.00392804   -0.00675001    0.01213172
     atom   16 type  3   force =     0.00828172   -0.00204811   -0.01441295
     atom   17 type  3   force =     0.00438025    0.00397211    0.01168296
     atom   18 type  4   force =     0.00590678   -0.00636699   -0.00523556
     atom   19 type  4   force =     0.00184779   -0.00184620   -0.01266778
     atom   20 type  4   force =    -0.00377004    0.00042654    0.01173291
     atom   21 type  4   force =     0.00215440   -0.00061244   -0.00853732
     atom   22 type  4   force =     0.01944399    0.00181260    0.00130485
     atom   23 type  5   force =     0.00286994    0.00011925    0.00314616

     Total force =     0.520721     Total SCF correction =     0.056920
     SCF correction compared to forces is large: reduce conv_thr to get better values


     Computing stress (Cartesian axis) and pressure


     negative rho (up, down):  9.086E-01 9.086E-01
          total   stress  (Ry/bohr**3)                   (kbar)     P=       88.45
   0.00072220   0.00000084   0.00005466          106.24        0.12        8.04
[...]
     4.7444   4.9653   5.0267   5.0607   5.1211   5.2654   5.2938   5.3186
     5.3912   5.5683   5.5868   5.7189   5.7326   5.7516   5.7829   5.8494
     5.9351   6.0695   6.1364   6.2352   6.2891   6.3232   6.3810   6.4044
     6.4433   6.6385   6.6635   6.6869   6.8392   6.9540   7.0232   7.0563
     7.1009   7.1416   7.2760   7.3080   7.3691   7.4312   7.5073   7.6088
     7.6531   7.7447   7.9018   7.9751   8.0992   8.1036   8.1432   8.1840
     8.2594   8.3409   8.3650   8.3731   8.4785   8.5282   8.6467   8.7674
     8.7839   8.9084   8.9575   9.0691   9.2007   9.2117   9.2774

     the Fermi energy is     7.2473 ev

!    total energy              =   -2943.07371193 Ry
     estimated scf accuracy    <       0.00041541 Ry
     smearing contrib. (-TS)   =      -0.09849602 Ry
     internal energy E=F+TS    =   -2942.97521591 Ry

     total magnetization       =     0.00 Bohr mag/cell
     absolute magnetization    =     0.00 Bohr mag/cell

     convergence has been achieved in   4 iterations

     negative rho (up, down):  9.084E-01 9.084E-01

     Forces acting on atoms (cartesian axes, Ry/au):

     atom    1 type  1   force =    -0.01118832   -0.02240533    0.00293874
     atom    2 type  1   force =    -0.11549235   -0.01519493   -0.00656120
     atom    3 type  1   force =    -0.11274870    0.01264378   -0.00107164
     atom    4 type  1   force =     0.11376002   -0.02390121   -0.00923337
     atom    5 type  1   force =     0.11322748    0.02228582   -0.00333439
     atom    6 type  2   force =    -0.01022471   -0.02011261    0.00268704
     atom    7 type  2   force =    -0.01272239    0.01263730   -0.00938641
     atom    8 type  3   force =    -0.10846590    0.00285549   -0.00769516
     atom    9 type  3   force =     0.15554613    0.00051302    0.04259864
     atom   10 type  3   force =    -0.02239147   -0.03239992   -0.05961787
     atom   11 type  3   force =    -0.01668391   -0.03378946    0.06105787
     atom   12 type  3   force =    -0.01714774    0.03750153   -0.05445125
     atom   13 type  3   force =    -0.01609214    0.02773510    0.06476537
     atom   14 type  3   force =     0.02371497   -0.03111623   -0.05658398
     atom   15 type  3   force =     0.01515259   -0.04074515    0.05851914
     atom   16 type  3   force =     0.01853504    0.03561535   -0.05144155
     atom   17 type  3   force =     0.01335707    0.03411040    0.06068893
     atom   18 type  4   force =    -0.01314342    0.03000329   -0.02177552
     atom   19 type  4   force =    -0.12479381   -0.00496903   -0.11659131
     atom   20 type  4   force =    -0.12985741    0.00554625    0.11588935
     atom   21 type  4   force =     0.12270225   -0.00475372   -0.11726530
     atom   22 type  4   force =     0.17494184    0.00803865    0.10770205
     atom   23 type  5   force =    -0.03998512   -0.00009839   -0.00183819
     The non-local contrib.  to forces
     atom    1 type  1   force =     0.00050619   -0.01209032    0.02392134
     atom    2 type  1   force =    -0.24478015   -0.16372837    0.01233861
     atom    3 type  1   force =    -0.23875437    0.15988379   -0.03081549
     atom    4 type  1   force =     0.26007966   -0.16278728    0.03162054
     atom    5 type  1   force =     0.25022377    0.16075852   -0.01342228
     atom    6 type  2   force =     0.00563385   -0.04140141   -0.05273214
     atom    7 type  2   force =    -0.01122251    0.05916825    0.05437577
     atom    8 type  3   force =    -0.27427593   -0.00036237    0.00138648
     atom    9 type  3   force =     0.25035238   -0.00012817    0.01449352
     atom   10 type  3   force =    -0.21190726    0.00474155   -0.20541780
     atom   11 type  3   force =    -0.21839471    0.00492720    0.20050009
     atom   12 type  3   force =    -0.20230684   -0.01981101   -0.17682436
     atom   13 type  3   force =    -0.20680059   -0.00207233    0.21377786
     atom   14 type  3   force =     0.20402629    0.00319542   -0.21809771
     atom   15 type  3   force =     0.24101468    0.01517956    0.17657113
     atom   16 type  3   force =     0.19306792   -0.01971831   -0.18806933
     atom   17 type  3   force =     0.22826144   -0.01199447    0.18784488
     atom   18 type  4   force =     0.00650198    0.05118023   -0.05335042
     atom   19 type  4   force =     0.06166181    0.00974046    0.07415517
     atom   20 type  4   force =     0.04939135   -0.01478690   -0.05694654
     atom   21 type  4   force =    -0.05629264    0.00942971    0.07609294
     atom   22 type  4   force =    -0.05714069   -0.01119240   -0.11014143
     atom   23 type  5   force =    -0.03062073    0.00035344    0.00844711
     The ionic contribution  to forces
     atom    1 type  1   force =    -0.19848321   -4.69687383   14.05239253
     atom    2 type  1   force =   -39.67532352   -6.19406248    0.74167232
     atom    3 type  1   force =   -39.64858079    6.18179702   -0.75111213
     atom    4 type  1   force =    39.56228650   -6.29134854    0.69971852
     atom    5 type  1   force =    39.53665079    6.27750620   -0.79012214
     atom    6 type  2   force =    -0.29492971   -3.89691096  -14.17927520
     atom    7 type  2   force =    -0.21253977    3.70072818   13.98345601
     atom    8 type  3   force =   -52.32688532    0.07118306   -0.07588737
     atom    9 type  3   force =    51.23537092    0.10894333   -0.43764739
     atom   10 type  3   force =   -36.04742865   -2.11466541  -23.03056097
     atom   11 type  3   force =   -35.09687784   -0.88294608   22.05703433
     atom   12 type  3   force =   -35.23450460    0.81809555  -22.08549823
     atom   13 type  3   force =   -35.99506551    2.21602594   23.03499683
     atom   14 type  3   force =    35.98582114   -2.15816873  -23.05110270
     atom   15 type  3   force =    34.90130045   -1.03555905   22.11839563
     atom   16 type  3   force =    35.17354852    0.86080372  -22.10552328
     atom   17 type  3   force =    35.80197972    2.36379709   23.09311193
     atom   18 type  4   force =    -0.28074240    4.68321885  -14.12526963
     atom   19 type  4   force =   -35.90977656    0.95403476  -25.49212812
     atom   20 type  4   force =   -35.80678057   -0.95019013   25.47846517
     atom   21 type  4   force =    35.82585405    0.95247645  -25.66042852
     atom   22 type  4   force =    34.81268106   -0.93434704   25.98051874
     atom   23 type  5   force =     3.89242528   -0.03353787    0.54479368
     The local contribution  to forces
     atom    1 type  1   force =     0.18392618    4.68178691  -14.07320850
     atom    2 type  1   force =    39.81821519    6.34196882   -0.77458180
     atom    3 type  1   force =    39.78822973   -6.32961505    0.76929775
     atom    4 type  1   force =   -39.72322971    6.42932863   -0.75887665
     atom    5 type  1   force =   -39.68898309   -6.41559108    0.78482153
     atom    6 type  2   force =     0.27759091    3.91269835   14.20417205
     atom    7 type  2   force =     0.20999914   -3.73969583  -14.04479397
     atom    8 type  3   force =    52.52607045   -0.06804178    0.04960689
     atom    9 type  3   force =   -51.36894849   -0.10824475    0.44335051
     atom   10 type  3   force =    36.26222627    2.06389381   23.18379870
     atom   11 type  3   force =    35.32521813    0.83363866  -22.19967395
     atom   12 type  3   force =    35.44497001   -0.74735953   22.21444320
     atom   13 type  3   force =    36.21172684   -2.17653915  -23.18705566
     atom   14 type  3   force =   -36.19137134    2.10905767   23.21968275
     atom   15 type  3   force =   -35.15529713    0.96893834  -22.23689230
     atom   16 type  3   force =   -35.37336857   -0.79057127   22.24848293
     atom   17 type  3   force =   -36.04316413   -2.30943197  -23.22127363
     atom   18 type  4   force =     0.25957409   -4.69822921   14.12839143
     atom   19 type  4   force =    35.73687774   -0.96858067   25.30070313
     atom   20 type  4   force =    35.63749115    0.97034805  -25.29978170
     atom   21 type  4   force =   -35.66141432   -0.96684714   25.46551110
     atom   22 type  4   force =   -34.57770731    0.95387415  -25.75975179
     atom   23 type  5   force =    -3.89964180    0.03298407   -0.55257372
     The core correction contribution to forces
     atom    1 type  1   force =     0.00218284    0.00137073   -0.00079661
     atom    2 type  1   force =    -0.01263271   -0.00188300   -0.00022607
     atom    3 type  1   force =    -0.01263603    0.00293225   -0.00244044
     atom    4 type  1   force =     0.01431345   -0.00286684    0.00436442
     atom    5 type  1   force =     0.01469738    0.00335473    0.00213186
     atom    6 type  2   force =    -0.00043102    0.00168882    0.00190639
     atom    7 type  2   force =     0.00050438   -0.00287434   -0.00210210
     atom    8 type  3   force =    -0.03421584    0.00003553   -0.00009750
     atom    9 type  3   force =     0.02809162   -0.00026492   -0.00054476
     atom   10 type  3   force =    -0.02171200    0.00929536   -0.01639847
     atom   11 type  3   force =    -0.02408544    0.00914119    0.01727012
     atom   12 type  3   force =    -0.02189714   -0.00961015   -0.01565639
     atom   13 type  3   force =    -0.02252029   -0.00866105    0.01711355
     atom   14 type  3   force =     0.02190923    0.00981374   -0.01642467
     atom   15 type  3   force =     0.02620012    0.01063817    0.01378120
     atom   16 type  3   force =     0.02167474   -0.01002878   -0.01591305
     atom   17 type  3   force =     0.02380836   -0.00937854    0.01425270
     atom   18 type  4   force =    -0.00049076   -0.00253137    0.00219528
     atom   19 type  4   force =    -0.00972934    0.00000492   -0.00968784
     atom   20 type  4   force =    -0.00898568    0.00043171    0.00898047
     atom   21 type  4   force =     0.00944918    0.00002007   -0.01002633
     atom   22 type  4   force =     0.00775431    0.00027053    0.01288177
     atom   23 type  5   force =     0.00000000    0.00000000    0.00000000
     The Hubbard contrib.    to forces
     atom    1 type  1   force =     0.00000000    0.00000000    0.00000000
     atom    2 type  1   force =     0.00000000    0.00000000    0.00000000
     atom    3 type  1   force =     0.00000000    0.00000000    0.00000000
     atom    4 type  1   force =     0.00000000    0.00000000    0.00000000
     atom    5 type  1   force =     0.00000000    0.00000000    0.00000000
     atom    6 type  2   force =     0.00000000    0.00000000    0.00000000
     atom    7 type  2   force =     0.00000000    0.00000000    0.00000000
     atom    8 type  3   force =     0.00000000    0.00000000    0.00000000
     atom    9 type  3   force =     0.00000000    0.00000000    0.00000000
     atom   10 type  3   force =     0.00000000    0.00000000    0.00000000
     atom   11 type  3   force =     0.00000000    0.00000000    0.00000000
     atom   12 type  3   force =     0.00000000    0.00000000    0.00000000
     atom   13 type  3   force =     0.00000000    0.00000000    0.00000000
     atom   14 type  3   force =     0.00000000    0.00000000    0.00000000
     atom   15 type  3   force =     0.00000000    0.00000000    0.00000000
     atom   16 type  3   force =     0.00000000    0.00000000    0.00000000
     atom   17 type  3   force =     0.00000000    0.00000000    0.00000000
     atom   18 type  4   force =     0.00000000    0.00000000    0.00000000
     atom   19 type  4   force =     0.00000000    0.00000000    0.00000000
     atom   20 type  4   force =     0.00000000    0.00000000    0.00000000
     atom   21 type  4   force =     0.00000000    0.00000000    0.00000000
     atom   22 type  4   force =     0.00000000    0.00000000    0.00000000
     atom   23 type  5   force =     0.00000000    0.00000000    0.00000000
     The SCF correction term to forces
     atom    1 type  1   force =     0.00073339    0.00336762   -0.00035468
     atom    2 type  1   force =    -0.00091745    0.00247654    0.01325108
     atom    3 type  1   force =    -0.00095353   -0.00238781    0.01301400
     atom    4 type  1   force =     0.00036383    0.00373926    0.01295513
     atom    5 type  1   force =     0.00069234   -0.00377613    0.01227197
     atom    6 type  2   force =     0.00196497    0.00377902    0.02763127
     atom    7 type  2   force =     0.00059008   -0.00472252   -0.00130679
     atom    8 type  3   force =     0.00089446    0.00000748    0.01631167
     atom    9 type  3   force =     0.01073341    0.00017395    0.02196209
     atom   10 type  3   force =    -0.00351612    0.00430120    0.00797599
     atom   11 type  3   force =    -0.00249035    0.00141600   -0.01505739
     atom   12 type  3   force =    -0.00335546   -0.00384690    0.00809986
     atom   13 type  3   force =    -0.00337888   -0.00105188   -0.01505188
     atom   14 type  3   force =     0.00338336    0.00495211    0.00837368
     atom   15 type  3   force =     0.00198818    0.00002427   -0.01432120
     atom   16 type  3   force =     0.00366615   -0.00490357    0.00859650
     atom   17 type  3   force =     0.00252539    0.00108473   -0.01423161
     atom   18 type  4   force =     0.00206738   -0.00366878    0.02527315
     atom   19 type  4   force =    -0.00377376   -0.00020207    0.00938168
     atom   20 type  4   force =    -0.00091996   -0.00029006   -0.01581272
     atom   21 type  4   force =     0.00515969    0.00013363    0.01060083
     atom   22 type  4   force =    -0.01059182   -0.00060016   -0.01678991
     atom   23 type  5   force =    -0.00209416    0.00006841   -0.00348993

     Total force =     0.515801     Total SCF correction =     0.072421
     SCF correction compared to forces is large: reduce conv_thr to get better values


     Computing stress (Cartesian axis) and pressure


     negative rho (up, down):  9.084E-01 9.084E-01
          total   stress  (Ry/bohr**3)                   (kbar)     P=       82.14
   0.00063245  -0.00000018   0.00001347           93.04       -0.03        1.98
  -0.00000018   0.00067031  -0.00001184           -0.03       98.61       -1.74
   0.00001347  -0.00001184   0.00037230            1.98       -1.74       54.77


     Entering Dynamics:    iteration =    20
                           time      =   0.0041 pico-seconds


ATOMIC_POSITIONS (angstrom)
Hf            2.6717353218        2.8269318387        6.6057629112
Hf            1.2534226567        1.2861234300        5.0601998518
Hf            1.2559257646        7.3899435657        5.0898734282
Hf            4.0901020840        1.2860898145        5.0601821039
Hf            4.0876102611        7.3899596146        5.0898501227
Nb            2.6717988263        2.7966196761        3.5175304073
Nb            2.6716936330        5.8765578183        6.6365221779
Ta            1.2097701711        4.3409609423        5.0729407738
Ta            4.0963080879        4.3411976835        5.0346691381
Ta            1.3087631706        1.3137391395        2.0599146275
Ta            1.3043400204        1.3079832167        8.0970101630
Ta            1.3055615124        7.3762576472        2.0474152676
Ta            1.3092728376        7.3654153818        8.0884591230
Ta            4.0347792683        1.3138207203        2.0599231302
Ta            4.0391949172        1.3079678104        8.0969653562
Ta            4.0379877089        7.3761874559        2.0474252288
Ta            4.0342552447        7.3654440758        8.0884354056
Zr            2.6718015604        5.8667298729        3.5290018152
Zr            1.2427434239        4.3219717190        1.9992038860
Zr            1.2392015014        4.3542383922        8.1540606131
Zr            4.1008383877        4.3219577872        1.9990106479
Zr            4.1046681199        4.3542824623        8.1538702751
H             5.9609692342        4.3216001004        6.9922209646


     kinetic energy (Ekin) =           8.08132507 Ry
     temperature           =       38664.85792319 K 
     Ekin + Etot (const)   =       -2934.99238687 Ry
     Ions kinetic stress =          142.73 (kbar)
                                    201.71          -2.36         213.53
                                     -2.36           0.04          -2.50
                                    213.53          -2.50         226.43



     Linear momentum :   -0.0000000000    0.0000000000    0.0000000000

     The maximum number of steps has been reached.

     End of molecular dynamics calculation

     diffusion coefficients :
     atom     1   D =       0.00000003 cm^2/s
     atom     2   D =       0.00000001 cm^2/s
     atom     3   D =       0.00000001 cm^2/s
     atom     4   D =       0.00000005 cm^2/s
     atom     5   D =       0.00000005 cm^2/s
     atom     6   D =       0.00000003 cm^2/s
     atom     7   D =       0.00000002 cm^2/s
     atom     8   D =       0.00000001 cm^2/s
     atom     9   D =       0.00001028 cm^2/s
     atom    10   D =       0.00000002 cm^2/s
     atom    11   D =       0.00000003 cm^2/s
     atom    12   D =       0.00000002 cm^2/s
     atom    13   D =       0.00000004 cm^2/s
     atom    14   D =       0.00000002 cm^2/s
     atom    15   D =       0.00000004 cm^2/s
     atom    16   D =       0.00000002 cm^2/s
     atom    17   D =       0.00000004 cm^2/s
     atom    18   D =       0.00000002 cm^2/s
     atom    19   D =       0.00000001 cm^2/s
     atom    20   D =       0.00000008 cm^2/s
     atom    21   D =       0.00000009 cm^2/s
     atom    22   D =       0.00000017 cm^2/s
     atom    23   D =       0.00176096 cm^2/s

     < D > =       0.00007705 cm^2/s

     Writing all to output data dir outdir/pwscf.save/

     init_run     :      9.92s CPU     11.50s WALL (       1 calls)
     electrons    :   2616.38s CPU   3075.60s WALL (      20 calls)
     update_pot   :     19.55s CPU     20.36s WALL (      19 calls)
     forces       :    159.64s CPU    180.31s WALL (      20 calls)
     stress       :    254.36s CPU    278.25s WALL (      20 calls)

     Called by init_run:
     wfcinit      :      7.30s CPU      8.57s WALL (       1 calls)
     potinit      :      0.47s CPU      0.49s WALL (       1 calls)
     hinit0       :      0.95s CPU      1.05s WALL (       1 calls)

     Called by electrons:
     c_bands      :   2095.76s CPU   2487.03s WALL (      99 calls)
     sum_band     :    347.25s CPU    392.71s WALL (      99 calls)
     v_of_rho     :     10.76s CPU     12.37s WALL (     119 calls)
     newd         :    186.55s CPU    210.02s WALL (     119 calls)
     mix_rho      :      0.97s CPU      1.22s WALL (      99 calls)

     Called by c_bands:
     init_us_2    :      3.93s CPU      4.02s WALL (     478 calls)
     init_us_2:cp :      3.92s CPU      4.02s WALL (     478 calls)
     regterg      :   2081.88s CPU   2470.34s WALL (     198 calls)

     Called by *egterg:
     rdiaghg      :     65.16s CPU     80.61s WALL (    1639 calls)
     h_psi        :   1089.91s CPU   1204.41s WALL (    1679 calls)
     s_psi        :    373.86s CPU    374.24s WALL (    1679 calls)
     g_psi        :      0.82s CPU      0.87s WALL (    1479 calls)

     Called by h_psi:
     h_psi:calbec :    542.19s CPU    622.62s WALL (    1679 calls)
     vloc_psi     :    104.38s CPU    137.68s WALL (    1679 calls)
     add_vuspsi   :    442.02s CPU    442.72s WALL (    1679 calls)

     General routines
     calbec       :    851.73s CPU    979.02s WALL (    2077 calls)
     fft          :      8.40s CPU     21.76s WALL (    2484 calls)
     ffts         :      0.21s CPU      0.28s WALL (      99 calls)
     fftw         :    111.12s CPU    147.71s WALL (  105048 calls)

     Parallel routines

     PWSCF        :  51m24.86s CPU  59m55.21s WALL


   This run was terminated on:  23:23: 9  12Jun2023            

=------------------------------------------------------------------------------=
   JOB DONE.
=------------------------------------------------------------------------------=
