
     Program PWSCF v.7.2 starts on 15Jun2023 at 17:37:45 

     This program is part of the open-source Quantum ESPRESSO suite
     for quantum simulation of materials; please cite
         "P. Giannozzi et al., J. Phys.:Condens. Matter 21 395502 (2009);
         "P. Giannozzi et al., J. Phys.:Condens. Matter 29 465901 (2017);
         "P. Giannozzi et al., J. Chem. Phys. 152 154105 (2020);
          URL http://www.quantum-espresso.org", 
     in publications or presentations arising from this work. More details at
     http://www.quantum-espresso.org/quote

     Parallel version (MPI), running on    42 processors

     MPI processes distributed on     1 nodes
     173752 MiB available memory on the printing compute node when the environment starts

     Reading input from md_data/md_Hf5Nb2Ta10Zr5H_20steps_50eV_incident75_polar30.in
Warning: card &CELL ignored
Warning: card / ignored

     Current dimensions of program PWSCF are:
     Max number of different atomic species (ntypx) = 10
     Max number of k-points (npk) =  40000
     Max angular momentum in pseudopotentials (lmaxx) =  4

     File outdir/pwscf.md deleted, as requested

     gamma-point specific algorithms are used

     R & G space division:  proc/nbgrp/npool/nimage =      42
     Subspace diagonalization in iterative solution of the eigenvalue problem:
     one sub-group per band group will be used
     custom distributed-memory algorithm (size of sub-group:  2*  2 procs)


     Parallelization info
     --------------------
     sticks:   dense  smooth     PW     G-vecs:    dense   smooth      PW
     Min         262     262     63                23470    23470    2920
     Max         265     265     66                23484    23484    2942
     Sum       11057   11057   2753               986005   986005  123175

     Using Slab Decomposition



     bravais-lattice index     =            0
     lattice parameter (alat)  =      17.6500  a.u.
     unit-cell volume          =    5552.8853 (a.u.)^3
     number of atoms/cell      =           23
     number of atomic types    =            5
     number of electrons       =       277.00
     number of Kohn-Sham states=          167
     kinetic-energy cutoff     =     120.0000  Ry
     charge density cutoff     =     480.0000  Ry
     scf convergence threshold =      1.0E-03
     mixing beta               =       0.7000
     number of iterations used =            8  TF        mixing
     energy convergence thresh.=      0.0E+00
     force convergence thresh. =      0.0E+00
     Exchange-correlation=  SLA  PW   PBX  PBC
                           (   1   4   3   4   0   0   0)
     nstep                     =           20


     celldm(1)=  17.650041  celldm(2)=   0.000000  celldm(3)=   0.000000
     celldm(4)=   0.000000  celldm(5)=   0.000000  celldm(6)=   0.000000

     crystal axes: (cart. coord. in units of alat)
               a(1) = (   1.000000   0.000000   0.000000 )  
               a(2) = (   0.000000   0.929336   0.000000 )  
               a(3) = (   0.000000   0.000000   1.086698 )  

     reciprocal axes: (cart. coord. in units 2 pi/alat)
               b(1) = (  1.000000  0.000000  0.000000 )  
               b(2) = (  0.000000  1.076037  0.000000 )  
               b(3) = (  0.000000  0.000000  0.920219 )  


     PseudoPot. # 1 for Hf read from file:
     q-e/pseudo/hf_pbe_v1.uspp.F.UPF
     MD5 check sum: 8ee9378dfe14276e333edf04c5e4aa26
     Pseudo is Ultrasoft + core correction, Zval = 12.0
     Generated by new atomic code, or converted to UPF format
     Using radial grid of  921 points,  8 beta functions with: 
                l(1) =   0
                l(2) =   0
                l(3) =   0
                l(4) =   1
                l(5) =   1
                l(6) =   2
                l(7) =   2
                l(8) =   3
     Q(r) pseudized with  6 coefficients,  rinner =    1.200   1.200   1.200
                                                       1.200   1.200   1.200
                                                       1.200

     PseudoPot. # 2 for Nb read from file:
     q-e/pseudo/nb_pbe_v1.uspp.F.UPF
     MD5 check sum: 573aab8a2fa660278ed4a62cd769473f
     Pseudo is Ultrasoft + core correction, Zval = 13.0
     Generated by new atomic code, or converted to UPF format
     Using radial grid of  887 points,  6 beta functions with: 
                l(1) =   0
                l(2) =   0
                l(3) =   1
                l(4) =   1
                l(5) =   2
                l(6) =   2
     Q(r) pseudized with  6 coefficients,  rinner =    1.000   1.000   1.000
                                                       1.000   1.000

     PseudoPot. # 3 for Ta read from file:
     q-e/pseudo/ta_pbe_v1.uspp.F.UPF
     MD5 check sum: f8bbe9446314a3b8ea5d9f3e3836c939
     Pseudo is Ultrasoft + core correction, Zval = 13.0
     Generated by new atomic code, or converted to UPF format
     Using radial grid of  921 points,  7 beta functions with: 
                l(1) =   0
                l(2) =   0
                l(3) =   1
                l(4) =   1
                l(5) =   2
                l(6) =   2
                l(7) =   3
     Q(r) pseudized with  6 coefficients,  rinner =    1.300   1.300   1.300
                                                       1.300   1.300   1.300
                                                       1.300

     PseudoPot. # 4 for Zr read from file:
     q-e/pseudo/zr_pbe_v1.uspp.F.UPF
     MD5 check sum: 5db81b1e868ab7776c4564c113de050b
     Pseudo is Ultrasoft + core correction, Zval = 12.0
     Generated by new atomic code, or converted to UPF format
     Using radial grid of  887 points,  6 beta functions with: 
                l(1) =   0
                l(2) =   0
                l(3) =   1
                l(4) =   1
                l(5) =   2
                l(6) =   2
     Q(r) pseudized with  6 coefficients,  rinner =    1.200   1.200   1.200
                                                       1.200   1.200

     PseudoPot. # 5 for H  read from file:
     q-e/pseudo/h_pbe_v1.4.uspp.F.UPF
     MD5 check sum: 761ae9a214b05c3daf00ab9f6b793d6f
     Pseudo is Ultrasoft, Zval =  1.0
     Generated by new atomic code, or converted to UPF format
     Using radial grid of  615 points,  2 beta functions with: 
                l(1) =   0
                l(2) =   0
     Q(r) pseudized with  8 coefficients,  rinner =    0.700

     atomic species   valence    mass     pseudopotential
        Hf            12.00   178.49000     Hf( 1.00)
        Nb            13.00    92.90637     Nb( 1.00)
        Ta            13.00   180.94788     Ta( 1.00)
        Zr            12.00    91.22400     Zr( 1.00)
        H              1.00     2.01400     H ( 1.00)

     Starting magnetic structure 
     atomic species   magnetization
        Hf           0.000
        Nb           0.000
        Ta           0.000
        Zr           0.000
        H            0.000

     No symmetry found



   Cartesian axes

     site n.     atom                  positions (alat units)
         1           Hf  tau(   1) = (   0.2858672   0.3026898   0.7070626  )
         2           Hf  tau(   2) = (   0.1341532   0.1377178   0.5415917  )
         3           Hf  tau(   3) = (   0.1344204   0.7911996   0.5447610  )
         4           Hf  tau(   4) = (   0.4375813   0.1377178   0.5415917  )
         5           Hf  tau(   5) = (   0.4373140   0.7911996   0.5447610  )
         6           Nb  tau(   6) = (   0.2858672   0.2994572   0.3764008  )
         7           Nb  tau(   7) = (   0.2858672   0.6291626   0.7103852  )
         8           Ta  tau(   8) = (   0.1294832   0.4647675   0.5429471  )
         9           Ta  tau(   9) = (   0.4422513   0.4647675   0.5429471  )
        10           Ta  tau(  10) = (   0.1399628   0.1406984   0.2204260  )
        11           Ta  tau(  11) = (   0.1394848   0.1400847   0.8666573  )
        12           Ta  tau(  12) = (   0.1396156   0.7897030   0.2190832  )
        13           Ta  tau(  13) = (   0.1400119   0.7885528   0.8657390  )
        14           Ta  tau(  14) = (   0.4317717   0.1406984   0.2204260  )
        15           Ta  tau(  15) = (   0.4322496   0.1400847   0.8666573  )
        16           Ta  tau(  16) = (   0.4321189   0.7897030   0.2190832  )
        17           Ta  tau(  17) = (   0.4317226   0.7885528   0.8657390  )
        18           Zr  tau(  18) = (   0.2858672   0.6280820   0.3776642  )
        19           Zr  tau(  19) = (   0.1331729   0.4627493   0.2141328  )
        20           Zr  tau(  20) = (   0.1328036   0.4661802   0.8725649  )
        21           Zr  tau(  21) = (   0.4385616   0.4627493   0.2141328  )
        22           Zr  tau(  22) = (   0.4389309   0.4661802   0.8725649  )
        23           H   tau(  23) = (   0.4976729   0.6437937   0.6464781  )

     number of k points=     1  Gaussian smearing, width (Ry)=  0.0220
                       cart. coord. in units 2pi/alat
        k(    1) = (   0.0000000   0.0000000   0.0000000), wk =   1.0000000

     Dense  grid:   493003 G-vectors     FFT dimensions: ( 125, 120, 135)

     Estimated max dynamical RAM per process >     133.03 MB

     Estimated total dynamical RAM >       5.46 GB

     Check: negative core charge=   -0.000002
     Generating pointlists ...
     new r_m :   0.0780 (alat units)  1.3760 (a.u.) for type    1
     new r_m :   0.0915 (alat units)  1.6143 (a.u.) for type    2
     new r_m :   0.0883 (alat units)  1.5588 (a.u.) for type    3
     new r_m :   0.1112 (alat units)  1.9625 (a.u.) for type    4
     new r_m :   0.0780 (alat units)  1.3760 (a.u.) for type    5

     Initial potential from superposition of free atoms

     starting charge     266.9726, renormalised to     277.0000

     negative rho (up, down):  9.215E-01 9.215E-01
     Starting wfcs are  287 randomized atomic wfcs

     total cpu time spent up to now is       12.7 secs

     Self-consistent Calculation

     iteration #  1     ecut=   120.00 Ry     beta= 0.70
     Davidson diagonalization with overlap
     ethr =  1.00E-02,  avg # of iterations =  2.0

     negative rho (up, down):  9.951E-01 9.947E-01

     total cpu time spent up to now is       32.7 secs

     total energy              =   -2930.63011233 Ry
     estimated scf accuracy    <     276.40208455 Ry

     total magnetization       =    -0.00 Bohr mag/cell
     absolute magnetization    =     0.09 Bohr mag/cell

     iteration #  2     ecut=   120.00 Ry     beta= 0.70
     Davidson diagonalization with overlap
     ethr =  1.00E-02,  avg # of iterations =  5.0

     negative rho (up, down):  9.689E-01 9.691E-01

     total cpu time spent up to now is       68.5 secs

     total energy              =   -2942.31447921 Ry
     estimated scf accuracy    <      28.99362127 Ry

     total magnetization       =    -0.01 Bohr mag/cell
     absolute magnetization    =     0.26 Bohr mag/cell

     iteration #  3     ecut=   120.00 Ry     beta= 0.70
     Davidson diagonalization with overlap
     ethr =  1.00E-02,  avg # of iterations =  2.0

     negative rho (up, down):  1.000E+00 1.004E+00

     total cpu time spent up to now is      107.2 secs

     total energy              =   -2942.55210621 Ry
     estimated scf accuracy    <      13.27563544 Ry

     total magnetization       =     0.01 Bohr mag/cell
     absolute magnetization    =     0.37 Bohr mag/cell

     iteration #  4     ecut=   120.00 Ry     beta= 0.70
     Davidson diagonalization with overlap
     ethr =  4.79E-03,  avg # of iterations =  4.0

     negative rho (up, down):  1.003E+00 1.006E+00

     total cpu time spent up to now is      133.7 secs

     total energy              =   -2942.94211975 Ry
     estimated scf accuracy    <       2.94871228 Ry

     total magnetization       =     0.11 Bohr mag/cell
     absolute magnetization    =     0.36 Bohr mag/cell

     iteration #  5     ecut=   120.00 Ry     beta= 0.70
     Davidson diagonalization with overlap
     ethr =  1.06E-03,  avg # of iterations =  8.0

     negative rho (up, down):  9.792E-01 9.803E-01

     total cpu time spent up to now is      156.5 secs

     total energy              =   -2943.07394197 Ry
     estimated scf accuracy    <       1.33578940 Ry

     total magnetization       =     0.05 Bohr mag/cell
     absolute magnetization    =     0.19 Bohr mag/cell

     iteration #  6     ecut=   120.00 Ry     beta= 0.70
     Davidson diagonalization with overlap
     ethr =  4.82E-04,  avg # of iterations =  2.0

     negative rho (up, down):  9.696E-01 9.700E-01

     total cpu time spent up to now is      173.8 secs

     total energy              =   -2943.09819178 Ry
     estimated scf accuracy    <       1.25239676 Ry

     total magnetization       =     0.04 Bohr mag/cell
     absolute magnetization    =     0.14 Bohr mag/cell

     iteration #  7     ecut=   120.00 Ry     beta= 0.70
     Davidson diagonalization with overlap
     ethr =  4.52E-04,  avg # of iterations =  2.0

     negative rho (up, down):  9.435E-01 9.433E-01

     total cpu time spent up to now is      190.1 secs

     total energy              =   -2943.04835287 Ry
     estimated scf accuracy    <       0.37698159 Ry

     total magnetization       =     0.04 Bohr mag/cell
     absolute magnetization    =     0.12 Bohr mag/cell

     iteration #  8     ecut=   120.00 Ry     beta= 0.70
     Davidson diagonalization with overlap
     ethr =  1.36E-04,  avg # of iterations =  7.0

     negative rho (up, down):  9.222E-01 9.217E-01

     total cpu time spent up to now is      215.6 secs

     total energy              =   -2943.05042533 Ry
     estimated scf accuracy    <       0.31755071 Ry

     total magnetization       =     0.04 Bohr mag/cell
     absolute magnetization    =     0.10 Bohr mag/cell

     iteration #  9     ecut=   120.00 Ry     beta= 0.70
     Davidson diagonalization with overlap
     ethr =  1.15E-04,  avg # of iterations =  2.0

     negative rho (up, down):  9.105E-01 9.102E-01

     total cpu time spent up to now is      251.1 secs

     total energy              =   -2943.05264629 Ry
     estimated scf accuracy    <       0.07036244 Ry

     total magnetization       =     0.03 Bohr mag/cell
     absolute magnetization    =     0.08 Bohr mag/cell

     iteration # 10     ecut=   120.00 Ry     beta= 0.70
     Davidson diagonalization with overlap
     ethr =  2.54E-05,  avg # of iterations = 14.0

     negative rho (up, down):  9.081E-01 9.081E-01

     total cpu time spent up to now is      288.9 secs

     total energy              =   -2943.05390349 Ry
     estimated scf accuracy    <       0.04595401 Ry

     total magnetization       =     0.03 Bohr mag/cell
     absolute magnetization    =     0.06 Bohr mag/cell

     iteration # 11     ecut=   120.00 Ry     beta= 0.70
     Davidson diagonalization with overlap
     ethr =  1.66E-05,  avg # of iterations =  2.0

     negative rho (up, down):  9.090E-01 9.090E-01

     total cpu time spent up to now is      305.4 secs

     total energy              =   -2943.05826437 Ry
     estimated scf accuracy    <       0.01083874 Ry

     total magnetization       =     0.02 Bohr mag/cell
     absolute magnetization    =     0.05 Bohr mag/cell

     iteration # 12     ecut=   120.00 Ry     beta= 0.70
     Davidson diagonalization with overlap
     ethr =  3.91E-06,  avg # of iterations = 10.0

     negative rho (up, down):  9.091E-01 9.091E-01

     total cpu time spent up to now is      325.7 secs

     total energy              =   -2943.06126476 Ry
     estimated scf accuracy    <       0.00170513 Ry

     total magnetization       =     0.02 Bohr mag/cell
     absolute magnetization    =     0.04 Bohr mag/cell

     iteration # 13     ecut=   120.00 Ry     beta= 0.70
     Davidson diagonalization with overlap
     ethr =  6.16E-07,  avg # of iterations =  6.0

     negative rho (up, down):  9.089E-01 9.089E-01

     Magnetic moment per site  (integrated on atomic sphere of radius R)
     atom   1 (R=0.078)  charge=  6.4152  magn= -0.0000
     atom   2 (R=0.078)  charge=  6.3300  magn=  0.0000
     atom   3 (R=0.078)  charge=  6.3296  magn= -0.0000
     atom   4 (R=0.078)  charge=  6.3296  magn=  0.0000
     atom   5 (R=0.078)  charge=  6.3454  magn= -0.0000
     atom   6 (R=0.091)  charge=  8.7374  magn=  0.0001
     atom   7 (R=0.091)  charge=  8.7449  magn=  0.0001
     atom   8 (R=0.088)  charge=  8.1236  magn= -0.0001
     atom   9 (R=0.088)  charge=  8.1311  magn= -0.0001
     atom  10 (R=0.088)  charge=  8.1035  magn=  0.0005
     atom  11 (R=0.088)  charge=  8.1030  magn=  0.0008
     atom  12 (R=0.088)  charge=  8.1055  magn=  0.0012
     atom  13 (R=0.088)  charge=  8.1032  magn=  0.0001
     atom  14 (R=0.088)  charge=  8.1043  magn= -0.0000
     atom  15 (R=0.088)  charge=  8.0977  magn=  0.0004
     atom  16 (R=0.088)  charge=  8.1031  magn=  0.0008
     atom  17 (R=0.088)  charge=  8.1061  magn= -0.0003
     atom  18 (R=0.111)  charge=  9.4514  magn= -0.0000
     atom  19 (R=0.111)  charge=  9.0024  magn=  0.0016
     atom  20 (R=0.111)  charge=  8.9953  magn=  0.0007
     atom  21 (R=0.111)  charge=  9.0005  magn=  0.0008
     atom  22 (R=0.111)  charge=  9.0024  magn= -0.0003
     atom  23 (R=0.078)  charge=  1.0519  magn= -0.0000

     total cpu time spent up to now is      345.4 secs

     End of self-consistent calculation

 ------ SPIN UP ------------


          k = 0.0000 0.0000 0.0000 ( 61588 PWs)   bands (ev):

   -60.8006 -60.7548 -60.7492 -60.7100 -60.6798 -60.6697 -60.6354 -60.6256
   -60.5748 -60.5319 -54.3586 -54.2758 -54.2274 -54.0982 -52.6981 -46.3911
   -46.2295 -41.6730 -41.6254 -41.5603 -41.5243 -39.7707 -27.7880 -27.7536
   -27.6979 -27.6690 -27.6062 -27.5674 -27.4602 -27.4393 -27.4240 -27.3606
   -27.3063 -27.2786 -27.2454 -27.2374 -27.2063 -27.1823 -27.1748 -27.1495
   -27.1432 -27.1223 -27.1102 -27.0703 -26.9723 -26.9415 -26.9312 -26.9115
   -26.8812 -26.8567 -26.8312 -26.8258 -24.1500 -23.9370 -23.6457 -23.5355
   -23.2849 -23.1973 -23.1263 -23.0638 -22.8952 -22.8064 -22.7987 -22.5859
   -22.5686 -22.4505 -22.4270 -22.3911 -22.2638 -22.2272 -21.7575 -21.6970
   -21.6232 -20.1844 -19.9621 -19.8275 -19.8178 -19.7011 -19.6213 -19.6019
   -19.5902 -19.5707 -19.5332 -19.3748 -19.3599 -18.1211 -17.9160 -17.7875
     0.2486   1.8620   2.9460   3.1303   3.3023   3.3598   3.5084   3.6111
     3.6738   3.8011   3.9096   4.0667   4.0989   4.5089   4.5907   4.7049
     4.7284   4.8845   5.0499   5.1203   5.2663   5.2743   5.2991   5.3868
     5.4496   5.5319   5.5658   5.6960   5.7329   5.7570   5.7738   5.8467
     5.9900   6.0615   6.1780   6.2144   6.2810   6.3225   6.3641   6.4318
     6.4417   6.5840   6.6686   6.7081   6.9073   6.9882   7.0289   7.1247
     7.1377   7.1615   7.2815   7.3124   7.4045   7.4923   7.5545   7.5937
     7.6279   7.8380   7.9004   7.9710   8.0541   8.0958   8.1172   8.1951
     8.2323   8.2761   8.3452   8.3734   8.4490   8.5480   8.6366   8.7021
     8.8551   8.9276   8.9726   9.0525   9.0754   9.2147   9.2740

 ------ SPIN DOWN ----------


          k = 0.0000 0.0000 0.0000 ( 61588 PWs)   bands (ev):

   -60.8008 -60.7542 -60.7492 -60.7094 -60.6790 -60.6692 -60.6345 -60.6251
   -60.5751 -60.5321 -54.3587 -54.2758 -54.2274 -54.0983 -52.6981 -46.3910
   -46.2295 -41.6731 -41.6241 -41.5597 -41.5230 -39.7709 -27.7879 -27.7527
   -27.6976 -27.6680 -27.6061 -27.5667 -27.4602 -27.4383 -27.4235 -27.3610
   -27.3056 -27.2786 -27.2446 -27.2371 -27.2055 -27.1823 -27.1746 -27.1494
   -27.1425 -27.1220 -27.1104 -27.0707 -26.9724 -26.9412 -26.9303 -26.9105
   -26.8805 -26.8555 -26.8302 -26.8254 -24.1500 -23.9371 -23.6457 -23.5357
   -23.2848 -23.1974 -23.1264 -23.0637 -22.8953 -22.8066 -22.7989 -22.5859
   -22.5687 -22.4506 -22.4272 -22.3911 -22.2638 -22.2272 -21.7575 -21.6969
   -21.6231 -20.1831 -19.9620 -19.8261 -19.8165 -19.7012 -19.6214 -19.6012
   -19.5894 -19.5692 -19.5325 -19.3744 -19.3580 -18.1212 -17.9159 -17.7876
     0.2484   1.8623   2.9468   3.1305   3.3022   3.3602   3.5088   3.6111
     3.6739   3.8013   3.9104   4.0669   4.0995   4.5091   4.5909   4.7054
     4.7290   4.8850   5.0504   5.1206   5.2666   5.2748   5.2992   5.3876
     5.4498   5.5322   5.5661   5.6963   5.7330   5.7576   5.7745   5.8470
     5.9903   6.0620   6.1785   6.2149   6.2813   6.3230   6.3644   6.4324
     6.4422   6.5842   6.6693   6.7088   6.9080   6.9891   7.0308   7.1271
     7.1396   7.1623   7.2837   7.3128   7.4065   7.4946   7.5558   7.5946
     7.6294   7.8383   7.9008   7.9712   8.0549   8.0968   8.1178   8.1970
     8.2336   8.2764   8.3475   8.3748   8.4499   8.5486   8.6372   8.7026
     8.8559   8.9299   8.9730   9.0531   9.0758   9.2152   9.2751

     the Fermi energy is     7.2756 ev

!    total energy              =   -2943.06231816 Ry
     estimated scf accuracy    <       0.00057416 Ry
     smearing contrib. (-TS)   =      -0.10021009 Ry
     internal energy E=F+TS    =   -2942.96210807 Ry

     total magnetization       =     0.02 Bohr mag/cell
     absolute magnetization    =     0.04 Bohr mag/cell

     convergence has been achieved in  13 iterations

     negative rho (up, down):  9.089E-01 9.089E-01

     Forces acting on atoms (cartesian axes, Ry/au):

     atom    1 type  1   force =     0.00211413   -0.02489019    0.00022664
     atom    2 type  1   force =    -0.11858540   -0.01348123   -0.00298225
     atom    3 type  1   force =    -0.11124376    0.00999044    0.00350975
     atom    4 type  1   force =     0.12170515   -0.00839729   -0.00230692
     atom    5 type  1   force =     0.07900982    0.07853608   -0.06562845
     atom    6 type  2   force =    -0.00006329   -0.01786845    0.01309095
     atom    7 type  2   force =    -0.01299500    0.01543677   -0.02845194
     atom    8 type  3   force =    -0.10301471    0.00227551   -0.00388288
     atom    9 type  3   force =     0.10240653   -0.00259414   -0.02310312
     atom   10 type  3   force =    -0.02299388   -0.03073473   -0.05901514
     atom   11 type  3   force =    -0.02342579   -0.03543457    0.05487533
     atom   12 type  3   force =    -0.01725131    0.03434918   -0.05267866
     atom   13 type  3   force =    -0.00355298    0.03152157    0.06611798
     atom   14 type  3   force =     0.02062356   -0.03085858   -0.05673511
     atom   15 type  3   force =     0.02204056   -0.03789601    0.06232211
     atom   16 type  3   force =     0.01870428    0.03783298   -0.05532912
     atom   17 type  3   force =     0.00925305    0.04956496    0.06665044
     atom   18 type  4   force =    -0.00285397    0.02198050   -0.01175683
     atom   19 type  4   force =    -0.12729084   -0.00525555   -0.11600453
     atom   20 type  4   force =    -0.12020503    0.00572000    0.12286450
     atom   21 type  4   force =     0.12670756   -0.00648285   -0.11411370
     atom   22 type  4   force =     0.12146444   -0.00631230    0.12695772
     atom   23 type  5   force =     0.03944688   -0.06700212    0.07537323
     The non-local contrib.  to forces
     atom    1 type  1   force =     0.00517216   -0.00955563    0.02659515
     atom    2 type  1   force =    -0.24876156   -0.15977044    0.01635709
     atom    3 type  1   force =    -0.23553397    0.15006958   -0.01361762
     atom    4 type  1   force =     0.24349132   -0.17639179    0.02037375
     atom    5 type  1   force =     0.20602299    0.17192539   -0.02728535
     atom    6 type  2   force =     0.00161298   -0.04362357   -0.06309835
     atom    7 type  2   force =     0.00936895    0.05245254    0.09052904
     atom    8 type  3   force =    -0.25480260    0.00718960    0.00404621
     atom    9 type  3   force =     0.24575259    0.03791366    0.03180339
     atom   10 type  3   force =    -0.21167785    0.00982248   -0.20607675
     atom   11 type  3   force =    -0.21967613    0.00515746    0.19364639
     atom   12 type  3   force =    -0.20370002   -0.02578501   -0.17751508
     atom   13 type  3   force =    -0.19970295   -0.00959493    0.19793781
     atom   14 type  3   force =     0.21407417    0.00415359   -0.20712620
     atom   15 type  3   force =     0.22404680    0.00949202    0.18804126
     atom   16 type  3   force =     0.20203703   -0.02099999   -0.18230653
     atom   17 type  3   force =     0.23908206   -0.04298819    0.14375218
     atom   18 type  4   force =    -0.00013099    0.05482913   -0.06196557
     atom   19 type  4   force =     0.06224573    0.01197135    0.07530247
     atom   20 type  4   force =     0.05362779   -0.01847815   -0.06787028
     atom   21 type  4   force =    -0.05866515    0.01626139    0.07422760
     atom   22 type  4   force =    -0.06156005   -0.01550484   -0.05611139
     atom   23 type  5   force =    -0.03525218    0.00788566   -0.02254301
     The ionic contribution  to forces
     atom    1 type  1   force =    -0.21460128   -4.79819872   14.02152357
     atom    2 type  1   force =   -39.75457536   -6.07871978    0.72339639
     atom    3 type  1   force =   -39.90585882    6.23938284   -0.83066129
     atom    4 type  1   force =    39.59425130   -5.99964753    0.66399896
     atom    5 type  1   force =    38.95604430    7.71753021   -1.85749659
     atom    6 type  2   force =    -0.12651468   -3.63879489  -14.01733125
     atom    7 type  2   force =    -1.53968500    3.44983733   14.35313334
     atom    8 type  3   force =   -52.33006405   -0.08473446   -0.17868932
     atom    9 type  3   force =    51.61750043   -1.36379786   -0.92737579
     atom   10 type  3   force =   -36.08690350   -2.06681194  -23.07672652
     atom   11 type  3   force =   -35.19928867   -0.80601326   22.12116074
     atom   12 type  3   force =   -35.30261362    0.82790882  -22.16632816
     atom   13 type  3   force =   -36.22217554    2.27359432   23.19160712
     atom   14 type  3   force =    36.01101710   -2.05473118  -23.11636998
     atom   15 type  3   force =    35.05893981   -0.75874786   22.20765353
     atom   16 type  3   force =    35.17101546    0.88143309  -22.29395910
     atom   17 type  3   force =    35.75229346    2.71538036   23.86980693
     atom   18 type  4   force =    -0.34789318    4.30593244  -14.26530521
     atom   19 type  4   force =   -35.94330853    0.91198374  -25.54953125
     atom   20 type  4   force =   -36.02277319   -1.05469590   25.60840879
     atom   21 type  4   force =    35.83873301    0.85937373  -25.65029142
     atom   22 type  4   force =    35.69436327   -1.42727548   26.09327383
     atom   23 type  5   force =     5.30209729   -0.05018804    1.07610269
     The local contribution  to forces
     atom    1 type  1   force =     0.20667544    4.78722315  -14.05193742
     atom    2 type  1   force =    39.90261114    6.22523150   -0.74618936
     atom    3 type  1   force =    40.04479047   -6.38078117    0.84456471
     atom    4 type  1   force =   -39.73773571    6.17042259   -0.69535444
     atom    5 type  1   force =   -39.09693016   -7.80923144    1.81411417
     atom    6 type  2   force =     0.12537892    3.67388735   14.07507027
     atom    7 type  2   force =     1.51083554   -3.49304318  -14.47037989
     atom    8 type  3   force =    52.50899039    0.07908224    0.16246693
     atom    9 type  3   force =   -51.78560314    1.32162408    0.86210215
     atom   10 type  3   force =    36.29800338    2.02502216   23.24011451
     atom   11 type  3   force =    35.41479156    0.76163762  -22.27811358
     atom   12 type  3   force =    35.50836108   -0.76455008   22.30638102
     atom   13 type  3   force =    36.43371788   -2.22819461  -23.33895065
     atom   14 type  3   force =   -36.22609689    2.01841104   23.28462371
     atom   15 type  3   force =   -35.29171947    0.71262537  -22.35210589
     atom   16 type  3   force =   -35.37603353   -0.81923611   22.43805376
     atom   17 type  3   force =   -36.00948649   -2.62533604  -23.95868449
     atom   18 type  4   force =     0.34401907   -4.34703759   14.29871506
     atom   19 type  4   force =    35.76729059   -0.92999233   25.36968083
     atom   20 type  4   force =    35.85684405    1.07794997  -25.42723028
     atom   21 type  4   force =   -35.66770317   -0.88381250   25.47426976
     atom   22 type  4   force =   -35.52360330    1.43618118  -25.91865004
     atom   23 type  5   force =    -5.22756157   -0.02553925   -0.97929215
     The core correction contribution to forces
     atom    1 type  1   force =     0.00014555    0.00183506   -0.00050012
     atom    2 type  1   force =    -0.01148143   -0.00131750    0.00038245
     atom    3 type  1   force =    -0.01081710    0.00335912   -0.00072600
     atom    4 type  1   force =     0.01303801   -0.00332827    0.00066483
     atom    5 type  1   force =     0.00730208    0.00086084   -0.00199875
     atom    6 type  2   force =    -0.00019092    0.00211317    0.00256613
     atom    7 type  2   force =     0.00068658   -0.00271543   -0.00420502
     atom    8 type  3   force =    -0.03078944    0.00014804    0.00096154
     atom    9 type  3   force =     0.02721421   -0.00097607    0.00062071
     atom   10 type  3   force =    -0.02290301    0.00921418   -0.01624639
     atom   11 type  3   force =    -0.02351311    0.00921488    0.01677804
     atom   12 type  3   force =    -0.02128890   -0.00974810   -0.01581726
     atom   13 type  3   force =    -0.02030093   -0.01002623    0.01576778
     atom   14 type  3   force =     0.02148763    0.00987862   -0.01600487
     atom   15 type  3   force =     0.02389600    0.00947579    0.01746518
     atom   16 type  3   force =     0.02156122   -0.00870734   -0.01628089
     atom   17 type  3   force =     0.02287424   -0.01057928    0.01209294
     atom   18 type  4   force =     0.00001069   -0.00303665    0.00290405
     atom   19 type  4   force =    -0.00979042   -0.00013233   -0.00974247
     atom   20 type  4   force =    -0.00938950    0.00065641    0.00937125
     atom   21 type  4   force =     0.00951873   -0.00034969   -0.00965854
     atom   22 type  4   force =     0.01019537    0.00093407    0.00805601
     atom   23 type  5   force =     0.00000000    0.00000000    0.00000000
     The Hubbard contrib.    to forces
     atom    1 type  1   force =     0.00000000    0.00000000    0.00000000
     atom    2 type  1   force =     0.00000000    0.00000000    0.00000000
     atom    3 type  1   force =     0.00000000    0.00000000    0.00000000
     atom    4 type  1   force =     0.00000000    0.00000000    0.00000000
     atom    5 type  1   force =     0.00000000    0.00000000    0.00000000
     atom    6 type  2   force =     0.00000000    0.00000000    0.00000000
     atom    7 type  2   force =     0.00000000    0.00000000    0.00000000
     atom    8 type  3   force =     0.00000000    0.00000000    0.00000000
     atom    9 type  3   force =     0.00000000    0.00000000    0.00000000
     atom   10 type  3   force =     0.00000000    0.00000000    0.00000000
     atom   11 type  3   force =     0.00000000    0.00000000    0.00000000
     atom   12 type  3   force =     0.00000000    0.00000000    0.00000000
     atom   13 type  3   force =     0.00000000    0.00000000    0.00000000
     atom   14 type  3   force =     0.00000000    0.00000000    0.00000000
     atom   15 type  3   force =     0.00000000    0.00000000    0.00000000
     atom   16 type  3   force =     0.00000000    0.00000000    0.00000000
     atom   17 type  3   force =     0.00000000    0.00000000    0.00000000
     atom   18 type  4   force =     0.00000000    0.00000000    0.00000000
     atom   19 type  4   force =     0.00000000    0.00000000    0.00000000
     atom   20 type  4   force =     0.00000000    0.00000000    0.00000000
     atom   21 type  4   force =     0.00000000    0.00000000    0.00000000
     atom   22 type  4   force =     0.00000000    0.00000000    0.00000000
     atom   23 type  5   force =     0.00000000    0.00000000    0.00000000
     The SCF correction term to forces
     atom    1 type  1   force =     0.00449986   -0.00616853    0.00396749
     atom    2 type  1   force =    -0.00660058    0.00112050    0.00249322
     atom    3 type  1   force =    -0.00404673   -0.00201442    0.00337199
     atom    4 type  1   force =     0.00843785    0.00057323    0.00743201
     atom    5 type  1   force =     0.00634823   -0.00252339    0.00646011
     atom    6 type  2   force =    -0.00057198   -0.01142499    0.01530618
     atom    7 type  2   force =     0.00557654    0.00893103    0.00189264
     atom    8 type  3   force =     0.00342859    0.00061561    0.00675381
     atom    9 type  3   force =    -0.00267994    0.00266756    0.00916847
     atom   10 type  3   force =     0.00026470   -0.00795608   -0.00065795
     atom   11 type  3   force =     0.00403817   -0.00540575    0.00082578
     atom   12 type  3   force =     0.00176777    0.00654907    0.00002286
     atom   13 type  3   force =     0.00468618    0.00576854   -0.00082204
     atom   14 type  3   force =    -0.00008083   -0.00854513   -0.00243573
     atom   15 type  3   force =     0.00665504   -0.01071581    0.00069006
     atom   16 type  3   force =    -0.00009828    0.00536884   -0.00141431
     atom   17 type  3   force =     0.00426739    0.01311364   -0.00089508
     atom   18 type  4   force =     0.00091806    0.01131869    0.01331687
     atom   19 type  4   force =    -0.00395059    0.00093955   -0.00229208
     atom   20 type  4   force =     0.00126344    0.00031319   -0.00039294
     atom   21 type  4   force =     0.00460176    0.00206975   -0.00323906
     atom   22 type  4   force =     0.00184676   -0.00062171   -0.00018864
     atom   23 type  5   force =    -0.00005905    0.00086503    0.00052774

     Total force =     0.505589     Total SCF correction =     0.045285


     Computing stress (Cartesian axis) and pressure


     negative rho (up, down):  9.089E-01 9.089E-01
          total   stress  (Ry/bohr**3)                   (kbar)     P=       87.47
   0.00062979  -0.00001014   0.00001711           92.65       -1.49        2.52
  -0.00001014   0.00072413  -0.00002151           -1.49      106.52       -3.16
   0.00001711  -0.00002151   0.00042984            2.52       -3.16       63.23


     Molecular Dynamics Calculation

     Starting temperature  =   300.00 K

     temperature is set once at start

     mass Hf               =   178.49
     mass Nb               =    92.91
     mass Ta               =   180.95
     mass Zr               =    91.22
     mass H                =     2.01
     Time step             =     4.20 a.u.,  0.2032 femto-seconds

     Entering Dynamics:    iteration =     1
                           time      =   0.0002 pico-seconds


ATOMIC_POSITIONS (angstrom)
Hf            2.6700230283        2.8271966716        6.6040071560
Hf            1.2530102887        1.2863581511        5.0585090714
Hf            1.2555067177        7.3898789379        5.0881107990
Hf            4.0870357361        1.2863582969        5.0585090908
Hf            4.0845382928        7.3898809044        5.0881088154
Nb            2.6700229641        2.7970039771        3.5156268691
Nb            2.6700222514        5.8764538836        6.6350393059
Ta            1.2093931513        4.3410022724        5.0711686533
Ta            4.1306527667        4.3410021346        5.0711681094
Ta            1.3072750440        1.3141960761        2.0588203709
Ta            1.3028106619        1.3084644897        8.0946236863
Ta            1.3040321445        7.3759014526        2.0462786199
Ta            1.3077337085        7.3651581969        8.0860470228
Ta            4.0327708242        1.3141960726        2.0588204354
Ta            4.0372352342        1.3084644200        8.0946238970
Ta            4.0360138319        7.3759015512        2.0462785449
Ta            4.0323123881        7.3651587075        8.0860470379
Zr            2.6700228074        5.8663614337        3.5274262013
Zr            1.2438504842        4.3221520259        2.0000364190
Zr            1.2404016757        4.3541979620        8.1498053771
Zr            4.0961954183        4.3221519570        2.0000365252
Zr            4.0996443303        4.3541972866        8.1498056069
H             4.6101604952        5.8894075422        5.9670187508


     kinetic energy (Ekin) =           4.04952100 Ry
     temperature           =       19374.81201685 K 
     Ekin + Etot (const)   =       -2939.01279716 Ry
     Ions kinetic stress =           71.52 (kbar)
                                     14.38          46.46          26.82
                                     46.46         150.13          86.68
                                     26.82          86.68          50.05



     Linear momentum :    0.0000000000    0.0000000000    0.0000000000

     File outdir/pwscf.msd.dat deleted, as requested

     Writing config-only to output data dir outdir/pwscf.save/
     NEW-OLD atomic charge density approx. for the potential

     Check: negative core charge=   -0.000002

     negative rho (up, down):  9.088E-01 9.088E-01
     Generating pointlists ...
     new r_m :   0.0818 (alat units)  1.4437 (a.u.) for type    3

     total cpu time spent up to now is      377.3 secs

     Self-consistent Calculation

     iteration #  1     ecut=   120.00 Ry     beta= 0.70
     Davidson diagonalization with overlap
     ethr =  1.00E-06,  avg # of iterations =  6.0

     negative rho (up, down):  9.090E-01 9.090E-01

     total cpu time spent up to now is      444.1 secs

     total energy              =   -2943.05477392 Ry
     estimated scf accuracy    <       0.06326233 Ry

     total magnetization       =     0.02 Bohr mag/cell
     absolute magnetization    =     0.03 Bohr mag/cell

     iteration #  2     ecut=   120.00 Ry     beta= 0.70
     Davidson diagonalization with overlap
     ethr =  2.28E-05,  avg # of iterations =  2.0

     negative rho (up, down):  9.089E-01 9.089E-01

     total cpu time spent up to now is      461.9 secs

     total energy              =   -2943.05949547 Ry
     estimated scf accuracy    <       0.03868969 Ry

     total magnetization       =     0.02 Bohr mag/cell
     absolute magnetization    =     0.03 Bohr mag/cell

     iteration #  3     ecut=   120.00 Ry     beta= 0.70
     Davidson diagonalization with overlap
     ethr =  1.40E-05,  avg # of iterations =  1.0

     negative rho (up, down):  9.089E-01 9.089E-01

     total cpu time spent up to now is      477.6 secs

     total energy              =   -2943.06162426 Ry
     estimated scf accuracy    <       0.00129423 Ry

     total magnetization       =     0.02 Bohr mag/cell
     absolute magnetization    =     0.03 Bohr mag/cell

     iteration #  4     ecut=   120.00 Ry     beta= 0.70
     Davidson diagonalization with overlap
     ethr =  4.67E-07,  avg # of iterations =  2.0

     negative rho (up, down):  9.090E-01 9.090E-01

     Magnetic moment per site  (integrated on atomic sphere of radius R)
     atom   1 (R=0.078)  charge=  6.4152  magn=  0.0000
     atom   2 (R=0.078)  charge=  6.3293  magn=  0.0000
     atom   3 (R=0.078)  charge=  6.3292  magn=  0.0000
     atom   4 (R=0.078)  charge=  6.3289  magn=  0.0000
     atom   5 (R=0.078)  charge=  6.3422  magn=  0.0000
     atom   6 (R=0.091)  charge=  8.7395  magn=  0.0001
     atom   7 (R=0.091)  charge=  8.7438  magn=  0.0001
     atom   8 (R=0.082)  charge=  7.4341  magn= -0.0000
     atom   9 (R=0.082)  charge=  7.4456  magn=  0.0000
     atom  10 (R=0.082)  charge=  7.4181  magn=  0.0003
     atom  11 (R=0.082)  charge=  7.4167  magn=  0.0006
     atom  12 (R=0.082)  charge=  7.4192  magn=  0.0008
     atom  13 (R=0.082)  charge=  7.4169  magn=  0.0002
     atom  14 (R=0.082)  charge=  7.4187  magn=  0.0000
     atom  15 (R=0.082)  charge=  7.4201  magn=  0.0003
     atom  16 (R=0.082)  charge=  7.4185  magn=  0.0004
     atom  17 (R=0.082)  charge=  7.4245  magn= -0.0002
     atom  18 (R=0.111)  charge=  9.4534  magn= -0.0000
     atom  19 (R=0.111)  charge=  8.9921  magn=  0.0011
     atom  20 (R=0.111)  charge=  8.9915  magn=  0.0006
     atom  21 (R=0.111)  charge=  8.9900  magn=  0.0005
     atom  22 (R=0.111)  charge=  8.9974  magn= -0.0002
     atom  23 (R=0.078)  charge=  1.0805  magn=  0.0000

     total cpu time spent up to now is      496.0 secs

     End of self-consistent calculation

 ------ SPIN UP ------------


          k = 0.0000 0.0000 0.0000 ( 61588 PWs)   bands (ev):

   -60.7871 -60.7431 -60.7333 -60.6980 -60.6710 -60.6689 -60.6239 -60.6147
   -60.5604 -60.4771 -54.3439 -54.2605 -54.2163 -54.1221 -52.6835 -46.3746
   -46.2346 -41.6520 -41.5956 -41.5398 -41.4949 -39.7789 -27.7799 -27.7426
   -27.6859 -27.6580 -27.5930 -27.5537 -27.4424 -27.4276 -27.4138 -27.3449
   -27.2945 -27.2630 -27.2339 -27.2264 -27.2002 -27.1656 -27.1583 -27.1342
   -27.1275 -27.1060 -27.0780 -27.0365 -26.9599 -26.9366 -26.9192 -26.9007
   -26.8703 -26.8452 -26.8208 -26.8194 -24.1417 -23.9307 -23.6377 -23.5277
   -23.2718 -23.1867 -23.1199 -23.0489 -22.8870 -22.8026 -22.8005 -22.5763
   -22.5637 -22.4485 -22.4169 -22.3925 -22.2567 -22.2218 -21.7429 -21.6822
   -21.6100 -20.1587 -19.9407 -19.7977 -19.7942 -19.6803 -19.6021 -19.5818
   -19.5636 -19.5455 -19.5143 -19.3530 -19.3283 -18.1279 -17.9189 -17.7891
     0.1564   1.8588   2.9556   3.1418   3.3383   3.3707   3.5158   3.6220
     3.6815   3.8107   3.9206   4.0859   4.1279   4.5184   4.6082   4.7173
     4.7421   4.9056   5.0553   5.1293   5.2701   5.2823   5.3101   5.3953
     5.4348   5.5356   5.5764   5.7049   5.7446   5.7713   5.7864   5.8695
     6.0082   6.0723   6.1901   6.2260   6.2929   6.3399   6.3793   6.4365
     6.4559   6.5980   6.6787   6.7202   6.9164   7.0044   7.0411   7.1274
     7.1460   7.1715   7.2903   7.3171   7.4107   7.5059   7.5700   7.5976
     7.6358   7.8599   7.9096   7.9623   8.0570   8.1100   8.1291   8.2010
     8.2501   8.2884   8.3643   8.3888   8.4663   8.5603   8.6462   8.7073
     8.8667   8.9318   8.9526   9.0639   9.0881   9.2401   9.2841

 ------ SPIN DOWN ----------


          k = 0.0000 0.0000 0.0000 ( 61588 PWs)   bands (ev):

   -60.7872 -60.7426 -60.7332 -60.6975 -60.6707 -60.6684 -60.6232 -60.6141
   -60.5605 -60.4771 -54.3439 -54.2605 -54.2162 -54.1221 -52.6835 -46.3745
   -46.2345 -41.6521 -41.5949 -41.5394 -41.4941 -39.7789 -27.7797 -27.7420
   -27.6855 -27.6573 -27.5929 -27.5532 -27.4421 -27.4269 -27.4134 -27.3450
   -27.2941 -27.2628 -27.2334 -27.2261 -27.1997 -27.1653 -27.1581 -27.1336
   -27.1273 -27.1057 -27.0780 -27.0366 -26.9599 -26.9363 -26.9185 -26.9000
   -26.8696 -26.8444 -26.8200 -26.8189 -24.1416 -23.9307 -23.6376 -23.5277
   -23.2717 -23.1866 -23.1199 -23.0488 -22.8870 -22.8026 -22.8006 -22.5763
   -22.5637 -22.4485 -22.4168 -22.3924 -22.2566 -22.2217 -21.7429 -21.6822
   -21.6100 -20.1578 -19.9407 -19.7969 -19.7933 -19.6805 -19.6022 -19.5811
   -19.5629 -19.5446 -19.5138 -19.3527 -19.3271 -18.1278 -17.9189 -17.7891
     0.1564   1.8592   2.9564   3.1420   3.3384   3.3713   3.5162   3.6221
     3.6817   3.8110   3.9215   4.0862   4.1284   4.5187   4.6085   4.7179
     4.7426   4.9062   5.0559   5.1296   5.2705   5.2828   5.3103   5.3961
     5.4352   5.5359   5.5768   5.7053   5.7448   5.7718   5.7870   5.8699
     6.0086   6.0728   6.1906   6.2264   6.2933   6.3403   6.3798   6.4371
     6.4564   6.5983   6.6792   6.7208   6.9171   7.0052   7.0427   7.1296
     7.1475   7.1721   7.2923   7.3176   7.4126   7.5078   7.5711   7.5984
     7.6371   7.8604   7.9101   7.9624   8.0577   8.1112   8.1297   8.2024
     8.2511   8.2889   8.3661   8.3898   8.4670   8.5610   8.6466   8.7079
     8.8672   8.9334   8.9529   9.0647   9.0885   9.2405   9.2851

     the Fermi energy is     7.2841 ev

!    total energy              =   -2943.06139344 Ry
     estimated scf accuracy    <       0.00047102 Ry
     smearing contrib. (-TS)   =      -0.10026992 Ry
     internal energy E=F+TS    =   -2942.96112352 Ry

     total magnetization       =     0.02 Bohr mag/cell
     absolute magnetization    =     0.03 Bohr mag/cell

     convergence has been achieved in   4 iterations

     negative rho (up, down):  9.090E-01 9.090E-01

     Forces acting on atoms (cartesian axes, Ry/au):

     atom    1 type  1   force =     0.00692750   -0.03093160    0.00354105
     atom    2 type  1   force =    -0.12260623   -0.01496370   -0.00027604
     atom    3 type  1   force =    -0.11430447    0.01195084    0.00558372
     atom    4 type  1   force =     0.12827385   -0.01042415    0.00591535
     atom    5 type  1   force =     0.09261776    0.05807962   -0.04446762
     atom    6 type  2   force =    -0.00207468   -0.02028027    0.01092824
     atom    7 type  2   force =    -0.01543174    0.01334029   -0.02792634
     atom    8 type  3   force =    -0.10363760    0.00286688   -0.00210796
     atom    9 type  3   force =     0.09547400   -0.01969925   -0.03518458
     atom   10 type  3   force =    -0.02403526   -0.03285964   -0.06143637
     atom   11 type  3   force =    -0.02331793   -0.03682032    0.05384879
     atom   12 type  3   force =    -0.01800529    0.03626106   -0.05474507
     atom   13 type  3   force =    -0.00190067    0.03461496    0.06549335
     atom   14 type  3   force =     0.02005845   -0.03409070   -0.05996571
     atom   15 type  3   force =     0.02152537   -0.04217904    0.06155864
     atom   16 type  3   force =     0.01767240    0.04057970   -0.05685523
     atom   17 type  3   force =     0.00761164    0.05613143    0.06791906
     atom   18 type  4   force =    -0.00341280    0.02721884   -0.01053444
     atom   19 type  4   force =    -0.13014696   -0.00523736   -0.11736688
     atom   20 type  4   force =    -0.12180509    0.00577162    0.12054415
     atom   21 type  4   force =     0.12806720   -0.00615513   -0.11598749
     atom   22 type  4   force =     0.12283469   -0.00608001    0.12404111
     atom   23 type  5   force =     0.03961587   -0.02709408    0.06748026
     The non-local contrib.  to forces
     atom    1 type  1   force =     0.00776403   -0.01261304    0.02872964
     atom    2 type  1   force =    -0.24999690   -0.15994867    0.01805924
     atom    3 type  1   force =    -0.23732226    0.15061638   -0.01293485
     atom    4 type  1   force =     0.24668214   -0.17939040    0.02429717
     atom    5 type  1   force =     0.21272985    0.16427924   -0.02021724
     atom    6 type  2   force =     0.00127294   -0.04328056   -0.06396786
     atom    7 type  2   force =     0.01250561    0.06026794    0.09463067
     atom    8 type  3   force =    -0.25353271    0.00766456    0.00658527
     atom    9 type  3   force =     0.23297533    0.02794982    0.02426515
     atom   10 type  3   force =    -0.21023401    0.00618985   -0.20812091
     atom   11 type  3   force =    -0.21600718    0.00407594    0.19305005
     atom   12 type  3   force =    -0.20072084   -0.02401190   -0.17829684
     atom   13 type  3   force =    -0.19406879   -0.00819347    0.19883695
     atom   14 type  3   force =     0.21295204    0.00098027   -0.20737314
     atom   15 type  3   force =     0.22213854    0.00455942    0.18867106
     atom   16 type  3   force =     0.19954845   -0.01819274   -0.18270751
     atom   17 type  3   force =     0.23454231   -0.03355388    0.15045249
     atom   18 type  4   force =    -0.00009572    0.05856132   -0.05886082
     atom   19 type  4   force =     0.06177073    0.01208002    0.07638030
     atom   20 type  4   force =     0.05407041   -0.01888734   -0.06949427
     atom   21 type  4   force =    -0.05835004    0.01633924    0.07423041
     atom   22 type  4   force =    -0.05773066   -0.01529368   -0.05627179
     atom   23 type  5   force =    -0.03564450   -0.00228352   -0.02533742
     The ionic contribution  to forces
     atom    1 type  1   force =    -0.22956454   -4.82677140   14.03654764
     atom    2 type  1   force =   -39.75620024   -6.08877276    0.72704122
     atom    3 type  1   force =   -39.90693212    6.25075494   -0.82226328
     atom    4 type  1   force =    39.59914915   -6.03428015    0.67364242
     atom    5 type  1   force =    39.05411127    7.71014434   -1.68393527
     atom    6 type  2   force =    -0.13658248   -3.65740500  -14.02936584
     atom    7 type  2   force =    -1.55495352    3.54579989   14.42517937
     atom    8 type  3   force =   -52.35690033   -0.08798757   -0.17850921
     atom    9 type  3   force =    51.53848323   -1.62276225   -1.07434067
     atom   10 type  3   force =   -36.08838205   -2.07090845  -23.08003205
     atom   11 type  3   force =   -35.19826371   -0.81515487   22.12191520
     atom   12 type  3   force =   -35.30491282    0.83200747  -22.17116243
     atom   13 type  3   force =   -36.21317564    2.27724944   23.18961028
     atom   14 type  3   force =    36.01223126   -2.06261450  -23.12112644
     atom   15 type  3   force =    35.06422034   -0.78539641   22.20509956
     atom   16 type  3   force =    35.17337051    0.89101723  -22.30261248
     atom   17 type  3   force =    35.80035206    2.68212485   23.78056757
     atom   18 type  4   force =    -0.37294973    4.32717106  -14.29354837
     atom   19 type  4   force =   -35.94833208    0.91184515  -25.55728666
     atom   20 type  4   force =   -36.02869040   -1.05104055   25.61623831
     atom   21 type  4   force =    35.83843259    0.85714788  -25.67202458
     atom   22 type  4   force =    35.70149415   -1.40662423   26.13114680
     atom   23 type  5   force =     5.31399512    0.22445587    1.07921892
     The local contribution  to forces
     atom    1 type  1   force =     0.24309172    4.79649651  -14.05013430
     atom    2 type  1   force =    39.89225732    6.23058778   -0.73768206
     atom    3 type  1   force =    40.04134886   -6.38779035    0.84992278
     atom    4 type  1   force =   -39.71901113    6.20123424   -0.67492519
     atom    5 type  1   force =   -39.17382168   -7.81397844    1.67162009
     atom    6 type  2   force =     0.13928162    3.66426691   14.11021749
     atom    7 type  2   force =     1.54659766   -3.57806353  -14.53629236
     atom    8 type  3   force =    52.53977145    0.08266000    0.18170161
     atom    9 type  3   force =   -51.68505286    1.59263314    1.04131692
     atom   10 type  3   force =    36.29797798    2.00870965   23.23840121
     atom   11 type  3   force =    35.42392267    0.75544112  -22.27603542
     atom   12 type  3   force =    35.50955681   -0.74837640   22.30548608
     atom   13 type  3   force =    36.43182256   -2.21295523  -23.33841332
     atom   14 type  3   force =   -36.21898567    2.00295717   23.27394952
     atom   15 type  3   force =   -35.27136681    0.71204380  -22.34773744
     atom   16 type  3   force =   -35.36737570   -0.81047273   22.43846934
     atom   17 type  3   force =   -36.03354721   -2.55955067  -23.87448878
     atom   18 type  4   force =     0.37956515   -4.34096287   14.34917350
     atom   19 type  4   force =    35.76118317   -0.92910612   25.37139884
     atom   20 type  4   force =    35.86145364    1.07398325  -25.43816426
     atom   21 type  4   force =   -35.64898531   -0.87810828   25.48898981
     atom   22 type  4   force =   -35.51378650    1.41370305  -25.96590952
     atom   23 type  5   force =    -5.23724448   -0.25087442   -0.98541835
     The core correction contribution to forces
     atom    1 type  1   force =     0.00022769    0.00174862   -0.00076959
     atom    2 type  1   force =    -0.01141255   -0.00130417    0.00042862
     atom    3 type  1   force =    -0.01098483    0.00358303   -0.00076984
     atom    4 type  1   force =     0.01335788   -0.00362521    0.00048386
     atom    5 type  1   force =     0.00675858    0.00151964   -0.00288965
     atom    6 type  2   force =    -0.00012881    0.00209463    0.00268929
     atom    7 type  2   force =     0.00047749   -0.00310801   -0.00437956
     atom    8 type  3   force =    -0.03054696    0.00013858    0.00106028
     atom    9 type  3   force =     0.02525381   -0.00234084   -0.00058964
     atom   10 type  3   force =    -0.02271834    0.00922896   -0.01632785
     atom   11 type  3   force =    -0.02364728    0.00929029    0.01660479
     atom   12 type  3   force =    -0.02126285   -0.00972923   -0.01575989
     atom   13 type  3   force =    -0.01995862   -0.01017803    0.01579506
     atom   14 type  3   force =     0.02151221    0.00964926   -0.01597042
     atom   15 type  3   force =     0.02348745    0.00950944    0.01740804
     atom   16 type  3   force =     0.02123387   -0.00885215   -0.01622859
     atom   17 type  3   force =     0.02293856   -0.01059723    0.01229321
     atom   18 type  4   force =     0.00007693   -0.00302753    0.00290288
     atom   19 type  4   force =    -0.00978099   -0.00012536   -0.00983028
     atom   20 type  4   force =    -0.00939629    0.00068119    0.00945393
     atom   21 type  4   force =     0.00957095   -0.00032497   -0.00967998
     atom   22 type  4   force =     0.01004511    0.00087895    0.00807268
     atom   23 type  5   force =     0.00000000    0.00000000    0.00000000
     The Hubbard contrib.    to forces
     atom    1 type  1   force =     0.00000000    0.00000000    0.00000000
     atom    2 type  1   force =     0.00000000    0.00000000    0.00000000
     atom    3 type  1   force =     0.00000000    0.00000000    0.00000000
     atom    4 type  1   force =     0.00000000    0.00000000    0.00000000
     atom    5 type  1   force =     0.00000000    0.00000000    0.00000000
     atom    6 type  2   force =     0.00000000    0.00000000    0.00000000
     atom    7 type  2   force =     0.00000000    0.00000000    0.00000000
     atom    8 type  3   force =     0.00000000    0.00000000    0.00000000
     atom    9 type  3   force =     0.00000000    0.00000000    0.00000000
     atom   10 type  3   force =     0.00000000    0.00000000    0.00000000
     atom   11 type  3   force =     0.00000000    0.00000000    0.00000000
     atom   12 type  3   force =     0.00000000    0.00000000    0.00000000
     atom   13 type  3   force =     0.00000000    0.00000000    0.00000000
     atom   14 type  3   force =     0.00000000    0.00000000    0.00000000
     atom   15 type  3   force =     0.00000000    0.00000000    0.00000000
     atom   16 type  3   force =     0.00000000    0.00000000    0.00000000
     atom   17 type  3   force =     0.00000000    0.00000000    0.00000000
     atom   18 type  4   force =     0.00000000    0.00000000    0.00000000
     atom   19 type  4   force =     0.00000000    0.00000000    0.00000000
     atom   20 type  4   force =     0.00000000    0.00000000    0.00000000
     atom   21 type  4   force =     0.00000000    0.00000000    0.00000000
     atom   22 type  4   force =     0.00000000    0.00000000    0.00000000
     atom   23 type  5   force =     0.00000000    0.00000000    0.00000000
     The SCF correction term to forces
     atom    1 type  1   force =    -0.01349289    0.01022449   -0.01007405
     atom    2 type  1   force =     0.00384465    0.00449089   -0.00736476
     atom    3 type  1   force =     0.00068440   -0.00519637   -0.00761279
     atom    4 type  1   force =    -0.01080567    0.00565414   -0.01682461
     atom    5 type  1   force =    -0.00606174   -0.00386838   -0.00828725
     atom    6 type  2   force =    -0.00481944    0.01406052   -0.00788654
     atom    7 type  2   force =    -0.01896047   -0.01153922   -0.00630615
     atom    8 type  3   force =    -0.00133055    0.00040809   -0.01218761
     atom    9 type  3   force =    -0.01508698   -0.01516235   -0.02507804
     atom   10 type  3   force =     0.00041967    0.01393713    0.00540153
     atom   11 type  3   force =    -0.00822391    0.00954397   -0.00092752
     atom   12 type  3   force =     0.00043293   -0.01361211    0.00574630
     atom   13 type  3   force =    -0.00542166   -0.01129097    0.00042268
     atom   14 type  3   force =    -0.00655287    0.01495388    0.01131307
     atom   15 type  3   force =    -0.01585564    0.01712148   -0.00112429
     atom   16 type  3   force =    -0.00800622   -0.01290313    0.00698230
     atom   17 type  3   force =    -0.01557556   -0.02227487   -0.00014713
     atom   18 type  4   force =    -0.00891093   -0.01450637   -0.00944334
     atom   19 type  4   force =     0.00611072    0.00008573    0.00272921
     atom   20 type  4   force =     0.00185605    0.00105185    0.00326874
     atom   21 type  4   force =    -0.01150248   -0.00119223    0.00325516
     atom   22 type  4   force =    -0.01608889    0.00127267    0.00776124
     atom   23 type  5   force =    -0.00039176    0.00162477   -0.00022459

     Total force =     0.506058     Total SCF correction =     0.082410
     SCF correction compared to forces is large: reduce conv_thr to get better values


     Computing stress (Cartesian axis) and pressure


     negative rho (up, down):  9.090E-01 9.090E-01
          total   stress  (Ry/bohr**3)                   (kbar)     P=       85.85
   0.00060990  -0.00000370   0.00001086           89.72       -0.54        1.60
  -0.00000370   0.00072244  -0.00000679           -0.54      106.27       -1.00
   0.00001086  -0.00000679   0.00041840            1.60       -1.00       61.55


     Entering Dynamics:    iteration =     2
                           time      =   0.0004 pico-seconds


ATOMIC_POSITIONS (angstrom)
Hf            2.6700464971        2.8272685391        6.6040502966
Hf            1.2530228620        1.2864312621        5.0585519009
Hf            1.2555199781        7.3899542667        5.0881541509
Hf            4.0870695987        1.2864318143        5.0585522949
Hf            4.0845688845        7.3899608466        5.0881473119
Nb            2.6700457426        2.7970751130        3.5156717263
Nb            2.6700428446        5.8765305615        6.6350775900
Ta            1.2094073808        4.3410768556        5.0712113550
Ta            4.1306840793        4.3410753027        5.0712083950
Ta            1.3072960435        1.3142677029        2.0588581543
Ta            1.3028316898        1.3085357593        8.0946712179
Ta            1.3040536478        7.3759788335        2.0463169614
Ta            1.3077565110        7.3652354046        8.0860955318
Ta            4.0327955538        1.3142676262        2.0588583666
Ta            4.0372600869        1.3085353167        8.0946720758
Ta            4.0360383721        7.3759792752        2.0463166919
Ta            4.0323360914        7.3652376437        8.0860956992
Zr            2.6700452747        5.8664400799        3.5274672895
Zr            1.2438517379        4.3222254994        2.0000596614
Zr            1.2404042637        4.3542732876        8.1498687384
Zr            4.0962399196        4.3222252585        2.0000600285
Zr            4.0996879498        4.3542706061        8.1498695905
H             4.5722574979        5.7656447474        5.8962750327


     kinetic energy (Ekin) =           4.04808351 Ry
     temperature           =       19367.93440268 K 
     Ekin + Etot (const)   =       -2939.01330993 Ry
     Ions kinetic stress =           71.49 (kbar)
                                     14.23          46.31          26.55
                                     46.31         150.71          86.41
                                     26.55          86.41          49.54



     Linear momentum :    0.0000000000    0.0000000000    0.0000000000

     Writing config-only to output data dir outdir/pwscf.save/
     NEW-OLD atomic charge density approx. for the potential

     Check: negative core charge=   -0.000002

     negative rho (up, down):  9.090E-01 9.090E-01
     Generating pointlists ...
     new r_m :   0.0903 (alat units)  1.5931 (a.u.) for type    2
     new r_m :   0.0753 (alat units)  1.3286 (a.u.) for type    3
     new r_m :   0.0753 (alat units)  1.3286 (a.u.) for type    5

     total cpu time spent up to now is      520.9 secs

     Self-consistent Calculation

     iteration #  1     ecut=   120.00 Ry     beta= 0.70
     Davidson diagonalization with overlap
     c_bands:  1 eigenvalues not converged
     c_bands:  1 eigenvalues not converged
     ethr =  1.00E-06,  avg # of iterations = 20.0

     negative rho (up, down):  9.089E-01 9.089E-01

     total cpu time spent up to now is      556.8 secs

     total energy              =   -2943.03561883 Ry
     estimated scf accuracy    <       0.11580483 Ry

     total magnetization       =     0.02 Bohr mag/cell
     absolute magnetization    =     0.03 Bohr mag/cell

     iteration #  2     ecut=   120.00 Ry     beta= 0.70
     Davidson diagonalization with overlap
     ethr =  4.18E-05,  avg # of iterations =  2.0

     negative rho (up, down):  9.091E-01 9.091E-01

     total cpu time spent up to now is      573.9 secs

     total energy              =   -2943.04421106 Ry
     estimated scf accuracy    <       0.05304951 Ry

     total magnetization       =     0.02 Bohr mag/cell
     absolute magnetization    =     0.02 Bohr mag/cell

     iteration #  3     ecut=   120.00 Ry     beta= 0.70
     Davidson diagonalization with overlap
     ethr =  1.92E-05,  avg # of iterations =  1.0

     negative rho (up, down):  9.091E-01 9.091E-01

     total cpu time spent up to now is      589.1 secs

     total energy              =   -2943.04751873 Ry
     estimated scf accuracy    <       0.00256045 Ry

     total magnetization       =     0.02 Bohr mag/cell
     absolute magnetization    =     0.02 Bohr mag/cell

     iteration #  4     ecut=   120.00 Ry     beta= 0.70
     Davidson diagonalization with overlap
     ethr =  9.24E-07,  avg # of iterations = 11.0

     negative rho (up, down):  9.089E-01 9.090E-01

     Magnetic moment per site  (integrated on atomic sphere of radius R)
     atom   1 (R=0.078)  charge=  6.4154  magn=  0.0000
     atom   2 (R=0.078)  charge=  6.3301  magn=  0.0000
     atom   3 (R=0.078)  charge=  6.3299  magn=  0.0000
     atom   4 (R=0.078)  charge=  6.3307  magn=  0.0001
     atom   5 (R=0.078)  charge=  6.3409  magn=  0.0002
     atom   6 (R=0.090)  charge=  8.6159  magn=  0.0000
     atom   7 (R=0.090)  charge=  8.6214  magn=  0.0001
     atom   8 (R=0.075)  charge=  6.6144  magn= -0.0000
     atom   9 (R=0.075)  charge=  6.6291  magn= -0.0000
     atom  10 (R=0.075)  charge=  6.5997  magn=  0.0002
     atom  11 (R=0.075)  charge=  6.5999  magn=  0.0004
     atom  12 (R=0.075)  charge=  6.5992  magn=  0.0005
     atom  13 (R=0.075)  charge=  6.6005  magn=  0.0002
     atom  14 (R=0.075)  charge=  6.5986  magn=  0.0000
     atom  15 (R=0.075)  charge=  6.5946  magn=  0.0000
     atom  16 (R=0.075)  charge=  6.5976  magn=  0.0002
     atom  17 (R=0.075)  charge=  6.6001  magn= -0.0001
     atom  18 (R=0.111)  charge=  9.4538  magn= -0.0001
     atom  19 (R=0.111)  charge=  9.0021  magn=  0.0011
     atom  20 (R=0.111)  charge=  8.9960  magn=  0.0006
     atom  21 (R=0.111)  charge=  8.9994  magn=  0.0005
     atom  22 (R=0.111)  charge=  8.9982  magn= -0.0002
     atom  23 (R=0.075)  charge=  1.0639  magn= -0.0000

     total cpu time spent up to now is      611.7 secs

     End of self-consistent calculation

 ------ SPIN UP ------------


          k = 0.0000 0.0000 0.0000 ( 61588 PWs)   bands (ev):

   -60.7802 -60.7462 -60.7318 -60.7010 -60.6726 -60.6603 -60.6275 -60.6164
   -60.5620 -60.4050 -54.3600 -54.2975 -54.2350 -54.1736 -52.7030 -46.3951
   -46.2320 -41.6655 -41.6153 -41.5535 -41.5149 -39.7811 -27.7743 -27.7467
   -27.6855 -27.6627 -27.5908 -27.5559 -27.4361 -27.4277 -27.4035 -27.3304
   -27.2968 -27.2656 -27.2372 -27.2242 -27.1981 -27.1716 -27.1478 -27.1370
   -27.1222 -27.1031 -27.0301 -26.9992 -26.9539 -26.9322 -26.9227 -26.9049
   -26.8724 -26.8502 -26.8243 -26.8148 -24.1646 -23.9569 -23.6574 -23.5532
   -23.2898 -23.2080 -23.1440 -23.0644 -22.9100 -22.8340 -22.8280 -22.6012
   -22.5891 -22.4531 -22.4337 -22.4195 -22.2656 -22.2327 -21.7606 -21.7008
   -21.6275 -20.1781 -19.9530 -19.8172 -19.8135 -19.6915 -19.6169 -19.5960
   -19.5810 -19.5647 -19.5303 -19.3659 -19.3500 -18.1303 -17.9247 -17.7965
     0.0728   1.8386   2.9490   3.1316   3.3530   3.3682   3.5059   3.6158
     3.6695   3.8009   3.9126   4.0751   4.1413   4.5034   4.6042   4.7098
     4.7389   4.9038   5.0425   5.1187   5.2513   5.2753   5.3022   5.3919
     5.4017   5.5181   5.5678   5.6930   5.7421   5.7617   5.7790   5.8722
     6.0087   6.0725   6.1878   6.2203   6.2830   6.3348   6.3691   6.4243
     6.4560   6.5965   6.6732   6.7112   6.9042   6.9955   7.0289   7.1219
     7.1436   7.1617   7.2843   7.3077   7.3997   7.4988   7.5578   7.5854
     7.6299   7.8637   7.8999   7.9376   8.0555   8.1020   8.1226   8.1885
     8.2475   8.2859   8.3612   8.3807   8.4632   8.5494   8.6326   8.6908
     8.8581   8.9081   8.9314   9.0540   9.0871   9.2454   9.2772

 ------ SPIN DOWN ----------


          k = 0.0000 0.0000 0.0000 ( 61588 PWs)   bands (ev):

   -60.7800 -60.7459 -60.7318 -60.7006 -60.6722 -60.6599 -60.6270 -60.6160
   -60.5620 -60.4050 -54.3600 -54.2975 -54.2350 -54.1736 -52.7030 -46.3950
   -46.2320 -41.6655 -41.6147 -41.5531 -41.5142 -39.7811 -27.7740 -27.7461
   -27.6852 -27.6620 -27.5906 -27.5554 -27.4356 -27.4273 -27.4033 -27.3303
   -27.2965 -27.2655 -27.2367 -27.2240 -27.1977 -27.1712 -27.1476 -27.1366
   -27.1219 -27.1030 -27.0301 -26.9992 -26.9538 -26.9317 -26.9222 -26.9043
   -26.8719 -26.8495 -26.8237 -26.8144 -24.1646 -23.9568 -23.6573 -23.5532
   -23.2898 -23.2079 -23.1439 -23.0644 -22.9100 -22.8340 -22.8280 -22.6012
   -22.5890 -22.4530 -22.4336 -22.4194 -22.2655 -22.2326 -21.7606 -21.7008
   -21.6275 -20.1774 -19.9530 -19.8164 -19.8130 -19.6915 -19.6169 -19.5954
   -19.5804 -19.5641 -19.5299 -19.3657 -19.3491 -18.1303 -17.9247 -17.7964
     0.0728   1.8390   2.9497   3.1318   3.3532   3.3687   3.5063   3.6159
     3.6696   3.8012   3.9134   4.0755   4.1416   4.5037   4.6045   4.7103
     4.7394   4.9043   5.0430   5.1189   5.2516   5.2757   5.3024   5.3926
     5.4021   5.5184   5.5681   5.6934   5.7423   5.7622   5.7794   5.8725
     6.0090   6.0729   6.1882   6.2206   6.2833   6.3351   6.3696   6.4249
     6.4564   6.5968   6.6736   6.7118   6.9048   6.9962   7.0304   7.1239
     7.1448   7.1623   7.2860   7.3081   7.4013   7.5005   7.5586   7.5862
     7.6309   7.8642   7.9004   7.9377   8.0561   8.1030   8.1231   8.1897
     8.2486   8.2863   8.3626   8.3816   8.4639   8.5500   8.6330   8.6913
     8.8586   8.9085   8.9328   9.0547   9.0875   9.2518   9.2775

     the Fermi energy is     7.2758 ev

!    total energy              =   -2943.04708405 Ry
     estimated scf accuracy    <       0.00081127 Ry
     smearing contrib. (-TS)   =      -0.10047722 Ry
     internal energy E=F+TS    =   -2942.94660683 Ry

     total magnetization       =     0.02 Bohr mag/cell
     absolute magnetization    =     0.02 Bohr mag/cell

     convergence has been achieved in   4 iterations

     negative rho (up, down):  9.089E-01 9.090E-01

     Forces acting on atoms (cartesian axes, Ry/au):

     atom    1 type  1   force =    -0.00139795   -0.02429538   -0.00058035
     atom    2 type  1   force =    -0.11765457   -0.01134194   -0.00451501
     atom    3 type  1   force =    -0.10965981    0.00830477    0.00131988
     atom    4 type  1   force =     0.12438155   -0.00898400   -0.00509527
     atom    5 type  1   force =     0.09531779    0.03427502   -0.03955523
     atom    6 type  2   force =    -0.00056487   -0.01978538    0.01140133
     atom    7 type  2   force =    -0.01596001    0.01061938   -0.02330714
     atom    8 type  3   force =    -0.10264317    0.00357901   -0.00401898
     atom    9 type  3   force =     0.08091370   -0.06674413   -0.07082481
     atom   10 type  3   force =    -0.02247187   -0.02732440   -0.05771306
     atom   11 type  3   force =    -0.02373632   -0.03375484    0.05494343
     atom   12 type  3   force =    -0.01678962    0.03037669   -0.05098408
     atom   13 type  3   force =     0.00029480    0.03208172    0.06764915
     atom   14 type  3   force =     0.02110016   -0.02875964   -0.05337762
     atom   15 type  3   force =     0.01812056   -0.03665739    0.06366835
     atom   16 type  3   force =     0.01826194    0.03611096   -0.05063267
     atom   17 type  3   force =     0.00354785    0.04789456    0.07018640
     atom   18 type  4   force =    -0.00337445    0.02323395   -0.01180168
     atom   19 type  4   force =    -0.12475302   -0.00538197   -0.11552474
     atom   20 type  4   force =    -0.11863633    0.00650548    0.12404735
     atom   21 type  4   force =     0.12532556   -0.00635779   -0.11354355
     atom   22 type  4   force =     0.11821568   -0.00406018    0.12624810
     atom   23 type  5   force =     0.05216239    0.04046552    0.08201020
     The non-local contrib.  to forces
     atom    1 type  1   force =     0.00188010   -0.00864423    0.02516668
     atom    2 type  1   force =    -0.24825581   -0.15863939    0.01477628
     atom    3 type  1   force =    -0.23736905    0.14902223   -0.01680533
     atom    4 type  1   force =     0.24230179   -0.17974058    0.01667113
     atom    5 type  1   force =     0.21363178    0.15232228   -0.02107793
     atom    6 type  2   force =     0.00034050   -0.04083328   -0.06440110
     atom    7 type  2   force =     0.01398243    0.06482613    0.09572339
     atom    8 type  3   force =    -0.25458649    0.00821871    0.00368293
     atom    9 type  3   force =     0.21643237    0.01215165    0.00479967
     atom   10 type  3   force =    -0.21249348    0.00807851   -0.20748989
     atom   11 type  3   force =    -0.21994596    0.00748340    0.19304537
     atom   12 type  3   force =    -0.20164693   -0.02713497   -0.17635390
     atom   13 type  3   force =    -0.19524715   -0.01146615    0.20040519
     atom   14 type  3   force =     0.21289371    0.00440591   -0.20233027
     atom   15 type  3   force =     0.21995862    0.00780699    0.19092360
     atom   16 type  3   force =     0.19778755   -0.02060687   -0.17823028
     atom   17 type  3   force =     0.22856057   -0.03403927    0.16060964
     atom   18 type  4   force =    -0.00399384    0.05441493   -0.05949500
     atom   19 type  4   force =     0.06182843    0.01204109    0.07455200
     atom   20 type  4   force =     0.05454220   -0.01839461   -0.06714282
     atom   21 type  4   force =    -0.06226698    0.01594086    0.07361049
     atom   22 type  4   force =    -0.06200786   -0.01295645   -0.05230181
     atom   23 type  5   force =    -0.03649684   -0.01497480   -0.02888180
     The ionic contribution  to forces
     atom    1 type  1   force =    -0.24627457   -4.85546754   14.05377167
     atom    2 type  1   force =   -39.75816186   -6.09947386    0.73059005
     atom    3 type  1   force =   -39.90608350    6.26082992   -0.81340013
     atom    4 type  1   force =    39.60327476   -6.07020293    0.68219501
     atom    5 type  1   force =    39.14728759    7.66697983   -1.51974897
     atom    6 type  2   force =    -0.14823751   -3.67711424  -14.04297537
     atom    7 type  2   force =    -1.54486124    3.64581033   14.49087707
     atom    8 type  3   force =   -52.38544910   -0.08984035   -0.17766007
     atom    9 type  3   force =    51.43763735   -1.94936486   -1.26148769
     atom   10 type  3   force =   -36.08988292   -2.07522262  -23.08321351
     atom   11 type  3   force =   -35.19746710   -0.82411576   22.12262646
     atom   12 type  3   force =   -35.30694233    0.83584856  -22.17540094
     atom   13 type  3   force =   -36.20367865    2.27953639   23.18660821
     atom   14 type  3   force =    36.01322916   -2.07110440  -23.12594700
     atom   15 type  3   force =    35.06863073   -0.81032123   22.20352706
     atom   16 type  3   force =    35.17579415    0.90011449  -22.30957198
     atom   17 type  3   force =    35.83958756    2.64757118   23.70068223
     atom   18 type  4   force =    -0.39808842    4.35216128  -14.32096703
     atom   19 type  4   force =   -35.95343770    0.91204419  -25.56491052
     atom   20 type  4   force =   -36.03367516   -1.04642946   25.62332280
     atom   21 type  4   force =    35.83792070    0.85557728  -25.69488989
     atom   22 type  4   force =    35.71003734   -1.37983138   26.16380366
     atom   23 type  5   force =     5.33884069    0.59201518    1.13216888
     The local contribution  to forces
     atom    1 type  1   force =     0.22203639    4.84980380  -14.08885825
     atom    2 type  1   force =    39.89975823    6.25355349   -0.76010489
     atom    3 type  1   force =    40.04857240   -6.41070574    0.82303301
     atom    4 type  1   force =   -39.74977098    6.24285413   -0.72548914
     atom    5 type  1   force =   -39.29192880   -7.78721401    1.48284736
     atom    6 type  2   force =     0.13418770    3.71065770   14.10349536
     atom    7 type  2   force =     1.49743243   -3.70576082  -14.61692724
     atom    8 type  3   force =    52.56240713    0.08564845    0.15320352
     atom    9 type  3   force =   -51.60397275    1.89100575    1.17452511
     atom   10 type  3   force =    36.29549147    2.05230096   23.25846938
     atom   11 type  3   force =    35.40216252    0.78720672  -22.28076260
     atom   12 type  3   force =    35.50479577   -0.79030416   22.32462625
     atom   13 type  3   force =    36.40791313   -2.24173540  -23.33812183
     atom   14 type  3   force =   -36.23808756    2.05010461   23.30904648
     atom   15 type  3   force =   -35.32227010    0.77732496  -22.35620774
     atom   16 type  3   force =   -35.38748366   -0.85489866   22.47218606
     atom   17 type  3   force =   -36.11503423   -2.58565037  -23.81544283
     atom   18 type  4   force =     0.38908749   -4.39269893   14.35923116
     atom   19 type  4   force =    35.77747557   -0.92868790   25.38361510
     atom   20 type  4   force =    35.87007494    1.07267585  -25.43455329
     atom   21 type  4   force =   -35.67728521   -0.87758706   25.52087325
     atom   22 type  4   force =   -35.56495161    1.39520376  -25.99069156
     atom   23 type  5   force =    -5.25332823   -0.53862486   -1.02470002
     The core correction contribution to forces
     atom    1 type  1   force =     0.00043619    0.00153198   -0.00075956
     atom    2 type  1   force =    -0.01124642   -0.00129405    0.00034957
     atom    3 type  1   force =    -0.01119594    0.00366816   -0.00077955
     atom    4 type  1   force =     0.01357914   -0.00375134    0.00014189
     atom    5 type  1   force =     0.00638771    0.00197599   -0.00345998
     atom    6 type  2   force =    -0.00003320    0.00208700    0.00279439
     atom    7 type  2   force =     0.00032039   -0.00335748   -0.00443842
     atom    8 type  3   force =    -0.03046517    0.00015038    0.00116048
     atom    9 type  3   force =     0.02346335   -0.00362579   -0.00190629
     atom   10 type  3   force =    -0.02268826    0.00912647   -0.01633944
     atom   11 type  3   force =    -0.02380394    0.00935078    0.01665008
     atom   12 type  3   force =    -0.02131027   -0.00963603   -0.01560750
     atom   13 type  3   force =    -0.01978749   -0.01029346    0.01591507
     atom   14 type  3   force =     0.02169038    0.00944166   -0.01596504
     atom   15 type  3   force =     0.02380450    0.00937716    0.01765290
     atom   16 type  3   force =     0.02122431   -0.00889072   -0.01615757
     atom   17 type  3   force =     0.02342074   -0.01019868    0.01301110
     atom   18 type  4   force =     0.00019315   -0.00298647    0.00284279
     atom   19 type  4   force =    -0.00973966   -0.00011913   -0.00971831
     atom   20 type  4   force =    -0.00941745    0.00066828    0.00941214
     atom   21 type  4   force =     0.00962041   -0.00030860   -0.00960028
     atom   22 type  4   force =     0.00999416    0.00075665    0.00796890
     atom   23 type  5   force =     0.00000000    0.00000000    0.00000000
     The Hubbard contrib.    to forces
     atom    1 type  1   force =     0.00000000    0.00000000    0.00000000
     atom    2 type  1   force =     0.00000000    0.00000000    0.00000000
     atom    3 type  1   force =     0.00000000    0.00000000    0.00000000
     atom    4 type  1   force =     0.00000000    0.00000000    0.00000000
     atom    5 type  1   force =     0.00000000    0.00000000    0.00000000
     atom    6 type  2   force =     0.00000000    0.00000000    0.00000000
     atom    7 type  2   force =     0.00000000    0.00000000    0.00000000
     atom    8 type  3   force =     0.00000000    0.00000000    0.00000000
     atom    9 type  3   force =     0.00000000    0.00000000    0.00000000
     atom   10 type  3   force =     0.00000000    0.00000000    0.00000000
     atom   11 type  3   force =     0.00000000    0.00000000    0.00000000
     atom   12 type  3   force =     0.00000000    0.00000000    0.00000000
     atom   13 type  3   force =     0.00000000    0.00000000    0.00000000
     atom   14 type  3   force =     0.00000000    0.00000000    0.00000000
     atom   15 type  3   force =     0.00000000    0.00000000    0.00000000
     atom   16 type  3   force =     0.00000000    0.00000000    0.00000000
     atom   17 type  3   force =     0.00000000    0.00000000    0.00000000
     atom   18 type  4   force =     0.00000000    0.00000000    0.00000000
     atom   19 type  4   force =     0.00000000    0.00000000    0.00000000
     atom   20 type  4   force =     0.00000000    0.00000000    0.00000000
     atom   21 type  4   force =     0.00000000    0.00000000    0.00000000
     atom   22 type  4   force =     0.00000000    0.00000000    0.00000000
     atom   23 type  5   force =     0.00000000    0.00000000    0.00000000
     The SCF correction term to forces
     atom    1 type  1   force =     0.01899859   -0.01142278    0.00926437
     atom    2 type  1   force =    -0.00127406   -0.00539152    0.00903925
     atom    3 type  1   force =    -0.00510907    0.00558679    0.00843716
     atom    4 type  1   force =     0.01347148    0.00195333    0.02055111
     atom    5 type  1   force =     0.01841415    0.00030755    0.02104956
     atom    6 type  2   force =     0.01165229   -0.01448595    0.01165332
     atom    7 type  2   force =     0.01564063    0.00919783    0.01062333
     atom    8 type  3   force =     0.00392509   -0.00050157    0.01475944
     atom    9 type  3   force =     0.00582803   -0.01681428    0.01240966
     atom   10 type  3   force =     0.00557597   -0.02151111   -0.00997434
     atom   11 type  3   force =     0.01379281   -0.01358338    0.00254939
     atom   12 type  3   force =     0.00678879    0.02169990   -0.00908272
     atom   13 type  3   force =     0.00956961    0.01613694    0.00200778
     atom   14 type  3   force =     0.00984912   -0.02151081   -0.01901654
     atom   15 type  3   force =     0.02647146   -0.02074866    0.00693781
     atom   16 type  3   force =     0.00941424    0.02048932   -0.01969364
     atom   17 type  3   force =     0.02548786    0.03030831    0.01049154
     atom   18 type  4   force =     0.00790181    0.01243976    0.00575166
     atom   19 type  4   force =    -0.00240501   -0.00056362    0.00010226
     atom   20 type  4   force =    -0.00168621   -0.00191797   -0.00782621
     atom   21 type  4   force =     0.01581128    0.00011635   -0.00437185
     atom   22 type  4   force =     0.02361829   -0.00713615   -0.00336581
     atom   23 type  5   force =     0.00162142    0.00214660    0.00258842

     Total force =     0.500878     Total SCF correction =     0.108020
     SCF correction compared to forces is large: reduce conv_thr to get better values


     Computing stress (Cartesian axis) and pressure


     negative rho (up, down):  9.089E-01 9.090E-01
          total   stress  (Ry/bohr**3)                   (kbar)     P=       89.59
   0.00063646   0.00000516   0.00001470           93.63        0.76        2.16
[...]
     3.6752   3.8039   3.9209   4.0732   4.1608   4.5055   4.6115   4.7179
     4.7542   4.9167   5.0469   5.1258   5.2427   5.2785   5.3046   5.3913
     5.3984   5.5205   5.5730   5.7009   5.7480   5.7709   5.7869   5.8858
     6.0142   6.0756   6.1895   6.2262   6.2933   6.3505   6.3780   6.4321
     6.4554   6.5984   6.6779   6.7183   6.9145   7.0014   7.0347   7.1232
     7.1454   7.1672   7.2766   7.2994   7.4035   7.5056   7.5665   7.5867
     7.6327   7.8739   7.9005   7.9364   8.0585   8.1121   8.1302   8.1828
     8.2558   8.2949   8.3676   8.3878   8.4759   8.5571   8.6207   8.6918
     8.8587   8.8960   8.9317   9.0673   9.0957   9.2673   9.2833

     the Fermi energy is     7.2766 ev

!    total energy              =   -2943.03642954 Ry
     estimated scf accuracy    <       0.00022885 Ry
     smearing contrib. (-TS)   =      -0.10067339 Ry
     internal energy E=F+TS    =   -2942.93575615 Ry

     total magnetization       =     0.00 Bohr mag/cell
     absolute magnetization    =     0.00 Bohr mag/cell

     convergence has been achieved in   5 iterations

     negative rho (up, down):  9.093E-01 9.093E-01

     Forces acting on atoms (cartesian axes, Ry/au):

     atom    1 type  1   force =     0.00231963   -0.02949127    0.00632633
     atom    2 type  1   force =    -0.11844713   -0.01355687    0.00271534
     atom    3 type  1   force =    -0.11176283    0.01055737    0.00745065
     atom    4 type  1   force =     0.12705598   -0.01046770    0.00560953
     atom    5 type  1   force =     0.10650442    0.00940147   -0.01345986
     atom    6 type  2   force =    -0.00625486   -0.02242355    0.00427506
     atom    7 type  2   force =    -0.01452730    0.00614524   -0.02422112
     atom    8 type  3   force =    -0.10346587    0.00514775   -0.00126759
     atom    9 type  3   force =     0.06078345   -0.11564508   -0.10681153
     atom   10 type  3   force =    -0.02300398   -0.02881802   -0.06134141
     atom   11 type  3   force =    -0.02368514   -0.03508867    0.05301350
     atom   12 type  3   force =    -0.01810600    0.03332209   -0.05487575
     atom   13 type  3   force =     0.00120399    0.03580520    0.06552341
     atom   14 type  3   force =     0.02110004   -0.03017703   -0.05866171
     atom   15 type  3   force =     0.01834869   -0.03954652    0.06224039
     atom   16 type  3   force =     0.01751611    0.03819600   -0.05569915
     atom   17 type  3   force =     0.00390212    0.05140859    0.06846325
     atom   18 type  4   force =    -0.00276666    0.02422153   -0.01286669
     atom   19 type  4   force =    -0.12530925   -0.00539435   -0.11637780
     atom   20 type  4   force =    -0.12060338    0.00698133    0.11893560
     atom   21 type  4   force =     0.12481185   -0.00606194   -0.11729634
     atom   22 type  4   force =     0.12100004   -0.00358045    0.11997505
     atom   23 type  5   force =     0.06338608    0.11906490    0.10835083
     The non-local contrib.  to forces
     atom    1 type  1   force =     0.00598694   -0.01216946    0.02612936
     atom    2 type  1   force =    -0.24717024   -0.16118424    0.01949103
     atom    3 type  1   force =    -0.23964921    0.15106619   -0.01370872
     atom    4 type  1   force =     0.24431922   -0.17724622    0.02306665
     atom    5 type  1   force =     0.23085405    0.13083210   -0.00534928
     atom    6 type  2   force =     0.00133151   -0.03929929   -0.06023685
     atom    7 type  2   force =     0.01630830    0.07788096    0.09716262
     atom    8 type  3   force =    -0.25425056    0.00932097    0.00809979
     atom    9 type  3   force =     0.20554011   -0.00514036   -0.00443863
     atom   10 type  3   force =    -0.21353955    0.00444687   -0.21103801
     atom   11 type  3   force =    -0.21772430    0.00523075    0.19313147
     atom   12 type  3   force =    -0.20148324   -0.02458187   -0.17700721
     atom   13 type  3   force =    -0.19094576   -0.00827222    0.20046267
     atom   14 type  3   force =     0.21374128    0.00259319   -0.20469244
     atom   15 type  3   force =     0.21889042    0.00369232    0.19233369
     atom   16 type  3   force =     0.19727006   -0.01742713   -0.18057124
     atom   17 type  3   force =     0.22455008   -0.02420389    0.16850915
     atom   18 type  4   force =    -0.00375150    0.05881347   -0.05563493
     atom   19 type  4   force =     0.06225020    0.01177079    0.07417629
     atom   20 type  4   force =     0.05449474   -0.01935851   -0.06948250
     atom   21 type  4   force =    -0.06105881    0.01737303    0.07259339
     atom   22 type  4   force =    -0.05694873   -0.01358856   -0.05331578
     atom   23 type  5   force =    -0.03733824   -0.02932438   -0.03251791
     The ionic contribution  to forces
     atom    1 type  1   force =    -0.31134190   -4.82198703   14.19451713
     atom    2 type  1   force =   -39.76631856   -6.13033008    0.74632272
     atom    3 type  1   force =   -39.84112437    6.21912926   -0.79066677
     atom    4 type  1   force =    39.59757911   -6.25809428    0.72638128
     atom    5 type  1   force =    39.23478317    7.27979047   -1.31374658
     atom    6 type  2   force =    -0.33666587   -3.77063160  -14.21248943
     atom    7 type  2   force =    -1.32474938    3.66500494   14.37694948
     atom    8 type  3   force =   -52.41052121   -0.00860865   -0.13449171
     atom    9 type  3   force =    51.22308386   -1.72944241   -1.34088952
     atom   10 type  3   force =   -36.07892155   -2.07615490  -23.06304534
     atom   11 type  3   force =   -35.17684998   -0.82083535   22.09136032
     atom   12 type  3   force =   -35.28142373    0.81188324  -22.13757349
     atom   13 type  3   force =   -36.15073421    2.24407278   23.13018505
     atom   14 type  3   force =    35.98963382   -2.10868504  -23.13481734
     atom   15 type  3   force =    35.04970228   -0.82944264   22.17887223
     atom   16 type  3   force =    35.16136723    0.87009734  -22.25132502
     atom   17 type  3   force =    35.83638485    2.55907856   23.54295424
     atom   18 type  4   force =    -0.35617049    4.41525283  -14.23963033
     atom   19 type  4   force =   -35.92418292    0.93191885  -25.50487049
     atom   20 type  4   force =   -35.97099820   -1.01944545   25.53577205
     atom   21 type  4   force =    35.79712400    0.91751252  -25.71115816
     atom   22 type  4   force =    35.65521628   -1.30867541   26.05183097
     atom   23 type  5   force =     5.38512778    0.96859203    1.25955869
     The local contribution  to forces
     atom    1 type  1   force =     0.30805217    4.79892444  -14.20133855
     atom    2 type  1   force =    39.90762448    6.27900483   -0.74727722
     atom    3 type  1   force =    39.98218685   -6.36365689    0.82855442
     atom    4 type  1   force =   -39.72784448    6.42678703   -0.72728548
     atom    5 type  1   force =   -39.36570332   -7.40448084    1.32697605
     atom    6 type  2   force =     0.33019402    3.78613906   14.28345204
     atom    7 type  2   force =     1.29761079   -3.72671813  -14.47963281
     atom    8 type  3   force =    52.59158765    0.00502838    0.14018602
     atom    9 type  3   force =   -51.38901662    1.62389018    1.25748861
     atom   10 type  3   force =    36.29473165    2.03671327   23.22389190
     atom   11 type  3   force =    35.39661474    0.76759469  -22.25056355
     atom   12 type  3   force =    35.48862394   -0.74703314   22.27054711
     atom   13 type  3   force =    36.36658208   -2.18590422  -23.28324303
     atom   14 type  3   force =   -36.20468381    2.07091094   23.29118975
     atom   15 type  3   force =   -35.27115555    0.76972923  -22.32768941
     atom   16 type  3   force =   -35.36282295   -0.80943560   22.38708367
     atom   17 type  3   force =   -36.07872627   -2.46860000  -23.65755950
     atom   18 type  4   force =     0.35730807   -4.44747312   14.28923696
     atom   19 type  4   force =    35.75093504   -0.94915558   25.31958709
     atom   20 type  4   force =    35.80460218    1.04503669  -25.35828794
     atom   21 type  4   force =   -35.62313587   -0.94100445   25.52466462
     atom   22 type  4   force =   -35.48386091    1.31935100  -25.88590096
     atom   23 type  5   force =    -5.28390425   -0.81936125   -1.11599426
     The core correction contribution to forces
     atom    1 type  1   force =     0.00051169    0.00149498   -0.00123381
     atom    2 type  1   force =    -0.01124177   -0.00155792    0.00042565
     atom    3 type  1   force =    -0.01157492    0.00352468   -0.00079941
     atom    4 type  1   force =     0.01361844   -0.00335940    0.00006839
     atom    5 type  1   force =     0.00736979    0.00210486   -0.00307636
     atom    6 type  2   force =    -0.00001513    0.00203866    0.00268272
     atom    7 type  2   force =     0.00029620   -0.00406669   -0.00449608
     atom    8 type  3   force =    -0.03037894    0.00029923    0.00119995
     atom    9 type  3   force =     0.02225145   -0.00475036   -0.00323917
     atom   10 type  3   force =    -0.02262010    0.00919979   -0.01651370
     atom   11 type  3   force =    -0.02397893    0.00940405    0.01679272
     atom   12 type  3   force =    -0.02139841   -0.00969123   -0.01545644
     atom   13 type  3   force =    -0.01956592   -0.01045332    0.01571638
     atom   14 type  3   force =     0.02150107    0.00936862   -0.01600139
     atom   15 type  3   force =     0.02330906    0.00939228    0.01745428
     atom   16 type  3   force =     0.02101571   -0.00886059   -0.01617294
     atom   17 type  3   force =     0.02310840   -0.01004123    0.01350553
     atom   18 type  4   force =     0.00024042   -0.00312144    0.00271555
     atom   19 type  4   force =    -0.00973209   -0.00010350   -0.00969901
     atom   20 type  4   force =    -0.00944912    0.00070782    0.00946558
     atom   21 type  4   force =     0.00961209   -0.00037213   -0.00965510
     atom   22 type  4   force =     0.00990943    0.00077265    0.00793738
     atom   23 type  5   force =     0.00000000    0.00000000    0.00000000
     The Hubbard contrib.    to forces
     atom    1 type  1   force =     0.00000000    0.00000000    0.00000000
     atom    2 type  1   force =     0.00000000    0.00000000    0.00000000
     atom    3 type  1   force =     0.00000000    0.00000000    0.00000000
     atom    4 type  1   force =     0.00000000    0.00000000    0.00000000
     atom    5 type  1   force =     0.00000000    0.00000000    0.00000000
     atom    6 type  2   force =     0.00000000    0.00000000    0.00000000
     atom    7 type  2   force =     0.00000000    0.00000000    0.00000000
     atom    8 type  3   force =     0.00000000    0.00000000    0.00000000
     atom    9 type  3   force =     0.00000000    0.00000000    0.00000000
     atom   10 type  3   force =     0.00000000    0.00000000    0.00000000
     atom   11 type  3   force =     0.00000000    0.00000000    0.00000000
     atom   12 type  3   force =     0.00000000    0.00000000    0.00000000
     atom   13 type  3   force =     0.00000000    0.00000000    0.00000000
     atom   14 type  3   force =     0.00000000    0.00000000    0.00000000
     atom   15 type  3   force =     0.00000000    0.00000000    0.00000000
     atom   16 type  3   force =     0.00000000    0.00000000    0.00000000
     atom   17 type  3   force =     0.00000000    0.00000000    0.00000000
     atom   18 type  4   force =     0.00000000    0.00000000    0.00000000
     atom   19 type  4   force =     0.00000000    0.00000000    0.00000000
     atom   20 type  4   force =     0.00000000    0.00000000    0.00000000
     atom   21 type  4   force =     0.00000000    0.00000000    0.00000000
     atom   22 type  4   force =     0.00000000    0.00000000    0.00000000
     atom   23 type  5   force =     0.00000000    0.00000000    0.00000000
     The SCF correction term to forces
     atom    1 type  1   force =    -0.00066670    0.00417480   -0.01067079
     atom    2 type  1   force =    -0.00111849    0.00043954   -0.01516982
     atom    3 type  1   force =    -0.00137861    0.00042313   -0.01485186
     atom    4 type  1   force =    -0.00039376    0.00137417   -0.01554431
     atom    5 type  1   force =    -0.00057670    0.00108388   -0.01718668
     atom    6 type  2   force =    -0.00087684   -0.00074138   -0.00805641
     atom    7 type  2   force =    -0.00377065   -0.00602684   -0.01312732
     atom    8 type  3   force =     0.00031975   -0.00096318   -0.01518464
     atom    9 type  3   force =    -0.00085279   -0.00027313   -0.01465581
     atom   10 type  3   force =    -0.00243186   -0.00309405    0.00644074
     atom   11 type  3   force =    -0.00152411    0.00344619    0.00336955
     atom   12 type  3   force =    -0.00220201    0.00267408    0.00569128
     atom   13 type  3   force =    -0.00390963   -0.00370883    0.00347934
     atom   14 type  3   force =     0.00113025   -0.00443574    0.00673672
     atom   15 type  3   force =    -0.00217496    0.00701129    0.00234660
     atom   16 type  3   force =     0.00090862    0.00375098    0.00636338
     atom   17 type  3   force =    -0.00119237   -0.00489585    0.00213085
     atom   18 type  4   force =    -0.00017059    0.00067879   -0.00847693
     atom   19 type  4   force =    -0.00435692    0.00010409    0.00550532
     atom   20 type  4   force =     0.00096958   -0.00003022    0.00254542
     atom   21 type  4   force =     0.00249301    0.00035809    0.00733591
     atom   22 type  4   force =    -0.00309347   -0.00151114    0.00050044
     atom   23 type  5   force =    -0.00027665   -0.00091250   -0.00161869

     Total force =     0.534755     Total SCF correction =     0.049465


     Computing stress (Cartesian axis) and pressure


     negative rho (up, down):  9.093E-01 9.093E-01
          total   stress  (Ry/bohr**3)                   (kbar)     P=       88.59
   0.00062280   0.00001994   0.00001616           91.62        2.93        2.38
   0.00001994   0.00075168   0.00003571            2.93      110.58        5.25
   0.00001616   0.00003571   0.00043216            2.38        5.25       63.57


     Entering Dynamics:    iteration =    20
                           time      =   0.0041 pico-seconds


ATOMIC_POSITIONS (angstrom)
Hf            2.6705236014        2.8283242349        6.6048870979
Hf            1.2520905876        1.2876038910        5.0593062556
Hf            1.2546408282        7.3914213577        5.0889483305
Hf            4.0889745676        1.2876299282        5.0593538000
Hf            4.0861990281        7.3914453313        5.0887063372
Nb            2.6706856149        2.7982400541        3.5167549944
Nb            2.6700680766        5.8781210667        6.6355577476
Ta            1.2086402814        4.3424891876        5.0719849635
Ta            4.1240817810        4.3180476984        5.0566566421
Ta            1.3074124047        1.3152206254        2.0589506503
Ta            1.3029888097        1.3094722390        8.0960634583
Ta            1.3042517564        7.3777166499        2.0464879794
Ta            1.3081518272        7.3669603875        8.0875943162
Ta            4.0334446042        1.3152822844        2.0590029320
Ta            4.0378506126        1.3094694207        8.0961428923
Ta            4.0366302233        7.3777280658        2.0465058833
Ta            4.0328330821        7.3670346199        8.0875821758
Zr            2.6705172335        5.8683256493        3.5280646306
Zr            1.2414122121        4.3234078077        1.9982403641
Zr            1.2380513841        4.3557426881        8.1532856959
Zr            4.0995035948        4.3234374121        1.9982361884
Zr            4.1028386459        4.3555790471        8.1533674556
H             4.6267072199        5.7211001172        5.9757241404


     kinetic energy (Ekin) =           4.02305575 Ry
     temperature           =       19248.18983907 K 
     Ekin + Etot (const)   =       -2939.01337379 Ry
     Ions kinetic stress =           71.05 (kbar)
                                     18.63          49.53          33.50
                                     49.53         133.42          90.18
                                     33.50          90.18          61.11



     Linear momentum :    0.0000000000   -0.0000000000    0.0000000000

     The maximum number of steps has been reached.

     End of molecular dynamics calculation

     diffusion coefficients :
     atom     1   D =       0.00000001 cm^2/s
     atom     2   D =       0.00000001 cm^2/s
     atom     3   D =       0.00000002 cm^2/s
     atom     4   D =       0.00000003 cm^2/s
     atom     5   D =       0.00000002 cm^2/s
     atom     6   D =       0.00000001 cm^2/s
     atom     7   D =       0.00000001 cm^2/s
     atom     8   D =       0.00000002 cm^2/s
     atom     9   D =       0.00000318 cm^2/s
     atom    10   D =       0.00000001 cm^2/s
     atom    11   D =       0.00000001 cm^2/s
     atom    12   D =       0.00000002 cm^2/s
     atom    13   D =       0.00000003 cm^2/s
     atom    14   D =       0.00000001 cm^2/s
     atom    15   D =       0.00000002 cm^2/s
     atom    16   D =       0.00000002 cm^2/s
     atom    17   D =       0.00000003 cm^2/s
     atom    18   D =       0.00000002 cm^2/s
     atom    19   D =       0.00000004 cm^2/s
     atom    20   D =       0.00000008 cm^2/s
     atom    21   D =       0.00000007 cm^2/s
     atom    22   D =       0.00000010 cm^2/s
     atom    23   D =       0.00036740 cm^2/s

     < D > =       0.00001614 cm^2/s

     Writing all to output data dir outdir/pwscf.save/

     init_run     :     10.06s CPU     11.89s WALL (       1 calls)
     electrons    :   2462.06s CPU   2958.85s WALL (      20 calls)
     update_pot   :     19.87s CPU     22.45s WALL (      19 calls)
     forces       :    195.49s CPU    250.52s WALL (      20 calls)
     stress       :    321.36s CPU    357.99s WALL (      20 calls)

     Called by init_run:
     wfcinit      :      7.54s CPU      8.97s WALL (       1 calls)
     potinit      :      0.47s CPU      0.53s WALL (       1 calls)
     hinit0       :      0.95s CPU      1.05s WALL (       1 calls)

     Called by electrons:
     c_bands      :   1951.71s CPU   2359.42s WALL (     102 calls)
     sum_band     :    337.17s CPU    398.43s WALL (     102 calls)
     v_of_rho     :     10.80s CPU     12.80s WALL (     122 calls)
     newd         :    190.05s CPU    218.91s WALL (     122 calls)
     mix_rho      :      0.93s CPU      1.28s WALL (     102 calls)

     Called by c_bands:
     init_us_2    :      3.77s CPU      3.88s WALL (     490 calls)
     init_us_2:cp :      3.77s CPU      3.88s WALL (     490 calls)
     regterg      :   1937.21s CPU   2342.03s WALL (     204 calls)

     Called by *egterg:
     rdiaghg      :     70.51s CPU     88.80s WALL (    1690 calls)
     h_psi        :   1009.83s CPU   1125.14s WALL (    1730 calls)
     s_psi        :    334.99s CPU    335.64s WALL (    1730 calls)
     g_psi        :      0.73s CPU      0.79s WALL (    1524 calls)

     Called by h_psi:
     h_psi:calbec :    493.94s CPU    573.24s WALL (    1730 calls)
     vloc_psi     :    104.45s CPU    139.18s WALL (    1730 calls)
     add_vuspsi   :    410.13s CPU    411.32s WALL (    1730 calls)

     General routines
     calbec       :    827.91s CPU    994.70s WALL (    2134 calls)
     fft          :      9.30s CPU     27.66s WALL (    2529 calls)
     ffts         :      0.21s CPU      0.30s WALL (     102 calls)
     fftw         :    113.67s CPU    152.55s WALL (  107098 calls)

     Parallel routines

     PWSCF        :  50m37.65s CPU      1h 0m WALL


   This run was terminated on:  18:38:20  15Jun2023            

=------------------------------------------------------------------------------=
   JOB DONE.
=------------------------------------------------------------------------------=
