
     Program PWSCF v.7.2 starts on 11Jun2023 at 20:34:51 

     This program is part of the open-source Quantum ESPRESSO suite
     for quantum simulation of materials; please cite
         "P. Giannozzi et al., J. Phys.:Condens. Matter 21 395502 (2009);
         "P. Giannozzi et al., J. Phys.:Condens. Matter 29 465901 (2017);
         "P. Giannozzi et al., J. Chem. Phys. 152 154105 (2020);
          URL http://www.quantum-espresso.org", 
     in publications or presentations arising from this work. More details at
     http://www.quantum-espresso.org/quote

     Parallel version (MPI), running on    42 processors

     MPI processes distributed on     1 nodes
     185612 MiB available memory on the printing compute node when the environment starts

     Reading input from md_data/md_Hf5Nb2Ta10Zr5H_20steps_100eV_incident45_polar15.in
Warning: card &CELL ignored
Warning: card / ignored

     Current dimensions of program PWSCF are:
     Max number of different atomic species (ntypx) = 10
     Max number of k-points (npk) =  40000
     Max angular momentum in pseudopotentials (lmaxx) =  4

     File outdir/pwscf.md deleted, as requested

     gamma-point specific algorithms are used

     R & G space division:  proc/nbgrp/npool/nimage =      42
     Subspace diagonalization in iterative solution of the eigenvalue problem:
     one sub-group per band group will be used
     custom distributed-memory algorithm (size of sub-group:  2*  2 procs)


     Parallelization info
     --------------------
     sticks:   dense  smooth     PW     G-vecs:    dense   smooth      PW
     Min         239     239     59                21459    21459    2676
     Max         242     242     62                21470    21470    2688
     Sum       10131   10131   2529               901547   901547  112647

     Using Slab Decomposition



     bravais-lattice index     =            0
     lattice parameter (alat)  =      16.1383  a.u.
     unit-cell volume          =    5077.2634 (a.u.)^3
     number of atoms/cell      =           23
     number of atomic types    =            5
     number of electrons       =       277.00
     number of Kohn-Sham states=          167
     kinetic-energy cutoff     =     120.0000  Ry
     charge density cutoff     =     480.0000  Ry
     scf convergence threshold =      1.0E-03
     mixing beta               =       0.7000
     number of iterations used =            8  TF        mixing
     energy convergence thresh.=      0.0E+00
     force convergence thresh. =      0.0E+00
     Exchange-correlation=  SLA  PW   PBX  PBC
                           (   1   4   3   4   0   0   0)
     nstep                     =           20


     celldm(1)=  16.138261  celldm(2)=   0.000000  celldm(3)=   0.000000
     celldm(4)=   0.000000  celldm(5)=   0.000000  celldm(6)=   0.000000

     crystal axes: (cart. coord. in units of alat)
               a(1) = (   1.000000   0.000000   0.000000 )  
               a(2) = (   0.000000   1.016393   0.000000 )  
               a(3) = (   0.000000   0.000000   1.188496 )  

     reciprocal axes: (cart. coord. in units 2 pi/alat)
               b(1) = (  1.000000  0.000000  0.000000 )  
               b(2) = (  0.000000  0.983871  0.000000 )  
               b(3) = (  0.000000  0.000000  0.841400 )  


     PseudoPot. # 1 for Hf read from file:
     q-e/pseudo/hf_pbe_v1.uspp.F.UPF
     MD5 check sum: 8ee9378dfe14276e333edf04c5e4aa26
     Pseudo is Ultrasoft + core correction, Zval = 12.0
     Generated by new atomic code, or converted to UPF format
     Using radial grid of  921 points,  8 beta functions with: 
                l(1) =   0
                l(2) =   0
                l(3) =   0
                l(4) =   1
                l(5) =   1
                l(6) =   2
                l(7) =   2
                l(8) =   3
     Q(r) pseudized with  6 coefficients,  rinner =    1.200   1.200   1.200
                                                       1.200   1.200   1.200
                                                       1.200

     PseudoPot. # 2 for Nb read from file:
     q-e/pseudo/nb_pbe_v1.uspp.F.UPF
     MD5 check sum: 573aab8a2fa660278ed4a62cd769473f
     Pseudo is Ultrasoft + core correction, Zval = 13.0
     Generated by new atomic code, or converted to UPF format
     Using radial grid of  887 points,  6 beta functions with: 
                l(1) =   0
                l(2) =   0
                l(3) =   1
                l(4) =   1
                l(5) =   2
                l(6) =   2
     Q(r) pseudized with  6 coefficients,  rinner =    1.000   1.000   1.000
                                                       1.000   1.000

     PseudoPot. # 3 for Ta read from file:
     q-e/pseudo/ta_pbe_v1.uspp.F.UPF
     MD5 check sum: f8bbe9446314a3b8ea5d9f3e3836c939
     Pseudo is Ultrasoft + core correction, Zval = 13.0
     Generated by new atomic code, or converted to UPF format
     Using radial grid of  921 points,  7 beta functions with: 
                l(1) =   0
                l(2) =   0
                l(3) =   1
                l(4) =   1
                l(5) =   2
                l(6) =   2
                l(7) =   3
     Q(r) pseudized with  6 coefficients,  rinner =    1.300   1.300   1.300
                                                       1.300   1.300   1.300
                                                       1.300

     PseudoPot. # 4 for Zr read from file:
     q-e/pseudo/zr_pbe_v1.uspp.F.UPF
     MD5 check sum: 5db81b1e868ab7776c4564c113de050b
     Pseudo is Ultrasoft + core correction, Zval = 12.0
     Generated by new atomic code, or converted to UPF format
     Using radial grid of  887 points,  6 beta functions with: 
                l(1) =   0
                l(2) =   0
                l(3) =   1
                l(4) =   1
                l(5) =   2
                l(6) =   2
     Q(r) pseudized with  6 coefficients,  rinner =    1.200   1.200   1.200
                                                       1.200   1.200

     PseudoPot. # 5 for H  read from file:
     q-e/pseudo/h_pbe_v1.4.uspp.F.UPF
     MD5 check sum: 761ae9a214b05c3daf00ab9f6b793d6f
     Pseudo is Ultrasoft, Zval =  1.0
     Generated by new atomic code, or converted to UPF format
     Using radial grid of  615 points,  2 beta functions with: 
                l(1) =   0
                l(2) =   0
     Q(r) pseudized with  8 coefficients,  rinner =    0.700

     atomic species   valence    mass     pseudopotential
        Hf            12.00   178.49000     Hf( 1.00)
        Nb            13.00    92.90637     Nb( 1.00)
        Ta            13.00   180.94788     Ta( 1.00)
        Zr            12.00    91.22400     Zr( 1.00)
        H              1.00     2.01400     H ( 1.00)

     Starting magnetic structure 
     atomic species   magnetization
        Hf           0.000
        Nb           0.000
        Ta           0.000
        Zr           0.000
        H            0.000

     No symmetry found



   Cartesian axes

     site n.     atom                  positions (alat units)
         1           Hf  tau(   1) = (   0.3126464   0.3310449   0.7732979  )
         2           Hf  tau(   2) = (   0.1467202   0.1506188   0.5923263  )
         3           Hf  tau(   3) = (   0.1470125   0.8653167   0.5957925  )
         4           Hf  tau(   4) = (   0.4785725   0.1506188   0.5923263  )
         5           Hf  tau(   5) = (   0.4782802   0.8653167   0.5957925  )
         6           Nb  tau(   6) = (   0.3126464   0.3275094   0.4116608  )
         7           Nb  tau(   7) = (   0.3126464   0.6881006   0.7769319  )
         8           Ta  tau(   8) = (   0.1416128   0.5083054   0.5938087  )
         9           Ta  tau(   9) = (   0.4836800   0.5083054   0.5938087  )
        10           Ta  tau(  10) = (   0.1530741   0.1538785   0.2410748  )
        11           Ta  tau(  11) = (   0.1525513   0.1532074   0.9478430  )
        12           Ta  tau(  12) = (   0.1526943   0.8636799   0.2396062  )
        13           Ta  tau(  13) = (   0.1531277   0.8624219   0.9468387  )
        14           Ta  tau(  14) = (   0.4722187   0.1538785   0.2410748  )
        15           Ta  tau(  15) = (   0.4727414   0.1532074   0.9478430  )
        16           Ta  tau(  16) = (   0.4725984   0.8636799   0.2396062  )
        17           Ta  tau(  17) = (   0.4721650   0.8624219   0.9468387  )
        18           Zr  tau(  18) = (   0.3126464   0.6869187   0.4130426  )
        19           Zr  tau(  19) = (   0.1456481   0.5060981   0.2341920  )
        20           Zr  tau(  20) = (   0.1452442   0.5098505   0.9543040  )
        21           Zr  tau(  21) = (   0.4796447   0.5060981   0.2341920  )
        22           Zr  tau(  22) = (   0.4800486   0.5098505   0.9543040  )
        23           H   tau(  23) = (   0.6161590   0.6361616   0.6282202  )

     number of k points=     1  Gaussian smearing, width (Ry)=  0.0220
                       cart. coord. in units 2pi/alat
        k(    1) = (   0.0000000   0.0000000   0.0000000), wk =   1.0000000

     Dense  grid:   450774 G-vectors     FFT dimensions: ( 120, 120, 135)

     Estimated max dynamical RAM per process >     123.77 MB

     Estimated total dynamical RAM >       5.08 GB

     Check: negative core charge=   -0.000002
     Generating pointlists ...
     new r_m :   0.1111 (alat units)  1.7934 (a.u.) for type    1
     new r_m :   0.1201 (alat units)  1.9374 (a.u.) for type    2
     new r_m :   0.0773 (alat units)  1.2469 (a.u.) for type    3
     new r_m :   0.1216 (alat units)  1.9625 (a.u.) for type    4
     new r_m :   0.0773 (alat units)  1.2469 (a.u.) for type    5

     Initial potential from superposition of free atoms

     starting charge     266.9726, renormalised to     277.0000

     negative rho (up, down):  9.226E-01 9.226E-01
     Starting wfcs are  287 randomized atomic wfcs

     total cpu time spent up to now is       21.6 secs

     Self-consistent Calculation

     iteration #  1     ecut=   120.00 Ry     beta= 0.70
     Davidson diagonalization with overlap
     ethr =  1.00E-02,  avg # of iterations =  2.0

     negative rho (up, down):  9.850E-01 9.850E-01

     total cpu time spent up to now is       37.7 secs

     total energy              =   -2931.86408110 Ry
     estimated scf accuracy    <     287.31620737 Ry

     total magnetization       =    -0.00 Bohr mag/cell
     absolute magnetization    =     0.10 Bohr mag/cell

     iteration #  2     ecut=   120.00 Ry     beta= 0.70
     Davidson diagonalization with overlap
     ethr =  1.00E-02,  avg # of iterations =  4.5

     negative rho (up, down):  9.430E-01 9.469E-01

     total cpu time spent up to now is       54.7 secs

     total energy              =   -2942.15300041 Ry
     estimated scf accuracy    <      35.08532519 Ry

     total magnetization       =     0.19 Bohr mag/cell
     absolute magnetization    =     0.44 Bohr mag/cell

     iteration #  3     ecut=   120.00 Ry     beta= 0.70
     Davidson diagonalization with overlap
     ethr =  1.00E-02,  avg # of iterations =  2.0

     negative rho (up, down):  9.707E-01 9.777E-01

     total cpu time spent up to now is       69.9 secs

     total energy              =   -2942.69127101 Ry
     estimated scf accuracy    <      14.78650434 Ry

     total magnetization       =     0.04 Bohr mag/cell
     absolute magnetization    =     0.55 Bohr mag/cell

     iteration #  4     ecut=   120.00 Ry     beta= 0.70
     Davidson diagonalization with overlap
     ethr =  5.34E-03,  avg # of iterations =  3.5

     negative rho (up, down):  9.667E-01 9.709E-01

     total cpu time spent up to now is       84.5 secs

     total energy              =   -2942.95450026 Ry
     estimated scf accuracy    <       3.17099960 Ry

     total magnetization       =     0.08 Bohr mag/cell
     absolute magnetization    =     0.48 Bohr mag/cell

     iteration #  5     ecut=   120.00 Ry     beta= 0.70
     Davidson diagonalization with overlap
     ethr =  1.14E-03,  avg # of iterations =  8.0

     negative rho (up, down):  9.421E-01 9.441E-01

     total cpu time spent up to now is      102.8 secs

     total energy              =   -2943.07607408 Ry
     estimated scf accuracy    <       1.49773729 Ry

     total magnetization       =     0.09 Bohr mag/cell
     absolute magnetization    =     0.26 Bohr mag/cell

     iteration #  6     ecut=   120.00 Ry     beta= 0.70
     Davidson diagonalization with overlap
     ethr =  5.41E-04,  avg # of iterations =  3.0

     negative rho (up, down):  9.310E-01 9.319E-01

     total cpu time spent up to now is      116.6 secs

     total energy              =   -2943.07744615 Ry
     estimated scf accuracy    <       1.10792846 Ry

     total magnetization       =     0.06 Bohr mag/cell
     absolute magnetization    =     0.19 Bohr mag/cell

     iteration #  7     ecut=   120.00 Ry     beta= 0.70
     Davidson diagonalization with overlap
     ethr =  4.00E-04,  avg # of iterations =  2.0

     negative rho (up, down):  9.124E-01 9.125E-01

     total cpu time spent up to now is      130.3 secs

     total energy              =   -2943.05504064 Ry
     estimated scf accuracy    <       0.28309202 Ry

     total magnetization       =     0.07 Bohr mag/cell
     absolute magnetization    =     0.17 Bohr mag/cell

     iteration #  8     ecut=   120.00 Ry     beta= 0.70
     Davidson diagonalization with overlap
     ethr =  1.02E-04,  avg # of iterations = 13.0

     negative rho (up, down):  9.069E-01 9.069E-01

     total cpu time spent up to now is      147.8 secs

     total energy              =   -2943.05478444 Ry
     estimated scf accuracy    <       0.24556445 Ry

     total magnetization       =     0.07 Bohr mag/cell
     absolute magnetization    =     0.12 Bohr mag/cell

     iteration #  9     ecut=   120.00 Ry     beta= 0.70
     Davidson diagonalization with overlap
     ethr =  8.87E-05,  avg # of iterations =  2.0

     negative rho (up, down):  9.081E-01 9.081E-01

     total cpu time spent up to now is      161.5 secs

     total energy              =   -2943.06201370 Ry
     estimated scf accuracy    <       0.05635440 Ry

     total magnetization       =     0.05 Bohr mag/cell
     absolute magnetization    =     0.10 Bohr mag/cell

     iteration # 10     ecut=   120.00 Ry     beta= 0.70
     Davidson diagonalization with overlap
     ethr =  2.03E-05,  avg # of iterations =  9.5

     negative rho (up, down):  9.090E-01 9.090E-01

     total cpu time spent up to now is      177.9 secs

     total energy              =   -2943.06587923 Ry
     estimated scf accuracy    <       0.04831446 Ry

     total magnetization       =     0.05 Bohr mag/cell
     absolute magnetization    =     0.09 Bohr mag/cell

     iteration # 11     ecut=   120.00 Ry     beta= 0.70
     Davidson diagonalization with overlap
     ethr =  1.74E-05,  avg # of iterations =  2.0

     negative rho (up, down):  9.099E-01 9.099E-01

     total cpu time spent up to now is      191.5 secs

     total energy              =   -2943.06912983 Ry
     estimated scf accuracy    <       0.00701228 Ry

     total magnetization       =     0.05 Bohr mag/cell
     absolute magnetization    =     0.08 Bohr mag/cell

     iteration # 12     ecut=   120.00 Ry     beta= 0.70
     Davidson diagonalization with overlap
     ethr =  2.53E-06,  avg # of iterations = 15.0

     negative rho (up, down):  9.100E-01 9.100E-01

     total cpu time spent up to now is      212.0 secs

     total energy              =   -2943.07084077 Ry
     estimated scf accuracy    <       0.00101740 Ry

     total magnetization       =     0.05 Bohr mag/cell
     absolute magnetization    =     0.06 Bohr mag/cell

     iteration # 13     ecut=   120.00 Ry     beta= 0.70
     Davidson diagonalization with overlap
     ethr =  3.67E-07,  avg # of iterations =  3.5

     negative rho (up, down):  9.098E-01 9.098E-01

     Magnetic moment per site  (integrated on atomic sphere of radius R)
     atom   1 (R=0.111)  charge=  8.7133  magn= -0.0001
     atom   2 (R=0.111)  charge=  8.4417  magn= -0.0001
     atom   3 (R=0.111)  charge=  8.4417  magn= -0.0001
     atom   4 (R=0.111)  charge=  8.4435  magn= -0.0000
     atom   5 (R=0.111)  charge=  8.4353  magn=  0.0000
     atom   6 (R=0.120)  charge= 10.3500  magn=  0.0004
     atom   7 (R=0.120)  charge= 10.3493  magn=  0.0003
     atom   8 (R=0.077)  charge=  5.9442  magn=  0.0001
     atom   9 (R=0.077)  charge=  5.9611  magn=  0.0002
     atom  10 (R=0.077)  charge=  5.9276  magn=  0.0003
     atom  11 (R=0.077)  charge=  5.9269  magn=  0.0002
     atom  12 (R=0.077)  charge=  5.9265  magn=  0.0003
     atom  13 (R=0.077)  charge=  5.9276  magn=  0.0003
     atom  14 (R=0.077)  charge=  5.9275  magn= -0.0003
     atom  15 (R=0.077)  charge=  5.9267  magn=  0.0005
     atom  16 (R=0.077)  charge=  5.9270  magn=  0.0013
     atom  17 (R=0.077)  charge=  5.9287  magn=  0.0006
     atom  18 (R=0.122)  charge=  9.4533  magn=  0.0001
     atom  19 (R=0.122)  charge=  8.9974  magn=  0.0025
     atom  20 (R=0.122)  charge=  8.9936  magn= -0.0002
     atom  21 (R=0.122)  charge=  8.9988  magn=  0.0025
     atom  22 (R=0.122)  charge=  8.9972  magn=  0.0000
     atom  23 (R=0.077)  charge=  0.9173  magn=  0.0001

     total cpu time spent up to now is      227.6 secs

     End of self-consistent calculation

 ------ SPIN UP ------------


          k = 0.0000 0.0000 0.0000 ( 56324 PWs)   bands (ev):

   -59.7642 -59.7635 -59.7201 -59.7179 -59.6844 -59.6806 -59.6408 -59.6392
   -59.5178 -59.1632 -53.3452 -53.2869 -53.2182 -53.1548 -51.6775 -45.2491
   -45.2279 -40.6195 -40.6102 -40.5265 -40.5189 -38.7847 -26.7676 -26.7625
   -26.6812 -26.6770 -26.5830 -26.5775 -26.4585 -26.4459 -26.3462 -26.3094
   -26.2802 -26.2468 -26.2396 -26.2128 -26.1990 -26.1578 -26.1413 -26.1289
   -26.0746 -25.9459 -25.9453 -25.9430 -25.9297 -25.8828 -25.8713 -25.8621
   -25.8439 -25.8415 -25.8314 -25.8187 -23.1305 -22.9099 -22.6249 -22.5239
   -22.2717 -22.1399 -22.1219 -22.0148 -21.8914 -21.8158 -21.7919 -21.5670
   -21.4858 -21.4301 -21.3699 -21.3247 -21.2441 -21.1962 -20.7347 -20.6645
   -20.6082 -19.1831 -18.9097 -18.8220 -18.8193 -18.5927 -18.5858 -18.5809
   -18.5694 -18.5525 -18.5169 -18.3504 -18.3395 -17.1305 -16.9277 -16.8022
     2.2579   3.3604   3.9438   4.1678   4.3429   4.4980   4.5527   4.6957
     4.7308   4.8715   4.9467   5.0950   5.2130   5.5249   5.6497   5.7113
     5.7900   5.8275   6.0554   6.1145   6.1963   6.2896   6.3042   6.3700
     6.4053   6.5707   6.6631   6.7295   6.7578   6.7733   6.7915   6.8507
     6.9885   7.0937   7.1929   7.2594   7.2834   7.3175   7.3860   7.3916
     7.4118   7.6202   7.7024   7.7531   7.9245   7.9769   8.0011   8.1165
     8.1457   8.2126   8.2931   8.3163   8.3250   8.4596   8.5435   8.5650
     8.6315   8.8163   8.8948   8.9606   9.0923   9.0983   9.2682   9.3188
     9.3228   9.3615   9.3832   9.4192   9.4660   9.6352   9.6922   9.7169
     9.9236   9.9844  10.0853  10.1291  10.1620  10.2647  10.2969

 ------ SPIN DOWN ----------


          k = 0.0000 0.0000 0.0000 ( 56324 PWs)   bands (ev):

   -59.7639 -59.7628 -59.7195 -59.7170 -59.6836 -59.6799 -59.6400 -59.6385
   -59.5176 -59.1627 -53.3452 -53.2869 -53.2183 -53.1548 -51.6776 -45.2488
   -45.2274 -40.6173 -40.6104 -40.5267 -40.5167 -38.7846 -26.7666 -26.7616
   -26.6804 -26.6758 -26.5822 -26.5770 -26.4575 -26.4443 -26.3457 -26.3088
   -26.2797 -26.2460 -26.2386 -26.2120 -26.1982 -26.1574 -26.1402 -26.1280
   -26.0743 -25.9450 -25.9446 -25.9421 -25.9288 -25.8816 -25.8703 -25.8613
   -25.8428 -25.8406 -25.8309 -25.8180 -23.1305 -22.9100 -22.6248 -22.5240
   -22.2717 -22.1398 -22.1219 -22.0147 -21.8914 -21.8159 -21.7920 -21.5671
   -21.4855 -21.4298 -21.3696 -21.3244 -21.2438 -21.1959 -20.7347 -20.6647
   -20.6083 -19.1806 -18.9103 -18.8205 -18.8165 -18.5926 -18.5841 -18.5806
   -18.5681 -18.5519 -18.5168 -18.3470 -18.3396 -17.1304 -16.9274 -16.8016
     2.2586   3.3611   3.9451   4.1684   4.3435   4.4994   4.5536   4.6964
     4.7312   4.8722   4.9482   5.0958   5.2140   5.5257   5.6505   5.7126
     5.7909   5.8284   6.0569   6.1154   6.1974   6.2905   6.3054   6.3713
     6.4066   6.5716   6.6639   6.7306   6.7591   6.7743   6.7921   6.8516
     6.9892   7.0953   7.1937   7.2603   7.2843   7.3184   7.3880   7.3925
     7.4127   7.6210   7.7032   7.7540   7.9255   7.9781   8.0035   8.1202
     8.1477   8.2161   8.2991   8.3187   8.3261   8.4628   8.5458   8.5680
     8.6333   8.8180   8.8961   8.9620   9.0937   9.1004   9.2698   9.3206
     9.3245   9.3633   9.3846   9.4205   9.4675   9.6374   9.6935   9.7182
     9.9246   9.9865  10.0875  10.1297  10.1629  10.2654  10.2976

     the Fermi energy is     8.2696 ev

!    total energy              =   -2943.07135021 Ry
     estimated scf accuracy    <       0.00023704 Ry
     smearing contrib. (-TS)   =      -0.10501330 Ry
     internal energy E=F+TS    =   -2942.96633690 Ry

     total magnetization       =     0.05 Bohr mag/cell
     absolute magnetization    =     0.06 Bohr mag/cell

     convergence has been achieved in  13 iterations

     negative rho (up, down):  9.098E-01 9.098E-01

     Forces acting on atoms (cartesian axes, Ry/au):

     atom    1 type  1   force =    -0.00355688   -0.02479375    0.01136468
     atom    2 type  1   force =    -0.12106330   -0.01910993   -0.00256266
     atom    3 type  1   force =    -0.12171422    0.01505408    0.00527341
     atom    4 type  1   force =     0.12949737   -0.00968266   -0.00341893
     atom    5 type  1   force =     0.13340908   -0.02100753    0.00834667
     atom    6 type  2   force =    -0.00865169   -0.02034952    0.00439043
     atom    7 type  2   force =    -0.01834093    0.01093168   -0.00883585
     atom    8 type  3   force =    -0.11795933    0.00605758   -0.00202900
     atom    9 type  3   force =     0.03732362   -0.08251753   -0.03561167
     atom   10 type  3   force =    -0.02340437   -0.02605511   -0.05944697
     atom   11 type  3   force =    -0.02415598   -0.03322987    0.05607956
     atom   12 type  3   force =    -0.01803404    0.03320628   -0.05582163
     atom   13 type  3   force =    -0.01441182    0.02924682    0.06129089
     atom   14 type  3   force =     0.02095206   -0.02951959   -0.06123394
     atom   15 type  3   force =     0.01965979   -0.03760142    0.05937763
     atom   16 type  3   force =     0.01984494    0.03898424   -0.05499591
     atom   17 type  3   force =     0.01423328    0.03743202    0.06210702
     atom   18 type  4   force =    -0.00452325    0.02095479   -0.00909080
     atom   19 type  4   force =    -0.13487826   -0.00651412   -0.11593306
     atom   20 type  4   force =    -0.13700440    0.00451589    0.11654146
     atom   21 type  4   force =     0.12891124   -0.00894702   -0.11573666
     atom   22 type  4   force =     0.13329102    0.00264599    0.11776732
     atom   23 type  5   force =     0.11057607    0.12029868    0.02217801
     The non-local contrib.  to forces
     atom    1 type  1   force =     0.00449136   -0.00535459    0.02740923
     atom    2 type  1   force =    -0.24902482   -0.16265326    0.01554285
     atom    3 type  1   force =    -0.24020508    0.15426685   -0.02297199
     atom    4 type  1   force =     0.24768557   -0.17231361    0.01773407
     atom    5 type  1   force =     0.23173166    0.14945935   -0.01943366
     atom    6 type  2   force =     0.00953682   -0.06032335   -0.07341361
     atom    7 type  2   force =    -0.01439532    0.07376829    0.06351869
     atom    8 type  3   force =    -0.25369053    0.00234756   -0.00236234
     atom    9 type  3   force =     0.09439411   -0.11211862   -0.02872074
     atom   10 type  3   force =    -0.22363279    0.00391263   -0.21659131
     atom   11 type  3   force =    -0.22717484    0.00778215    0.20379510
     atom   12 type  3   force =    -0.21168056   -0.02449404   -0.18141075
     atom   13 type  3   force =    -0.21679120   -0.00689276    0.20893709
     atom   14 type  3   force =     0.21451771    0.00392822   -0.22034563
     atom   15 type  3   force =     0.22021139    0.00545128    0.20661016
     atom   16 type  3   force =     0.21679261   -0.02446455   -0.18081060
     atom   17 type  3   force =     0.23305321   -0.01416961    0.20274287
     atom   18 type  4   force =    -0.01324703    0.06706682   -0.05857521
     atom   19 type  4   force =     0.06745849    0.00742786    0.07213669
     atom   20 type  4   force =     0.06275397   -0.01415934   -0.06589022
     atom   21 type  4   force =    -0.06572343    0.00909588    0.06571637
     atom   22 type  4   force =    -0.05885214   -0.00907054   -0.05262612
     atom   23 type  5   force =    -0.06040820   -0.04076513   -0.01776437
     The ionic contribution  to forces
     atom    1 type  1   force =    -0.20240717   -4.78223716   14.30776720
     atom    2 type  1   force =   -35.67725226   -6.14385149    0.76046690
     atom    3 type  1   force =   -35.69167310    6.25735202   -0.74231127
     atom    4 type  1   force =    35.54757999   -6.18137229    0.74430750
     atom    5 type  1   force =    35.03164672    7.10073140   -0.86403764
     atom    6 type  2   force =    -0.17157364   -3.70647041  -14.26046872
     atom    7 type  2   force =    -0.60528310    3.68172523   14.47057769
     atom    8 type  3   force =   -47.63706273   -0.04864204   -0.10530900
     atom    9 type  3   force =    45.60971637   -1.81927058   -0.58360169
     atom   10 type  3   force =   -32.19885413   -2.09353112  -23.48844153
     atom   11 type  3   force =   -31.27116444   -0.84481126   22.50433098
     atom   12 type  3   force =   -31.39248709    0.84905323  -22.57839555
     atom   13 type  3   force =   -32.19382942    2.25528131   23.53321415
     atom   14 type  3   force =    32.13467191   -2.10365480  -23.53835518
     atom   15 type  3   force =    31.19120297   -0.85985132   22.56668065
     atom   16 type  3   force =    31.26538930    0.93778736  -22.72979130
     atom   17 type  3   force =    32.00112943    2.41252317   23.76205253
     atom   18 type  4   force =    -0.39909289    4.41810296  -14.38107857
     atom   19 type  4   force =   -32.18638683    0.91490429  -25.97638182
     atom   20 type  4   force =   -32.16893447   -1.01334023   25.98273110
     atom   21 type  4   force =    32.04574073    0.84463907  -26.18139868
     atom   22 type  4   force =    31.94051449   -1.14410605   26.32094810
     atom   23 type  5   force =     5.02840936    1.06903868    0.47649417
     The local contribution  to forces
     atom    1 type  1   force =     0.19461845    4.75715626  -14.32528782
     atom    2 type  1   force =    35.81510348    6.28473771   -0.77919992
     atom    3 type  1   force =    35.82215039   -6.39446649    0.77661420
     atom    4 type  1   force =   -35.67621707    6.34416715   -0.76646178
     atom    5 type  1   force =   -35.13462282   -7.27498280    0.89855755
     atom    6 type  2   force =     0.15390952    3.74477737   14.33350438
     atom    7 type  2   force =     0.60096142   -3.73602237  -14.54131539
     atom    8 type  3   force =    47.79499027    0.04975122    0.10391320
     atom    9 type  3   force =   -45.66759474    1.86180995    0.57760293
     atom   10 type  3   force =    32.41750659    2.06100993   23.66646801
     atom   11 type  3   force =    31.49766604    0.78967429  -22.67462652
     atom   12 type  3   force =    31.60292455   -0.77919513   22.71909070
     atom   13 type  3   force =    32.41939425   -2.20837651  -23.70031341
     atom   14 type  3   force =   -32.34756044    2.06725418   23.71873805
     atom   15 type  3   force =   -31.41447725    0.80167586  -22.73629916
     atom   16 type  3   force =   -31.48071349   -0.86313535   22.87103634
     atom   17 type  3   force =   -32.24423383   -2.35036346  -23.92196934
     atom   18 type  4   force =     0.40863353   -4.46673393   14.43174836
     atom   19 type  4   force =    31.98961003   -0.93433622   25.79932205
     atom   20 type  4   force =    31.97317857    1.03389905  -25.81020618
     atom   21 type  4   force =   -31.85651835   -0.86727345   26.01270394
     atom   22 type  4   force =   -31.75208891    1.15769972  -26.16106097
     atom   23 type  5   force =    -4.85654484   -0.90845459   -0.43665985
     The core correction contribution to forces
     atom    1 type  1   force =     0.00004749    0.00300273   -0.00224468
     atom    2 type  1   force =    -0.01053053   -0.00107007    0.00076650
     atom    3 type  1   force =    -0.01147287    0.00290570   -0.00147841
     atom    4 type  1   force =     0.01115666   -0.00275598    0.00168656
     atom    5 type  1   force =     0.00441938    0.00758579   -0.00217727
     atom    6 type  2   force =    -0.00031741    0.00305476    0.00329443
     atom    7 type  2   force =     0.00064841   -0.00363734   -0.00248816
     atom    8 type  3   force =    -0.02947687    0.00099526   -0.00024679
     atom    9 type  3   force =     0.00934739   -0.01464582   -0.00384377
     atom   10 type  3   force =    -0.02314521    0.00837086   -0.01719436
     atom   11 type  3   force =    -0.02552080    0.00889370    0.01826157
     atom   12 type  3   force =    -0.02250030   -0.00992411   -0.01507483
     atom   13 type  3   force =    -0.02310314   -0.00898122    0.01612832
     atom   14 type  3   force =     0.02242757    0.00879462   -0.01715095
     atom   15 type  3   force =     0.02379974    0.00965871    0.01729294
     atom   16 type  3   force =     0.02364931   -0.01061733   -0.01426440
     atom   17 type  3   force =     0.02379599   -0.00880454    0.01488067
     atom   18 type  4   force =     0.00070778   -0.00362013    0.00283412
     atom   19 type  4   force =    -0.01010771    0.00011766   -0.00956055
     atom   20 type  4   force =    -0.00998771    0.00038887    0.00930500
     atom   21 type  4   force =     0.01003966    0.00009316   -0.00909438
     atom   22 type  4   force =     0.00994695    0.00027175    0.00823580
     atom   23 type  5   force =     0.00000000    0.00000000    0.00000000
     The Hubbard contrib.    to forces
     atom    1 type  1   force =     0.00000000    0.00000000    0.00000000
     atom    2 type  1   force =     0.00000000    0.00000000    0.00000000
     atom    3 type  1   force =     0.00000000    0.00000000    0.00000000
     atom    4 type  1   force =     0.00000000    0.00000000    0.00000000
     atom    5 type  1   force =     0.00000000    0.00000000    0.00000000
     atom    6 type  2   force =     0.00000000    0.00000000    0.00000000
     atom    7 type  2   force =     0.00000000    0.00000000    0.00000000
     atom    8 type  3   force =     0.00000000    0.00000000    0.00000000
     atom    9 type  3   force =     0.00000000    0.00000000    0.00000000
     atom   10 type  3   force =     0.00000000    0.00000000    0.00000000
     atom   11 type  3   force =     0.00000000    0.00000000    0.00000000
     atom   12 type  3   force =     0.00000000    0.00000000    0.00000000
     atom   13 type  3   force =     0.00000000    0.00000000    0.00000000
     atom   14 type  3   force =     0.00000000    0.00000000    0.00000000
     atom   15 type  3   force =     0.00000000    0.00000000    0.00000000
     atom   16 type  3   force =     0.00000000    0.00000000    0.00000000
     atom   17 type  3   force =     0.00000000    0.00000000    0.00000000
     atom   18 type  4   force =     0.00000000    0.00000000    0.00000000
     atom   19 type  4   force =     0.00000000    0.00000000    0.00000000
     atom   20 type  4   force =     0.00000000    0.00000000    0.00000000
     atom   21 type  4   force =     0.00000000    0.00000000    0.00000000
     atom   22 type  4   force =     0.00000000    0.00000000    0.00000000
     atom   23 type  5   force =     0.00000000    0.00000000    0.00000000
     The SCF correction term to forces
     atom    1 type  1   force =    -0.00000000    0.00000000    0.00000000
     atom    2 type  1   force =     0.00000000    0.00000000   -0.00000000
     atom    3 type  1   force =    -0.00000000   -0.00000000   -0.00000000
     atom    4 type  1   force =    -0.00000000    0.00000000   -0.00000000
     atom    5 type  1   force =     0.00000000   -0.00000000   -0.00000000
     atom    6 type  2   force =    -0.00000000   -0.00000000    0.00000000
     atom    7 type  2   force =    -0.00000000   -0.00000000    0.00000000
     atom    8 type  3   force =     0.00000000    0.00000000    0.00000000
     atom    9 type  3   force =    -0.00000000    0.00000000    0.00000000
     atom   10 type  3   force =     0.00474701   -0.00585034   -0.00366618
     atom   11 type  3   force =     0.00206392    0.00519831    0.00434001
     atom   12 type  3   force =     0.00573522   -0.00226661   -0.00000961
     atom   13 type  3   force =    -0.00005646   -0.00181695    0.00334632
     atom   14 type  3   force =    -0.00307884   -0.00587476   -0.00409865
     atom   15 type  3   force =    -0.00105119    0.00543110    0.00511464
     atom   16 type  3   force =    -0.00524694   -0.00061884   -0.00114436
     atom   17 type  3   force =     0.00051433   -0.00178647    0.00442188
     atom   18 type  4   force =    -0.00149878    0.00610612   -0.00399790
     atom   19 type  4   force =     0.00457361    0.00533935   -0.00142784
     atom   20 type  4   force =     0.00601109   -0.00230541    0.00062335
     atom   21 type  4   force =    -0.00460151    0.00446538   -0.00364232
     atom   22 type  4   force =    -0.00620352   -0.00218183    0.00229210
     atom   23 type  5   force =    -0.00085440    0.00044678    0.00012964

     Total force =     0.439612     Total SCF correction =     0.024398


     Computing stress (Cartesian axis) and pressure


     negative rho (up, down):  9.098E-01 9.098E-01
          total   stress  (Ry/bohr**3)                   (kbar)     P=       94.17
   0.00070874   0.00005351   0.00000693          104.26        7.87        1.02
   0.00005351   0.00076867   0.00000251            7.87      113.08        0.37
   0.00000693   0.00000251   0.00044309            1.02        0.37       65.18


     Molecular Dynamics Calculation

     Starting temperature  =   300.00 K

     temperature is set once at start

     mass Hf               =   178.49
     mass Nb               =    92.91
     mass Ta               =   180.95
     mass Zr               =    91.22
     mass H                =     2.01
     Time step             =     4.20 a.u.,  0.2032 femto-seconds

     Entering Dynamics:    iteration =     1
                           time      =   0.0002 pico-seconds


ATOMIC_POSITIONS (angstrom)
Hf            2.6699999570        2.8271230292        6.6039642186    0   0   0
Hf            1.2529906802        1.2862841814        5.0584662261    0   0   0
Hf            1.2554868986        7.3898042948        5.0880677674    0   0   0
Hf            4.0870092338        1.2862841814        5.0584662261    0   0   0
Hf            4.0845130154        7.3898042948        5.0880677674    0   0   0
Nb            2.6699999570        2.7969306055        3.5155832167    0   0   0
Nb            2.6699999570        5.8763786763        6.6349979432    0   0   0
Ta            1.2093730560        4.3409278516        5.0711258323    0   0   0
Ta            4.1306268580        4.3409278516        5.0711258323    0   0   0
Ta            1.3072520218        1.3141218520        2.0587774278
Ta            1.3027876306        1.3083901956        8.0945807895
Ta            1.3040091117        7.3758270638        2.0462356000
Ta            1.3077103905        7.3650837761        8.0860039553
Ta            4.0327478228        1.3141217540        2.0587773772
Ta            4.0372121562        1.3083900719        8.0945808828
Ta            4.0359908535        7.3758272274        2.0462356234
Ta            4.0322895184        7.3650840077        8.0860039784
Zr            2.6699997031        5.8662870197        3.5273834201
Zr            1.2438270477        4.3220775988        1.9999934921
Zr            1.2403777220        4.3541235380        8.1497620913
Zr            4.0961725314        4.3220774623        1.9999935032
Zr            4.0996219835        4.3541234330        8.1497621601
H             5.1919575588        5.3652051927        5.3468538702


     kinetic energy (Ekin) =           1.83755714 Ry
     temperature           =       13815.58692302 K 
     Ekin + Etot (const)   =       -2941.23379307 Ry
     Ions kinetic stress =           35.49 (kbar)
                                     53.24          51.43          13.78
                                     51.43          49.67          13.31
                                     13.78          13.31           3.57



     File outdir/pwscf.msd.dat deleted, as requested

     Writing config-only to output data dir outdir/pwscf.save/
     NEW-OLD atomic charge density approx. for the potential

     Check: negative core charge=   -0.000002

     negative rho (up, down):  9.098E-01 9.098E-01
     Generating pointlists ...
     new r_m :   0.0725 (alat units)  1.1697 (a.u.) for type    3
     new r_m :   0.0725 (alat units)  1.1697 (a.u.) for type    5

     total cpu time spent up to now is      250.3 secs

     Self-consistent Calculation

     iteration #  1     ecut=   120.00 Ry     beta= 0.70
     Davidson diagonalization with overlap
     ethr =  1.00E-06,  avg # of iterations =  6.5

     negative rho (up, down):  9.099E-01 9.099E-01

     total cpu time spent up to now is      273.2 secs

     total energy              =   -2943.03055010 Ry
     estimated scf accuracy    <       0.01020338 Ry

     total magnetization       =     0.04 Bohr mag/cell
     absolute magnetization    =     0.05 Bohr mag/cell

     iteration #  2     ecut=   120.00 Ry     beta= 0.70
     Davidson diagonalization with overlap
     ethr =  3.68E-06,  avg # of iterations =  2.0

     negative rho (up, down):  9.098E-01 9.098E-01

     total cpu time spent up to now is      288.0 secs

     total energy              =   -2943.03165124 Ry
     estimated scf accuracy    <       0.00241873 Ry

     total magnetization       =     0.04 Bohr mag/cell
     absolute magnetization    =     0.05 Bohr mag/cell

     iteration #  3     ecut=   120.00 Ry     beta= 0.70
     Davidson diagonalization with overlap
     ethr =  8.73E-07,  avg # of iterations =  2.0

     negative rho (up, down):  9.097E-01 9.097E-01

     Magnetic moment per site  (integrated on atomic sphere of radius R)
     atom   1 (R=0.111)  charge=  8.7143  magn= -0.0001
     atom   2 (R=0.111)  charge=  8.4413  magn=  0.0000
     atom   3 (R=0.111)  charge=  8.4419  magn=  0.0001
     atom   4 (R=0.111)  charge=  8.4445  magn=  0.0000
     atom   5 (R=0.111)  charge=  8.4352  magn=  0.0002
     atom   6 (R=0.120)  charge= 10.3511  magn=  0.0001
     atom   7 (R=0.120)  charge= 10.3495  magn=  0.0002
     atom   8 (R=0.072)  charge=  5.2357  magn=  0.0000
     atom   9 (R=0.072)  charge=  5.2539  magn=  0.0000
     atom  10 (R=0.072)  charge=  5.2218  magn=  0.0002
     atom  11 (R=0.072)  charge=  5.2191  magn=  0.0002
     atom  12 (R=0.072)  charge=  5.2216  magn=  0.0003
     atom  13 (R=0.072)  charge=  5.2203  magn=  0.0002
     atom  14 (R=0.072)  charge=  5.2214  magn= -0.0000
     atom  15 (R=0.072)  charge=  5.2189  magn=  0.0003
     atom  16 (R=0.072)  charge=  5.2220  magn=  0.0009
     atom  17 (R=0.072)  charge=  5.2206  magn=  0.0005
     atom  18 (R=0.122)  charge=  9.4552  magn= -0.0000
     atom  19 (R=0.122)  charge=  8.9972  magn=  0.0020
     atom  20 (R=0.122)  charge=  8.9945  magn=  0.0000
     atom  21 (R=0.122)  charge=  8.9996  magn=  0.0023
     atom  22 (R=0.122)  charge=  8.9984  magn=  0.0005
     atom  23 (R=0.072)  charge=  0.8925  magn=  0.0000

     total cpu time spent up to now is      301.8 secs

     End of self-consistent calculation

 ------ SPIN UP ------------


          k = 0.0000 0.0000 0.0000 ( 56324 PWs)   bands (ev):

   -59.7708 -59.7578 -59.7268 -59.7131 -59.6947 -59.6763 -59.6510 -59.6355
   -59.5219 -59.0725 -53.3589 -53.3081 -53.2306 -53.1697 -51.6857 -45.2504
   -45.2372 -40.6267 -40.6169 -40.5331 -40.5261 -38.7931 -26.7746 -26.7627
   -26.6911 -26.6744 -26.5858 -26.5759 -26.4611 -26.4532 -26.3466 -26.3118
   -26.2798 -26.2535 -26.2368 -26.2184 -26.2008 -26.1621 -26.1491 -26.1288
   -26.0780 -25.9522 -25.9415 -25.9401 -25.9370 -25.8816 -25.8752 -25.8583
   -25.8478 -25.8340 -25.7813 -25.7511 -23.1429 -22.9240 -22.6366 -22.5386
   -22.2837 -22.1524 -22.1347 -22.0263 -21.9035 -21.8323 -21.8049 -21.5829
   -21.4906 -21.4374 -21.3782 -21.3322 -21.2538 -21.2051 -20.7436 -20.6727
   -20.6163 -19.1899 -18.9182 -18.8294 -18.8259 -18.5990 -18.5928 -18.5873
   -18.5763 -18.5594 -18.5231 -18.3569 -18.3471 -17.1396 -16.9359 -16.8105
     2.2089   3.2825   3.9364   4.1628   4.3355   4.4968   4.5467   4.6931
     4.7312   4.8679   4.9402   5.0920   5.2122   5.5154   5.6408   5.7046
     5.7876   5.8179   6.0493   6.1035   6.1870   6.2842   6.2978   6.3610
     6.3944   6.5634   6.6675   6.7246   6.7530   6.7675   6.7922   6.8497
     6.9862   7.0933   7.1900   7.2564   7.2770   7.3230   7.3806   7.3847
     7.3992   7.6177   7.6998   7.7522   7.9225   7.9718   7.9965   8.1116
     8.1363   8.2064   8.2786   8.3099   8.3205   8.4541   8.5385   8.5569
     8.6265   8.8123   8.8875   8.9572   9.0865   9.0934   9.2615   9.3158
     9.3223   9.3559   9.3794   9.4224   9.4647   9.6301   9.6865   9.7137
     9.9210   9.9841  10.0783  10.1232  10.1556  10.2652  10.2905

 ------ SPIN DOWN ----------


          k = 0.0000 0.0000 0.0000 ( 56324 PWs)   bands (ev):

   -59.7702 -59.7572 -59.7260 -59.7124 -59.6939 -59.6756 -59.6501 -59.6348
   -59.5218 -59.0723 -53.3589 -53.3081 -53.2306 -53.1697 -51.6858 -45.2502
   -45.2370 -40.6248 -40.6167 -40.5330 -40.5242 -38.7931 -26.7737 -26.7617
   -26.6902 -26.6734 -26.5850 -26.5748 -26.4598 -26.4521 -26.3463 -26.3111
   -26.2793 -26.2525 -26.2360 -26.2177 -26.2000 -26.1617 -26.1482 -26.1281
   -26.0778 -25.9514 -25.9406 -25.9391 -25.9360 -25.8806 -25.8742 -25.8573
   -25.8469 -25.8334 -25.7811 -25.7509 -23.1428 -22.9239 -22.6364 -22.5386
   -22.2836 -22.1522 -22.1346 -22.0262 -21.9034 -21.8323 -21.8048 -21.5829
   -21.4905 -21.4373 -21.3780 -21.3321 -21.2536 -21.2049 -20.7436 -20.6728
   -20.6163 -19.1879 -18.9183 -18.8277 -18.8237 -18.5984 -18.5911 -18.5868
   -18.5751 -18.5586 -18.5227 -18.3541 -18.3469 -17.1395 -16.9358 -16.8103
     2.2095   3.2831   3.9377   4.1633   4.3361   4.4982   4.5474   4.6937
     4.7316   4.8684   4.9416   5.0927   5.2132   5.5161   5.6415   5.7058
     5.7885   5.8187   6.0507   6.1044   6.1880   6.2852   6.2988   6.3623
     6.3957   6.5642   6.6683   6.7256   6.7542   6.7684   6.7927   6.8504
     6.9868   7.0949   7.1908   7.2572   7.2779   7.3239   7.3825   7.3856
     7.4001   7.6185   7.7006   7.7531   7.9235   7.9732   7.9986   8.1152
     8.1384   8.2098   8.2839   8.3122   8.3216   8.4573   8.5406   8.5598
     8.6283   8.8139   8.8887   8.9584   9.0879   9.0957   9.2632   9.3177
     9.3238   9.3577   9.3810   9.4237   9.4661   9.6322   9.6878   9.7150
     9.9221   9.9862  10.0805  10.1242  10.1565  10.2658  10.2913

     the Fermi energy is     8.2627 ev

!    total energy              =   -2943.03156222 Ry
     estimated scf accuracy    <       0.00042234 Ry
     smearing contrib. (-TS)   =      -0.10521847 Ry
     internal energy E=F+TS    =   -2942.92634375 Ry

     total magnetization       =     0.04 Bohr mag/cell
     absolute magnetization    =     0.05 Bohr mag/cell

     convergence has been achieved in   3 iterations

     negative rho (up, down):  9.097E-01 9.097E-01

     Forces acting on atoms (cartesian axes, Ry/au):

     atom    1 type  1   force =    -0.00534245   -0.02540229    0.01537172
     atom    2 type  1   force =    -0.11804724   -0.01923593   -0.00549165
     atom    3 type  1   force =    -0.11859768    0.01379039   -0.00069395
     atom    4 type  1   force =     0.12832653   -0.01482396   -0.00677179
     atom    5 type  1   force =     0.12702971   -0.01836081    0.00156023
     atom    6 type  2   force =    -0.00827005   -0.02165494    0.00404600
     atom    7 type  2   force =    -0.01795183    0.01111605   -0.00754183
     atom    8 type  3   force =    -0.11834886    0.00727433   -0.00101780
     atom    9 type  3   force =    -0.03339023   -0.14888385   -0.05357432
     atom   10 type  3   force =    -0.02056438   -0.02800854   -0.05977869
     atom   11 type  3   force =    -0.02318943   -0.03148914    0.05899683
     atom   12 type  3   force =    -0.01411931    0.03322822   -0.05520617
     atom   13 type  3   force =    -0.01456162    0.02753278    0.06408666
     atom   14 type  3   force =     0.01849671   -0.03235947   -0.06165729
     atom   15 type  3   force =     0.01897941   -0.03585365    0.06263360
     atom   16 type  3   force =     0.01646109    0.03893641   -0.05430849
     atom   17 type  3   force =     0.01501396    0.03544012    0.06514193
     atom   18 type  4   force =    -0.00442909    0.02602667   -0.01227799
     atom   19 type  4   force =    -0.13250350   -0.00490411   -0.11563885
     atom   20 type  4   force =    -0.13486228    0.00362476    0.11742938
     atom   21 type  4   force =     0.12658065   -0.00707481   -0.11741489
     atom   22 type  4   force =     0.13059943    0.00270397    0.12067522
     atom   23 type  5   force =     0.18269044    0.18837782    0.04143213
     The non-local contrib.  to forces
     atom    1 type  1   force =     0.00417674   -0.00524033    0.02821020
     atom    2 type  1   force =    -0.24796927   -0.16217272    0.01381164
     atom    3 type  1   force =    -0.24027954    0.15324103   -0.02672059
     atom    4 type  1   force =     0.24788523   -0.17401482    0.01562110
     atom    5 type  1   force =     0.23305365    0.14681598   -0.02397180
     atom    6 type  2   force =     0.00966797   -0.05974327   -0.07308138
     atom    7 type  2   force =    -0.01221080    0.07365263    0.06357558
     atom    8 type  3   force =    -0.25332651    0.00235718   -0.00284327
     atom    9 type  3   force =     0.10679389   -0.09834482   -0.02591378
     atom   10 type  3   force =    -0.22137647    0.00161890   -0.21962057
     atom   11 type  3   force =    -0.22704094    0.00913228    0.20678726
     atom   12 type  3   force =    -0.20754423   -0.02488590   -0.18228851
     atom   13 type  3   force =    -0.21632661   -0.00840202    0.21204597
     atom   14 type  3   force =     0.21098753    0.00196693   -0.22215065
     atom   15 type  3   force =     0.21921866    0.00655842    0.21021789
     atom   16 type  3   force =     0.21202400   -0.02460050   -0.18141963
     atom   17 type  3   force =     0.23093665   -0.01392437    0.20780845
     atom   18 type  4   force =    -0.01279070    0.06937880   -0.06032149
     atom   19 type  4   force =     0.07000320    0.00938893    0.07216306
     atom   20 type  4   force =     0.06459291   -0.01447128   -0.06500807
     atom   21 type  4   force =    -0.06749658    0.01137697    0.06396030
     atom   22 type  4   force =    -0.06001677   -0.00867541   -0.04985968
     atom   23 type  5   force =    -0.07067923   -0.05384529   -0.02085912
     The ionic contribution  to forces
     atom    1 type  1   force =    -0.21638469   -4.79619029   14.31863977
     atom    2 type  1   force =   -35.68336924   -6.15020739    0.76145635
     atom    3 type  1   force =   -35.70451524    6.25956459   -0.74026086
     atom    4 type  1   force =    35.55042512   -6.20253912    0.74558781
     atom    5 type  1   force =    35.08323554    7.10227529   -0.85034389
     atom    6 type  2   force =    -0.18451969   -3.71966152  -14.27070160
     atom    7 type  2   force =    -0.62454494    3.70570026   14.49142752
     atom    8 type  3   force =   -47.66248087   -0.04510443   -0.10384011
     atom    9 type  3   force =    45.33185993   -2.08698850   -0.65512035
     atom   10 type  3   force =   -32.20196678   -2.09678977  -23.48958766
     atom   11 type  3   force =   -31.27476044   -0.84862464   22.50479715
     atom   12 type  3   force =   -31.39735143    0.85032311  -22.57840075
     atom   13 type  3   force =   -32.19966847    2.25581504   23.53169028
     atom   14 type  3   force =    32.13595327   -2.11047365  -23.54156067
     atom   15 type  3   force =    31.19360285   -0.86859355   22.56894417
     atom   16 type  3   force =    31.27054178    0.94210316  -22.72998117
     atom   17 type  3   force =    32.01350395    2.41263513   23.75453633
     atom   18 type  4   force =    -0.41784790    4.43527160  -14.39676058
     atom   19 type  4   force =   -32.19274450    0.91640420  -25.97940555
     atom   20 type  4   force =   -32.17721831   -1.01069304   25.98475229
     atom   21 type  4   force =    32.04622502    0.84551868  -26.19882044
     atom   22 type  4   force =    31.94562934   -1.13850654   26.33920828
     atom   23 type  5   force =     5.36639569    1.34876136    0.53374369
     The local contribution  to forces
     atom    1 type  1   force =     0.19971955    4.76863067  -14.32523444
     atom    2 type  1   force =    35.83032720    6.29132566   -0.79278154
     atom    3 type  1   force =    35.84519976   -6.40011326    0.75229174
     atom    4 type  1   force =   -35.68961105    6.35213078   -0.78128216
     atom    5 type  1   force =   -35.20930796   -7.26307116    0.86001670
     atom    6 type  2   force =     0.15923481    3.73916238   14.32265538
     atom    7 type  2   force =     0.61266031   -3.75982174  -14.56002754
     atom    8 type  3   force =    47.82936508    0.05147404    0.09833260
     atom    9 type  3   force =   -45.48169881    2.06767155    0.62613805
     atom   10 type  3   force =    32.43711045    2.04616072   23.66307914
     atom   11 type  3   force =    31.50586605    0.80408458  -22.66233017
     atom   12 type  3   force =    31.62607811   -0.77708292   22.71765109
     atom   13 type  3   force =    32.42513033   -2.21548257  -23.68635231
     atom   14 type  3   force =   -32.36059542    2.05106870   23.71278889
     atom   15 type  3   force =   -31.41852163    0.81948635  -22.72308961
     atom   16 type  3   force =   -31.49944044   -0.86187860   22.86724012
     atom   17 type  3   force =   -32.25324863   -2.35702909  -23.90102895
     atom   18 type  4   force =     0.42190200   -4.45517957   14.42007317
     atom   19 type  4   force =    32.00965662   -0.92519155   25.79571821
     atom   20 type  4   force =    31.99271018    1.02804091  -25.80411678
     atom   21 type  4   force =   -31.87202127   -0.85672438   26.01370384
     atom   22 type  4   force =   -31.77177790    1.15020456  -26.16229854
     atom   23 type  5   force =    -5.11486815   -1.10679864   -0.47268583
     The core correction contribution to forces
     atom    1 type  1   force =     0.00014329    0.00286201   -0.00236963
     atom    2 type  1   force =    -0.01054179   -0.00106671    0.00075182
     atom    3 type  1   force =    -0.01158145    0.00289028   -0.00152839
     atom    4 type  1   force =     0.01133676   -0.00286919    0.00166992
     atom    5 type  1   force =     0.00488323    0.00711089   -0.00209208
     atom    6 type  2   force =    -0.00026049    0.00308596    0.00336470
     atom    7 type  2   force =     0.00053128   -0.00359609   -0.00247910
     atom    8 type  3   force =    -0.02946858    0.00100631   -0.00019904
     atom    9 type  3   force =     0.00895446   -0.01463479   -0.00382849
     atom   10 type  3   force =    -0.02303036    0.00844877   -0.01724382
     atom   11 type  3   force =    -0.02548745    0.00891528    0.01827485
     atom   12 type  3   force =    -0.02236944   -0.00993586   -0.01505683
     atom   13 type  3   force =    -0.02309499   -0.00902636    0.01622534
     atom   14 type  3   force =     0.02228407    0.00885541   -0.01727336
     atom   15 type  3   force =     0.02374944    0.00960610    0.01747806
     atom   16 type  3   force =     0.02320845   -0.01053229   -0.01423994
     atom   17 type  3   force =     0.02356382   -0.00859580    0.01521182
     atom   18 type  4   force =     0.00065738   -0.00355154    0.00277494
     atom   19 type  4   force =    -0.01015411    0.00008028   -0.00963055
     atom   20 type  4   force =    -0.01001855    0.00039955    0.00931954
     atom   21 type  4   force =     0.01002257    0.00002725   -0.00914509
     atom   22 type  4   force =     0.00989194    0.00022374    0.00823053
     atom   23 type  5   force =     0.00000000    0.00000000    0.00000000
     The Hubbard contrib.    to forces
     atom    1 type  1   force =     0.00000000    0.00000000    0.00000000
     atom    2 type  1   force =     0.00000000    0.00000000    0.00000000
     atom    3 type  1   force =     0.00000000    0.00000000    0.00000000
     atom    4 type  1   force =     0.00000000    0.00000000    0.00000000
     atom    5 type  1   force =     0.00000000    0.00000000    0.00000000
     atom    6 type  2   force =     0.00000000    0.00000000    0.00000000
     atom    7 type  2   force =     0.00000000    0.00000000    0.00000000
     atom    8 type  3   force =     0.00000000    0.00000000    0.00000000
     atom    9 type  3   force =     0.00000000    0.00000000    0.00000000
     atom   10 type  3   force =     0.00000000    0.00000000    0.00000000
     atom   11 type  3   force =     0.00000000    0.00000000    0.00000000
     atom   12 type  3   force =     0.00000000    0.00000000    0.00000000
     atom   13 type  3   force =     0.00000000    0.00000000    0.00000000
     atom   14 type  3   force =     0.00000000    0.00000000    0.00000000
     atom   15 type  3   force =     0.00000000    0.00000000    0.00000000
     atom   16 type  3   force =     0.00000000    0.00000000    0.00000000
     atom   17 type  3   force =     0.00000000    0.00000000    0.00000000
     atom   18 type  4   force =     0.00000000    0.00000000    0.00000000
     atom   19 type  4   force =     0.00000000    0.00000000    0.00000000
     atom   20 type  4   force =     0.00000000    0.00000000    0.00000000
     atom   21 type  4   force =     0.00000000    0.00000000    0.00000000
     atom   22 type  4   force =     0.00000000    0.00000000    0.00000000
     atom   23 type  5   force =     0.00000000    0.00000000    0.00000000
     The SCF correction term to forces
     atom    1 type  1   force =     0.00000000    0.00000000   -0.00000000
     atom    2 type  1   force =    -0.00000000    0.00000000    0.00000000
     atom    3 type  1   force =    -0.00000000   -0.00000000    0.00000000
     atom    4 type  1   force =     0.00000000    0.00000000    0.00000000
     atom    5 type  1   force =     0.00000000   -0.00000000    0.00000000
     atom    6 type  2   force =     0.00000000    0.00000000    0.00000000
     atom    7 type  2   force =     0.00000000   -0.00000000   -0.00000000
     atom    8 type  3   force =    -0.00000000   -0.00000000    0.00000000
     atom    9 type  3   force =     0.00000000   -0.00000000    0.00000000
     atom   10 type  3   force =    -0.01155406    0.01265896    0.00282088
     atom   11 type  3   force =    -0.00201948   -0.00489052   -0.00930559
     atom   12 type  3   force =    -0.01318515   -0.00508409    0.00211550
     atom   13 type  3   force =    -0.00085471    0.00473482   -0.01029596
     atom   14 type  3   force =     0.00961444    0.01632927    0.00576516
     atom   15 type  3   force =     0.00067725   -0.00280485   -0.01169026
     atom   16 type  3   force =     0.00987447   -0.00604925    0.00331879
     atom   17 type  3   force =     0.00000533    0.00246036   -0.01215905
     atom   18 type  4   force =     0.00339729   -0.01978649    0.02118262
     atom   19 type  4   force =    -0.00951755   -0.00547984    0.00474264
     atom   20 type  4   force =    -0.00518134    0.00045475   -0.00829093
     atom   21 type  4   force =     0.00959807   -0.00716721    0.01211316
     atom   22 type  4   force =     0.00661999   -0.00043626   -0.01537870
     atom   23 type  5   force =     0.00158930    0.00036650    0.00046006

     Total force =     0.486102     Total SCF correction =     0.057010
     SCF correction compared to forces is large: reduce conv_thr to get better values


     Computing stress (Cartesian axis) and pressure


     negative rho (up, down):  9.097E-01 9.097E-01
          total   stress  (Ry/bohr**3)                   (kbar)     P=       96.82
   0.00074841   0.00007473   0.00001325          110.09       10.99        1.95
   0.00007473   0.00078828   0.00000864           10.99      115.96        1.27
   0.00001325   0.00000864   0.00043781            1.95        1.27       64.40


     Entering Dynamics:    iteration =     2
                           time      =   0.0004 pico-seconds


ATOMIC_POSITIONS (angstrom)
Hf            2.6699999570        2.8271230292        6.6039642186    0   0   0
Hf            1.2529906802        1.2862841814        5.0584662261    0   0   0
Hf            1.2554868986        7.3898042948        5.0880677674    0   0   0
Hf            4.0870092338        1.2862841814        5.0584662261    0   0   0
Hf            4.0845130154        7.3898042948        5.0880677674    0   0   0
Nb            2.6699999570        2.7969306055        3.5155832167    0   0   0
Nb            2.6699999570        5.8763786763        6.6349979432    0   0   0
Ta            1.2093730560        4.3409278516        5.0711258323    0   0   0
Ta            4.1306268580        4.3409278516        5.0711258323    0   0   0
Ta            1.3072501955        1.3141195294        2.0587723619
Ta            1.3027856345        1.3083874729        8.0945857157
Ta            1.3040078022        7.3758298843        2.0462308956
Ta            1.3077091585        7.3650861621        8.0860093172
Ta            4.0327494627        1.3141190870        2.0587721545
Ta            4.0372137868        1.3083869784        8.0945861082
Ta            4.0359923468        7.3758305344        2.0462309932
Ta            4.0322907710        7.3650870730        8.0860094231
Zr            2.6699989519        5.8662911180        3.5273815313
Zr            1.2438046003        4.3220766826        1.9999740016
Zr            1.2403548905        4.3541241984        8.1497818170
Zr            4.0961939789        4.3220761657        1.9999738243
Zr            4.0996441281        4.3541238851        8.1497823190
H             5.1228464316        5.2985480558        5.3289183143


     kinetic energy (Ekin) =           1.79740579 Ry
     temperature           =       13513.71092449 K 
     Ekin + Etot (const)   =       -2941.23415643 Ry
     Ions kinetic stress =           34.72 (kbar)
                                     52.12          50.29          13.51
                                     50.29          48.53          13.04
                                     13.51          13.04           3.50



     Writing config-only to output data dir outdir/pwscf.save/
     NEW-OLD atomic charge density approx. for the potential

     Check: negative core charge=   -0.000002

     negative rho (up, down):  9.096E-01 9.096E-01
     Generating pointlists ...
     new r_m :   0.0678 (alat units)  1.0935 (a.u.) for type    3
     new r_m :   0.0678 (alat units)  1.0935 (a.u.) for type    5

     total cpu time spent up to now is      324.7 secs

     Self-consistent Calculation

     iteration #  1     ecut=   120.00 Ry     beta= 0.70
     Davidson diagonalization with overlap
     ethr =  1.00E-06,  avg # of iterations =  6.0

     negative rho (up, down):  9.096E-01 9.096E-01

     total cpu time spent up to now is      351.0 secs

     total energy              =   -2942.95859257 Ry
     estimated scf accuracy    <       0.11075955 Ry

     total magnetization       =     0.04 Bohr mag/cell
     absolute magnetization    =     0.05 Bohr mag/cell

     iteration #  2     ecut=   120.00 Ry     beta= 0.70
     Davidson diagonalization with overlap
     ethr =  4.00E-05,  avg # of iterations =  2.0

     negative rho (up, down):  9.097E-01 9.097E-01

     total cpu time spent up to now is      365.2 secs

     total energy              =   -2942.96696926 Ry
     estimated scf accuracy    <       0.05664167 Ry

     total magnetization       =     0.04 Bohr mag/cell
     absolute magnetization    =     0.05 Bohr mag/cell

     iteration #  3     ecut=   120.00 Ry     beta= 0.70
     Davidson diagonalization with overlap
     ethr =  2.04E-05,  avg # of iterations =  1.0

     negative rho (up, down):  9.096E-01 9.096E-01

     total cpu time spent up to now is      377.7 secs

     total energy              =   -2942.97012790 Ry
     estimated scf accuracy    <       0.00223132 Ry

     total magnetization       =     0.04 Bohr mag/cell
     absolute magnetization    =     0.05 Bohr mag/cell

     iteration #  4     ecut=   120.00 Ry     beta= 0.70
     Davidson diagonalization with overlap
     ethr =  8.06E-07,  avg # of iterations =  2.0

     negative rho (up, down):  9.096E-01 9.096E-01

     Magnetic moment per site  (integrated on atomic sphere of radius R)
     atom   1 (R=0.111)  charge=  8.7145  magn= -0.0000
     atom   2 (R=0.111)  charge=  8.4414  magn=  0.0000
     atom   3 (R=0.111)  charge=  8.4422  magn=  0.0001
     atom   4 (R=0.111)  charge=  8.4441  magn=  0.0000
     atom   5 (R=0.111)  charge=  8.4351  magn=  0.0002
     atom   6 (R=0.120)  charge= 10.3497  magn=  0.0001
     atom   7 (R=0.120)  charge= 10.3484  magn=  0.0001
     atom   8 (R=0.068)  charge=  4.4853  magn=  0.0000
     atom   9 (R=0.068)  charge=  4.5074  magn=  0.0000
     atom  10 (R=0.068)  charge=  4.4682  magn=  0.0002
     atom  11 (R=0.068)  charge=  4.4680  magn=  0.0001
     atom  12 (R=0.068)  charge=  4.4652  magn=  0.0003
     atom  13 (R=0.068)  charge=  4.4690  magn=  0.0002
     atom  14 (R=0.068)  charge=  4.4681  magn=  0.0001
     atom  15 (R=0.068)  charge=  4.4679  magn=  0.0002
     atom  16 (R=0.068)  charge=  4.4652  magn=  0.0006
     atom  17 (R=0.068)  charge=  4.4694  magn=  0.0003
     atom  18 (R=0.122)  charge=  9.4542  magn= -0.0000
     atom  19 (R=0.122)  charge=  8.9970  magn=  0.0015
     atom  20 (R=0.122)  charge=  8.9962  magn=  0.0002
     atom  21 (R=0.122)  charge=  8.9990  magn=  0.0020
     atom  22 (R=0.122)  charge=  9.0011  magn=  0.0007
     atom  23 (R=0.068)  charge=  0.8699  magn=  0.0000

     total cpu time spent up to now is      391.8 secs

     End of self-consistent calculation

 ------ SPIN UP ------------


          k = 0.0000 0.0000 0.0000 ( 56324 PWs)   bands (ev):

   -59.7604 -59.7585 -59.7156 -59.7137 -59.6803 -59.6796 -59.6391 -59.6356
   -59.5089 -59.0182 -53.3533 -53.3041 -53.2228 -53.1579 -51.6829 -45.2398
   -45.2375 -40.6233 -40.6152 -40.5317 -40.5227 -38.7977 -26.7664 -26.7592
   -26.6770 -26.6765 -26.5798 -26.5730 -26.4594 -26.4399 -26.3443 -26.3054
   -26.2774 -26.2413 -26.2373 -26.2089 -26.1962 -26.1542 -26.1375 -26.1250
   -26.0662 -25.9516 -25.9423 -25.9392 -25.9304 -25.9089 -25.8749 -25.8631
   -25.8457 -25.8371 -25.7297 -25.6987 -23.1361 -22.9169 -22.6307 -22.5351
   -22.2762 -22.1453 -22.1289 -22.0179 -21.8965 -21.8298 -21.7992 -21.5788
   -21.4870 -21.4340 -21.3722 -21.3243 -21.2485 -21.1981 -20.7401 -20.6686
   -20.6132 -19.1882 -18.9164 -18.8244 -18.8231 -18.5953 -18.5886 -18.5843
   -18.5735 -18.5566 -18.5212 -18.3550 -18.3464 -17.1419 -16.9371 -16.8140
     2.1600   3.2169   3.9455   4.1700   4.3357   4.5065   4.5508   4.6969
     4.7407   4.8765   4.9468   5.0940   5.2135   5.5108   5.6382   5.7098
     5.7967   5.8152   6.0559   6.1099   6.1875   6.2932   6.3032   6.3660
     6.3962   6.5690   6.6839   6.7284   6.7596   6.7739   6.7970   6.8620
     6.9927   7.1036   7.1938   7.2645   7.2822   7.3364   7.3836   7.3890
     7.4003   7.6230   7.7048   7.7590   7.9249   7.9738   7.9998   8.1183
     8.1367   8.2129   8.2795   8.3161   8.3267   8.4568   8.5410   8.5592
     8.6352   8.8178   8.8932   8.9617   9.0928   9.1009   9.2630   9.3174
     9.3273   9.3615   9.3835   9.4277   9.4667   9.6328   9.6898   9.7179
     9.9263   9.9908  10.0845  10.1284  10.1570  10.2717  10.2943

 ------ SPIN DOWN ----------


          k = 0.0000 0.0000 0.0000 ( 56324 PWs)   bands (ev):

   -59.7598 -59.7578 -59.7149 -59.7131 -59.6796 -59.6786 -59.6385 -59.6347
   -59.5089 -59.0182 -53.3532 -53.3040 -53.2228 -53.1579 -51.6829 -45.2397
   -45.2374 -40.6218 -40.6148 -40.5314 -40.5211 -38.7977 -26.7655 -26.7582
   -26.6761 -26.6756 -26.5788 -26.5721 -26.4586 -26.4384 -26.3441 -26.3047
   -26.2769 -26.2405 -26.2365 -26.2081 -26.1952 -26.1539 -26.1365 -26.1244
   -26.0660 -25.9511 -25.9414 -25.9383 -25.9295 -25.9082 -25.8740 -25.8620
   -25.8450 -25.8359 -25.7296 -25.6986 -23.1360 -22.9168 -22.6305 -22.5350
   -22.2761 -22.1451 -22.1288 -22.0178 -21.8964 -21.8297 -21.7992 -21.5788
   -21.4869 -21.4339 -21.3721 -21.3242 -21.2484 -21.1980 -20.7401 -20.6686
   -20.6132 -19.1866 -18.9162 -18.8231 -18.8212 -18.5947 -18.5872 -18.5838
   -18.5724 -18.5556 -18.5207 -18.3528 -18.3460 -17.1418 -16.9371 -16.8138
     2.1605   3.2175   3.9467   4.1705   4.3362   4.5078   4.5515   4.6974
     4.7411   4.8770   4.9481   5.0946   5.2145   5.5115   5.6388   5.7109
     5.7975   5.8160   6.0572   6.1108   6.1883   6.2941   6.3042   6.3671
     6.3975   6.5697   6.6847   6.7294   6.7607   6.7748   6.7973   6.8626
     6.9933   7.1051   7.1945   7.2653   7.2830   7.3373   7.3852   7.3897
     7.4014   7.6238   7.7057   7.7598   7.9260   7.9752   8.0016   8.1219
     8.1386   8.2162   8.2844   8.3183   8.3278   8.4599   8.5429   8.5620
     8.6369   8.8195   8.8944   8.9628   9.0942   9.1031   9.2646   9.3191
     9.3289   9.3633   9.3850   9.4289   9.4680   9.6347   9.6911   9.7191
     9.9274   9.9928  10.0866  10.1294  10.1579  10.2722  10.2952

     the Fermi energy is     8.2667 ev

!    total energy              =   -2942.96979887 Ry
     estimated scf accuracy    <       0.00056057 Ry
     smearing contrib. (-TS)   =      -0.10511544 Ry
     internal energy E=F+TS    =   -2942.86468343 Ry

     total magnetization       =     0.04 Bohr mag/cell
     absolute magnetization    =     0.04 Bohr mag/cell

     convergence has been achieved in   4 iterations

     negative rho (up, down):  9.096E-01 9.096E-01

     Forces acting on atoms (cartesian axes, Ry/au):

     atom    1 type  1   force =    -0.00295344   -0.02518422    0.01525603
     atom    2 type  1   force =    -0.12304718   -0.01706485    0.00446130
     atom    3 type  1   force =    -0.12330763    0.01312138    0.01124388
     atom    4 type  1   force =     0.13460872   -0.01112972    0.00356774
     atom    5 type  1   force =     0.13028921   -0.01951346    0.01492750
     atom    6 type  2   force =    -0.00658344   -0.02076997    0.00288160
     atom    7 type  2   force =    -0.01650347    0.01178101   -0.00968587
     atom    8 type  3   force =    -0.12333182    0.00774964    0.00081173
     atom    9 type  3   force =    -0.13324873   -0.25120434   -0.08025260
     atom   10 type  3   force =    -0.02517845   -0.02291525   -0.06094462
     atom   11 type  3   force =    -0.02422836   -0.03228076    0.05173927
     atom   12 type  3   force =    -0.01991610    0.03060472   -0.05640354
     atom   13 type  3   force =    -0.01563489    0.02903784    0.05646457
     atom   14 type  3   force =     0.02165285   -0.02624667   -0.06167629
     atom   15 type  3   force =     0.01915834   -0.03635864    0.05474231
     atom   16 type  3   force =     0.02099183    0.03610289   -0.05518842
     atom   17 type  3   force =     0.01552699    0.03542029    0.05633420
     atom   18 type  4   force =    -0.00233730    0.02111270   -0.00843439
     atom   19 type  4   force =    -0.13573903   -0.00666097   -0.11534743
     atom   20 type  4   force =    -0.13776635    0.00330448    0.11166736
     atom   21 type  4   force =     0.12921046   -0.00902539   -0.11480893
     atom   22 type  4   force =     0.13272647    0.00309607    0.11312403
     atom   23 type  5   force =     0.28561132    0.28702322    0.06552056
     The non-local contrib.  to forces
     atom    1 type  1   force =     0.00684741   -0.00360939    0.02681572
     atom    2 type  1   force =    -0.25006541   -0.16207981    0.02007095
     atom    3 type  1   force =    -0.24286296    0.15348719   -0.01938643
     atom    4 type  1   force =     0.25159467   -0.17042058    0.02199382
     atom    5 type  1   force =     0.24121431    0.14006578   -0.01640207
     atom    6 type  2   force =     0.00966812   -0.05846861   -0.07296354
     atom    7 type  2   force =    -0.01007015    0.07318081    0.06376138
     atom    8 type  3   force =    -0.25413565    0.00080531   -0.00039560
     atom    9 type  3   force =     0.14019919   -0.07272171   -0.01653449
     atom   10 type  3   force =    -0.22705516    0.00438898   -0.22055372
     atom   11 type  3   force =    -0.22803511    0.00848689    0.20190123
     atom   12 type  3   force =    -0.21305181   -0.02693307   -0.18204767
     atom   13 type  3   force =    -0.21600624   -0.00756062    0.20700397
     atom   14 type  3   force =     0.21487621    0.00682217   -0.22068940
     atom   15 type  3   force =     0.21920861    0.00614555    0.20510591
     atom   16 type  3   force =     0.21663361   -0.02701749   -0.18054647
     atom   17 type  3   force =     0.22798529   -0.01192766    0.20480576
     atom   18 type  4   force =    -0.01207777    0.06530266   -0.05392061
     atom   19 type  4   force =     0.06869937    0.00827229    0.07371762
     atom   20 type  4   force =     0.06332604   -0.01413224   -0.06842068
     atom   21 type  4   force =    -0.06527024    0.00950494    0.06668676
     atom   22 type  4   force =    -0.05774308   -0.00789936   -0.05399314
     atom   23 type  5   force =    -0.08265929   -0.06923049   -0.02478376
     The ionic contribution  to forces
     atom    1 type  1   force =    -0.23079428   -4.81041035   14.33059765
     atom    2 type  1   force =   -35.68947136   -6.15658887    0.76242010
     atom    3 type  1   force =   -35.71624595    6.26177130   -0.73827921
     atom    4 type  1   force =    35.55320522   -6.22435268    0.74685236
     atom    5 type  1   force =    35.13420755    7.09736597   -0.83685658
     atom    6 type  2   force =    -0.19806383   -3.73326039  -14.28193417
     atom    7 type  2   force =    -0.64124989    3.73061686   14.51243950
     atom    8 type  3   force =   -47.68855786   -0.04159304   -0.10240834
     atom    9 type  3   force =    44.99872810   -2.40801884   -0.74095741
     atom   10 type  3   force =   -32.20498379   -2.09996436  -23.49067019
     atom   11 type  3   force =   -31.27818407   -0.85227685   22.50521638
     atom   12 type  3   force =   -31.40188653    0.85143418  -22.57832566
     atom   13 type  3   force =   -32.20483668    2.25615931   23.53012282
     atom   14 type  3   force =    32.13719534   -2.11734088  -23.54477045
     atom   15 type  3   force =    31.19591869   -0.87713072   22.57121211
     atom   16 type  3   force =    31.27581536    0.94577497  -22.72945562
     atom   17 type  3   force =    32.02541622    2.41167528   23.74633400
     atom   18 type  4   force =    -0.43568975    4.45347507  -14.41267162
     atom   19 type  4   force =   -32.19894373    0.91796013  -25.98216936
     atom   20 type  4   force =   -32.18507587   -1.00802263   25.98651950
     atom   21 type  4   force =    32.04701865    0.84698605  -26.21601843
     atom   22 type  4   force =    31.95154893   -1.13186076   26.35605179
     atom   23 type  5   force =     5.75492951    1.68760124    0.60675087
     The local contribution  to forces
     atom    1 type  1   force =     0.21913703    4.78267353  -14.32722549
     atom    2 type  1   force =    35.81756950    6.30514907   -0.75376119
     atom    3 type  1   force =    35.84029393   -6.40572677    0.79759563
     atom    4 type  1   force =   -35.67306658    6.38827113   -0.74206728
     atom    5 type  1   force =   -35.24790298   -7.26165278    0.89885709
     atom    6 type  2   force =     0.18103382    3.77569615   14.37060646
     atom    7 type  2   force =     0.63494344   -3.78485981  -14.57083518
     atom    8 type  3   force =    47.83520140    0.04671829    0.12482934
     atom    9 type  3   force =   -45.26758727    2.24561777    0.70279472
     atom   10 type  3   force =    32.41845532    2.08400280   23.67600033
     atom   11 type  3   force =    31.50171817    0.80325777  -22.69480189
     atom   12 type  3   force =    31.60368737   -0.79558174   22.72798000
     atom   13 type  3   force =    32.42279357   -2.20881280  -23.71878248
     atom   14 type  3   force =   -32.34315823    2.09731361   23.73003769
     atom   15 type  3   force =   -31.41521160    0.82479873  -22.76062058
     atom   16 type  3   force =   -31.48408070   -0.88409032   22.87846176
     atom   17 type  3   force =   -32.25516814   -2.35577467  -23.93402074
     atom   18 type  4   force =     0.44336503   -4.50674743   14.47845423
     atom   19 type  4   force =    31.99809402   -0.93857677   25.80922480
     atom   20 type  4   force =    31.98697204    1.02337816  -25.82926751
     atom   21 type  4   force =   -31.85639008   -0.87208651   26.05194903
     atom   22 type  4   force =   -31.76353535    1.14277319  -26.21239595
     atom   23 type  5   force =    -5.38657084   -1.33211484   -0.51326345
     The core correction contribution to forces
     atom    1 type  1   force =     0.00035848    0.00287280   -0.00269639
     atom    2 type  1   force =    -0.01061930   -0.00115498    0.00078289
     atom    3 type  1   force =    -0.01168345    0.00300434   -0.00149552
     atom    4 type  1   force =     0.01151077   -0.00268318    0.00173461
     atom    5 type  1   force =     0.00576162    0.00639592   -0.00186274
     atom    6 type  2   force =    -0.00017864    0.00311509    0.00350560
     atom    7 type  2   force =     0.00043806   -0.00358437   -0.00249785
     atom    8 type  3   force =    -0.02932934    0.00087681   -0.00030809
     atom    9 type  3   force =     0.00939100   -0.01407565   -0.00379024
     atom   10 type  3   force =    -0.02325859    0.00837533   -0.01735705
     atom   11 type  3   force =    -0.02539546    0.00901199    0.01811890
     atom   12 type  3   force =    -0.02266670   -0.01000222   -0.01518269
     atom   13 type  3   force =    -0.02298168   -0.00906027    0.01607027
     atom   14 type  3   force =     0.02255648    0.00877853   -0.01745023
     atom   15 type  3   force =     0.02375761    0.00960926    0.01746406
     atom   16 type  3   force =     0.02337797   -0.01044510   -0.01440902
     atom   17 type  3   force =     0.02316149   -0.00837903    0.01538230
     atom   18 type  4   force =     0.00066593   -0.00355077    0.00271403
     atom   19 type  4   force =    -0.01018494    0.00008073   -0.00962557
     atom   20 type  4   force =    -0.01004054    0.00036849    0.00935346
     atom   21 type  4   force =     0.00999505    0.00004222   -0.00913703
     atom   22 type  4   force =     0.00984642    0.00013970    0.00826253
     atom   23 type  5   force =     0.00000000    0.00000000    0.00000000
     The Hubbard contrib.    to forces
     atom    1 type  1   force =     0.00000000    0.00000000    0.00000000
     atom    2 type  1   force =     0.00000000    0.00000000    0.00000000
     atom    3 type  1   force =     0.00000000    0.00000000    0.00000000
     atom    4 type  1   force =     0.00000000    0.00000000    0.00000000
     atom    5 type  1   force =     0.00000000    0.00000000    0.00000000
     atom    6 type  2   force =     0.00000000    0.00000000    0.00000000
     atom    7 type  2   force =     0.00000000    0.00000000    0.00000000
     atom    8 type  3   force =     0.00000000    0.00000000    0.00000000
     atom    9 type  3   force =     0.00000000    0.00000000    0.00000000
     atom   10 type  3   force =     0.00000000    0.00000000    0.00000000
     atom   11 type  3   force =     0.00000000    0.00000000    0.00000000
     atom   12 type  3   force =     0.00000000    0.00000000    0.00000000
     atom   13 type  3   force =     0.00000000    0.00000000    0.00000000
     atom   14 type  3   force =     0.00000000    0.00000000    0.00000000
     atom   15 type  3   force =     0.00000000    0.00000000    0.00000000
     atom   16 type  3   force =     0.00000000    0.00000000    0.00000000
     atom   17 type  3   force =     0.00000000    0.00000000    0.00000000
     atom   18 type  4   force =     0.00000000    0.00000000    0.00000000
     atom   19 type  4   force =     0.00000000    0.00000000    0.00000000
     atom   20 type  4   force =     0.00000000    0.00000000    0.00000000
     atom   21 type  4   force =     0.00000000    0.00000000    0.00000000
     atom   22 type  4   force =     0.00000000    0.00000000    0.00000000
     atom   23 type  5   force =     0.00000000    0.00000000    0.00000000
     The SCF correction term to forces
     atom    1 type  1   force =     0.00000000    0.00000000   -0.00000000
     atom    2 type  1   force =     0.00000000   -0.00000000   -0.00000000
     atom    3 type  1   force =     0.00000000    0.00000000   -0.00000000
     atom    4 type  1   force =    -0.00000000   -0.00000000   -0.00000000
     atom    5 type  1   force =    -0.00000000   -0.00000000   -0.00000000
     atom    6 type  2   force =     0.00000000   -0.00000000   -0.00000000
     atom    7 type  2   force =    -0.00000000   -0.00000000   -0.00000000
     atom    8 type  3   force =     0.00000000    0.00000000   -0.00000000
     atom    9 type  3   force =    -0.00000000   -0.00000000   -0.00000000
     atom   10 type  3   force =     0.01154125   -0.01970882   -0.00698992
     atom   11 type  3   force =     0.00554560   -0.00075138    0.02267872
     atom   12 type  3   force =     0.01387906    0.01169676   -0.00745344
     atom   13 type  3   force =     0.00527363   -0.00167861    0.02342406
     atom   14 type  3   force =    -0.00993946   -0.02181091   -0.00742982
     atom   15 type  3   force =    -0.00463747    0.00022773    0.02295487
     atom   16 type  3   force =    -0.01087692    0.01189000   -0.00786500
     atom   17 type  3   force =    -0.00599038   -0.00016444    0.02520694
     atom   18 type  4   force =     0.00127676    0.01264236   -0.02163635
     atom   19 type  4   force =     0.00647373    0.00561183   -0.00512085
     atom   20 type  4   force =     0.00692946    0.00172188    0.01485667
     atom   21 type  4   force =    -0.00626543    0.00653710   -0.00691519
     atom   22 type  4   force =    -0.00751297   -0.00004752    0.01657287
     atom   23 type  5   force =    -0.00021057    0.00077650   -0.00180903

     Total force =     0.573989     Total SCF correction =     0.075612
     SCF correction compared to forces is large: reduce conv_thr to get better values


     Computing stress (Cartesian axis) and pressure


     negative rho (up, down):  9.096E-01 9.096E-01
          total   stress  (Ry/bohr**3)                   (kbar)     P=      100.03
   0.00076402   0.00010582   0.00002075          112.39       15.57        3.05
   0.00010582   0.00082874   0.00001576           15.57      121.91        2.32
   0.00002075   0.00001576   0.00044714            3.05        2.32       65.78


     Entering Dynamics:    iteration =     3
                           time      =   0.0006 pico-seconds


ATOMIC_POSITIONS (angstrom)
Hf            2.6699999570        2.8271230292        6.6039642186    0   0   0
Hf            1.2529906802        1.2862841814        5.0584662261    0   0   0
[...]
     4.6948   4.8978   4.9273   5.1017   5.1709   5.4058   5.6053   5.6944
     5.7797   5.7999   6.0348   6.0667   6.1561   6.2690   6.2933   6.3295
     6.3651   6.5370   6.6941   6.7277   6.7354   6.7453   6.7635   6.8945
     6.9695   7.1240   7.1829   7.2505   7.2637   7.3444   7.3692   7.3697
     7.4615   7.6003   7.7056   7.8162   7.9218   7.9418   7.9873   8.1136
     8.1503   8.2316   8.2423   8.3053   8.3065   8.4444   8.5255   8.5485
     8.6200   8.8185   8.8740   8.9040   9.0710   9.0902   9.2205   9.2699
     9.3188   9.3508   9.3758   9.4211   9.4596   9.6039   9.6960   9.7084
     9.9052   9.9568  10.0760  10.1094  10.1314  10.2183  10.2666

 ------ SPIN DOWN ----------


          k = 0.0000 0.0000 0.0000 ( 56324 PWs)   bands (ev):

   -60.3549 -59.7794 -59.7619 -59.7343 -59.7175 -59.7046 -59.6877 -59.6607
   -59.6444 -59.6161 -53.3786 -53.3329 -53.2523 -53.2065 -51.7511 -45.3108
   -45.2701 -40.6379 -40.6225 -40.5371 -40.5343 -38.8289 -29.4909 -26.7808
   -26.7719 -26.6983 -26.6835 -26.5938 -26.5811 -26.4689 -26.4605 -26.3889
   -26.3228 -26.2981 -26.2603 -26.2555 -26.2390 -26.2153 -26.1972 -26.1606
   -26.1448 -26.1371 -25.9627 -25.9496 -25.9457 -25.9447 -25.8923 -25.8847
   -25.8757 -25.8631 -25.8510 -25.8444 -23.1745 -22.9567 -22.6678 -22.5673
   -22.3119 -22.1773 -22.1526 -22.0519 -21.9390 -21.8539 -21.8442 -21.6158
   -21.5557 -21.4802 -21.4048 -21.3579 -21.2928 -21.2425 -20.8026 -20.7288
   -20.6653 -19.2049 -18.9187 -18.8463 -18.8268 -18.6105 -18.6052 -18.5869
   -18.5792 -18.5680 -18.5334 -18.3692 -18.3520 -17.1723 -16.9654 -16.8434
     2.3885   3.4245   3.9279   4.1623   4.2530   4.4989   4.5214   4.6206
     4.6950   4.8980   4.9278   5.1019   5.1712   5.4060   5.6055   5.6948
     5.7799   5.8002   6.0353   6.0670   6.1564   6.2694   6.2936   6.3298
     6.3657   6.5373   6.6945   6.7280   6.7357   6.7455   6.7639   6.8947
     6.9698   7.1245   7.1831   7.2508   7.2640   7.3449   7.3695   7.3701
     7.4619   7.6006   7.7059   7.8166   7.9224   7.9424   7.9878   8.1141
     8.1517   8.2330   8.2434   8.3057   8.3075   8.4457   8.5262   8.5496
     8.6206   8.8191   8.8745   8.9044   9.0715   9.0910   9.2210   9.2703
     9.3198   9.3515   9.3764   9.4216   9.4601   9.6046   9.6965   9.7089
     9.9056   9.9575  10.0769  10.1097  10.1317  10.2185  10.2670

     the Fermi energy is     8.2568 ev

!    total energy              =   -2941.25824988 Ry
     estimated scf accuracy    <       0.00044420 Ry
     smearing contrib. (-TS)   =      -0.10704171 Ry
     internal energy E=F+TS    =   -2941.15120817 Ry

     total magnetization       =     0.02 Bohr mag/cell
     absolute magnetization    =     0.02 Bohr mag/cell

     convergence has been achieved in   5 iterations

     negative rho (up, down):  9.086E-01 9.086E-01

     Forces acting on atoms (cartesian axes, Ry/au):

     atom    1 type  1   force =     0.01244251   -0.01562693    0.01268686
     atom    2 type  1   force =    -0.11942271   -0.01617499   -0.00799678
     atom    3 type  1   force =    -0.12048682    0.01271437   -0.00242059
     atom    4 type  1   force =     0.13855210   -0.01815469   -0.00832637
     atom    5 type  1   force =     0.11857017   -0.00457218   -0.00152210
     atom    6 type  2   force =     0.02018193   -0.00683722    0.01438253
     atom    7 type  2   force =     0.00024793    0.01255748   -0.01212280
     atom    8 type  3   force =    -0.12821697    0.01215525    0.00218934
     atom    9 type  3   force =    -3.05193717   -3.09088984   -0.83555201
     atom   10 type  3   force =    -0.02836989   -0.02955076   -0.06317881
     atom   11 type  3   force =    -0.02233698   -0.03431870    0.06179463
     atom   12 type  3   force =    -0.02036990    0.03490755   -0.05603436
     atom   13 type  3   force =    -0.01749889    0.02582042    0.06358428
     atom   14 type  3   force =     0.01663835   -0.02785884   -0.05760686
     atom   15 type  3   force =     0.01486832   -0.03207955    0.06201105
     atom   16 type  3   force =     0.01677401    0.03666476   -0.05187204
     atom   17 type  3   force =     0.01413561    0.02882113    0.06135204
     atom   18 type  4   force =     0.01136994    0.02269010   -0.00441859
     atom   19 type  4   force =    -0.13938269   -0.00677514   -0.11629284
     atom   20 type  4   force =    -0.13926446    0.00321625    0.11760266
     atom   21 type  4   force =     0.13172798   -0.00890292   -0.11048448
     atom   22 type  4   force =     0.13079721    0.00203691    0.11511170
     atom   23 type  5   force =     3.16098042    3.10015755    0.81711354
     The non-local contrib.  to forces
     atom    1 type  1   force =     0.01657488    0.00098298    0.01409519
     atom    2 type  1   force =    -0.24639148   -0.16606586    0.01306489
     atom    3 type  1   force =    -0.24134930    0.15847800   -0.02900693
     atom    4 type  1   force =     0.25081113   -0.15899322    0.01464551
     atom    5 type  1   force =     0.23137547    0.15230053   -0.03014367
     atom    6 type  2   force =    -0.00505799   -0.05393102   -0.06463246
     atom    7 type  2   force =    -0.00578528    0.07527511    0.05841746
     atom    8 type  3   force =    -0.24659413   -0.00514928   -0.00792231
     atom    9 type  3   force =     1.23513804    0.97606438    0.25449502
     atom   10 type  3   force =    -0.22618010   -0.00410625   -0.22626265
     atom   11 type  3   force =    -0.22997985    0.00638871    0.20825822
     atom   12 type  3   force =    -0.21083032   -0.02098683   -0.18554315
     atom   13 type  3   force =    -0.21796774   -0.00989468    0.21254925
     atom   14 type  3   force =     0.20932199    0.00278546   -0.21806962
     atom   15 type  3   force =     0.22128507    0.00671273    0.21067834
     atom   16 type  3   force =     0.20829189   -0.02616425   -0.18056149
     atom   17 type  3   force =     0.22008797   -0.01175231    0.21024524
     atom   18 type  4   force =    -0.00781489    0.07093913   -0.05146541
     atom   19 type  4   force =     0.07332191    0.00849809    0.07575493
     atom   20 type  4   force =     0.06664422   -0.01177848   -0.06635350
     atom   21 type  4   force =    -0.06227179    0.01073252    0.06570270
     atom   22 type  4   force =    -0.05631808   -0.00610443   -0.05030956
     atom   23 type  5   force =    -0.06257994   -0.07266321   -0.02175193
     The ionic contribution  to forces
     atom    1 type  1   force =    -0.32339016   -4.89274095   14.43071384
     atom    2 type  1   force =   -35.72453007   -6.19461050    0.76798785
     atom    3 type  1   force =   -35.76366936    6.27167608   -0.72702278
     atom    4 type  1   force =    35.56902663   -6.36341746    0.75501129
     atom    5 type  1   force =    35.38990144    6.97426471   -0.76803293
     atom    6 type  2   force =    -0.29165286   -3.81658353  -14.37568410
     atom    7 type  2   force =    -0.67975923    3.87870305   14.63295685
     atom    8 type  3   force =   -47.85076261   -0.01802566   -0.09396118
     atom    9 type  3   force =    40.52073526   -6.76767804   -1.88440295
     atom   10 type  3   force =   -32.21757458   -2.11399677  -23.48995314
     atom   11 type  3   force =   -31.29185270   -0.86735487   22.50069804
     atom   12 type  3   force =   -31.41889025    0.85129556  -22.57019798
     atom   13 type  3   force =   -32.21978995    2.25065278   23.51301803
     atom   14 type  3   force =    32.14049853   -2.15456509  -23.55825455
     atom   15 type  3   force =    31.20510883   -0.91809463   22.57836000
     atom   16 type  3   force =    31.30404644    0.95082320  -22.70869122
     atom   17 type  3   force =    32.08038315    2.38469839   23.68326994
     atom   18 type  4   force =    -0.51493565    4.57212278  -14.50815159
     atom   19 type  4   force =   -32.22219074    0.92876491  -25.97939651
     atom   20 type  4   force =   -32.21238752   -0.99097289   25.97737385
     atom   21 type  4   force =    32.05024512    0.86852495  -26.29510702
     atom   22 type  4   force =    31.99071478   -1.07486204   26.40457673
     atom   23 type  5   force =    10.48072551    6.24137601    1.71488953
     The local contribution  to forces
     atom    1 type  1   force =     0.31626187    4.87571626  -14.43640722
     atom    2 type  1   force =    35.86473483    6.34537521   -0.80980235
     atom    3 type  1   force =    35.89753442   -6.41839620    0.73513654
     atom    4 type  1   force =   -35.69557663    6.50507370   -0.79874696
     atom    5 type  1   force =   -35.51087282   -7.13511126    0.77824420
     atom    6 type  2   force =     0.31570400    3.85580734   14.42233387
     atom    7 type  2   force =     0.68479736   -3.94108153  -14.70901683
     atom    8 type  3   force =    48.00035992    0.03406648    0.08556659
     atom    9 type  3   force =   -44.91556164    2.62163907    0.75454693
     atom   10 type  3   force =    32.43968544    2.07424105   23.66479077
     atom   11 type  3   force =    31.52801523    0.82233070  -22.65379326
     atom   12 type  3   force =    31.63260955   -0.77816191   22.70906804
     atom   13 type  3   force =    32.44636034   -2.20942511  -23.66591504
     atom   14 type  3   force =   -32.35842923    2.10962633   23.73114170
     atom   15 type  3   force =   -31.44036626    0.87429014  -22.73455418
     atom   16 type  3   force =   -31.51938216   -0.87217544   22.84661475
     atom   17 type  3   force =   -32.31274297   -2.34056854  -23.83674919
     atom   18 type  4   force =     0.53330339   -4.61232310   14.52682838
     atom   19 type  4   force =    32.02057930   -0.94498025   25.79136133
     atom   20 type  4   force =    32.02303992    1.00473449  -25.79307329
     atom   21 type  4   force =   -31.86668577   -0.88881729   26.12234664
     atom   22 type  4   force =   -31.82034161    1.08225005  -26.23786339
     atom   23 type  5   force =    -7.25736779   -3.06846176   -0.87908513
     The core correction contribution to forces
     atom    1 type  1   force =     0.00267072    0.00317603   -0.00245545
     atom    2 type  1   force =    -0.01132668   -0.00177349    0.00077629
     atom    3 type  1   force =    -0.01161358    0.00250012   -0.00157878
     atom    4 type  1   force =     0.01230453   -0.00147986    0.00115518
     atom    5 type  1   force =     0.00677343    0.00527725   -0.00132150
     atom    6 type  2   force =     0.00100158    0.00335596    0.00394448
     atom    7 type  2   force =     0.00045157   -0.00376670   -0.00248187
     atom    8 type  3   force =    -0.02939131    0.00034122   -0.00018246
     atom    9 type  3   force =     0.10588244    0.07788228    0.02086277
     atom   10 type  3   force =    -0.02251062    0.00776651   -0.01751896
     atom   11 type  3   force =    -0.02450581    0.00901851    0.01813425
     atom   12 type  3   force =    -0.02234486   -0.00986857   -0.01502760
     atom   13 type  3   force =    -0.02268679   -0.00921248    0.01603934
     atom   14 type  3   force =     0.02246648    0.00873073   -0.01796661
     atom   15 type  3   force =     0.02439044    0.00946090    0.01857566
     atom   16 type  3   force =     0.02187998   -0.00953314   -0.01449554
     atom   17 type  3   force =     0.02244241   -0.00705585    0.01599524
     atom   18 type  4   force =     0.00065809   -0.00385252    0.00247372
     atom   19 type  4   force =    -0.01045079    0.00010439   -0.00986401
     atom   20 type  4   force =    -0.01015538    0.00028967    0.00942146
     atom   21 type  4   force =     0.00973727   -0.00009974   -0.00904830
     atom   22 type  4   force =     0.00943986   -0.00020361    0.00821877
     atom   23 type  5   force =     0.00000000    0.00000000    0.00000000
     The Hubbard contrib.    to forces
     atom    1 type  1   force =     0.00000000    0.00000000    0.00000000
     atom    2 type  1   force =     0.00000000    0.00000000    0.00000000
     atom    3 type  1   force =     0.00000000    0.00000000    0.00000000
     atom    4 type  1   force =     0.00000000    0.00000000    0.00000000
     atom    5 type  1   force =     0.00000000    0.00000000    0.00000000
     atom    6 type  2   force =     0.00000000    0.00000000    0.00000000
     atom    7 type  2   force =     0.00000000    0.00000000    0.00000000
     atom    8 type  3   force =     0.00000000    0.00000000    0.00000000
     atom    9 type  3   force =     0.00000000    0.00000000    0.00000000
     atom   10 type  3   force =     0.00000000    0.00000000    0.00000000
     atom   11 type  3   force =     0.00000000    0.00000000    0.00000000
     atom   12 type  3   force =     0.00000000    0.00000000    0.00000000
     atom   13 type  3   force =     0.00000000    0.00000000    0.00000000
     atom   14 type  3   force =     0.00000000    0.00000000    0.00000000
     atom   15 type  3   force =     0.00000000    0.00000000    0.00000000
     atom   16 type  3   force =     0.00000000    0.00000000    0.00000000
     atom   17 type  3   force =     0.00000000    0.00000000    0.00000000
     atom   18 type  4   force =     0.00000000    0.00000000    0.00000000
     atom   19 type  4   force =     0.00000000    0.00000000    0.00000000
     atom   20 type  4   force =     0.00000000    0.00000000    0.00000000
     atom   21 type  4   force =     0.00000000    0.00000000    0.00000000
     atom   22 type  4   force =     0.00000000    0.00000000    0.00000000
     atom   23 type  5   force =     0.00000000    0.00000000    0.00000000
     The SCF correction term to forces
     atom    1 type  1   force =     0.00000000   -0.00000000    0.00000000
     atom    2 type  1   force =    -0.00000000    0.00000000    0.00000000
     atom    3 type  1   force =    -0.00000000   -0.00000000    0.00000000
     atom    4 type  1   force =     0.00000000    0.00000000    0.00000000
     atom    5 type  1   force =     0.00000000   -0.00000000    0.00000000
     atom    6 type  2   force =     0.00000000    0.00000000    0.00000000
     atom    7 type  2   force =     0.00000000    0.00000000    0.00000000
     atom    8 type  3   force =    -0.00000000    0.00000000    0.00000000
     atom    9 type  3   force =     0.00000000    0.00000000    0.00000000
     atom   10 type  3   force =    -0.00183823    0.00656414    0.00427503
     atom   11 type  3   force =    -0.00406204   -0.00468232   -0.01299276
     atom   12 type  3   force =    -0.00096221   -0.00735125    0.00417619
     atom   13 type  3   force =    -0.00346294    0.00371935   -0.01359746
     atom   14 type  3   force =     0.00273240    0.00558315    0.00405208
     atom   15 type  3   force =     0.00440205   -0.00442925   -0.01253891
     atom   16 type  3   force =     0.00188966   -0.00626617    0.00377133
     atom   17 type  3   force =     0.00391686    0.00351887   -0.01289933
     atom   18 type  4   force =     0.00011080   -0.00417676    0.02440617
     atom   19 type  4   force =    -0.00069055    0.00085715    0.00436128
     atom   20 type  4   force =    -0.00645389    0.00096289   -0.01125600
     atom   21 type  4   force =     0.00065495    0.00077608    0.00413137
     atom   22 type  4   force =     0.00725407    0.00097638   -0.01100100
     atom   23 type  5   force =     0.00015444   -0.00007406    0.00157094

     Total force =     4.520717     Total SCF correction =     0.045336


     Computing stress (Cartesian axis) and pressure


     negative rho (up, down):  9.086E-01 9.086E-01
          total   stress  (Ry/bohr**3)                   (kbar)     P=      157.55
   0.00136695   0.00068416   0.00017590          201.09      100.64       25.88
   0.00068416   0.00139768   0.00016018          100.64      205.61       23.56
   0.00017590   0.00016018   0.00044841           25.88       23.56       65.96


     Entering Dynamics:    iteration =    12
                           time      =   0.0024 pico-seconds


ATOMIC_POSITIONS (angstrom)
Hf            2.6699999570        2.8271230292        6.6039642186    0   0   0
Hf            1.2529906802        1.2862841814        5.0584662261    0   0   0
Hf            1.2554868986        7.3898042948        5.0880677674    0   0   0
Hf            4.0870092338        1.2862841814        5.0584662261    0   0   0
Hf            4.0845130154        7.3898042948        5.0880677674    0   0   0
Nb            2.6699999570        2.7969306055        3.5155832167    0   0   0
Nb            2.6699999570        5.8763786763        6.6349979432    0   0   0
Ta            1.2093730560        4.3409278516        5.0711258323    0   0   0
Ta            4.1306268580        4.3409278516        5.0711258323    0   0   0
Ta            1.3071530016        1.3140160256        2.0585295394
Ta            1.3026935555        1.3082577910        8.0948131782
Ta            1.3039351348        7.3759582315        2.0460080776
Ta            1.3076461126        7.3651959261        8.0862528023
Ta            4.0328243221        1.3140045882        2.0585324798
Ta            4.0372828913        1.3082479342        8.0948227355
Ta            4.0360644204        7.3759778474        2.0460169234
Ta            4.0323500392        7.3652186703        8.0862514972
Zr            2.6700132775        5.8664731988        3.5273195870
Zr            1.2427346857        4.3220297865        1.9990664569
Zr            1.2392705883        4.3541516550        8.1506895967
Zr            4.0972105795        4.3220126219        1.9990790479
Zr            4.1006801609        4.3541483120        8.1506963425
H             4.7484333970        4.9427801141        5.2301802534


     kinetic energy (Ekin) =           0.03429962 Ry
     temperature           =         257.88011493 K 
     Ekin + Etot (const)   =       -2941.22395025 Ry
     Ions kinetic stress =            0.66 (kbar)
                                      0.88           0.91           0.19
                                      0.91           1.01           0.21
                                      0.19           0.21           0.09



     Writing config-only to output data dir outdir/pwscf.save/
     NEW-OLD atomic charge density approx. for the potential

     Check: negative core charge=   -0.000002

     negative rho (up, down):  9.088E-01 9.088E-01
     Generating pointlists ...

     total cpu time spent up to now is     1561.8 secs

     Self-consistent Calculation

     iteration #  1     ecut=   120.00 Ry     beta= 0.70
     Davidson diagonalization with overlap
     ethr =  1.00E-06,  avg # of iterations = 12.0

     negative rho (up, down):  9.085E-01 9.085E-01

     total cpu time spent up to now is     1620.9 secs

     total energy              =   -2941.43941382 Ry
     estimated scf accuracy    <       0.18895302 Ry

     total magnetization       =     0.01 Bohr mag/cell
     absolute magnetization    =     0.02 Bohr mag/cell

     iteration #  2     ecut=   120.00 Ry     beta= 0.70
     Davidson diagonalization with overlap
     ethr =  6.82E-05,  avg # of iterations =  2.0

     negative rho (up, down):  9.086E-01 9.086E-01

     total cpu time spent up to now is     1642.4 secs

     total energy              =   -2941.45010787 Ry
     estimated scf accuracy    <       0.11915276 Ry

     total magnetization       =     0.01 Bohr mag/cell
     absolute magnetization    =     0.01 Bohr mag/cell

     iteration #  3     ecut=   120.00 Ry     beta= 0.70
     Davidson diagonalization with overlap
     ethr =  4.30E-05,  avg # of iterations =  1.0

     negative rho (up, down):  9.086E-01 9.086E-01

     total cpu time spent up to now is     1654.8 secs

     total energy              =   -2941.45637744 Ry
     estimated scf accuracy    <       0.00261516 Ry

     total magnetization       =     0.01 Bohr mag/cell
     absolute magnetization    =     0.01 Bohr mag/cell

     iteration #  4     ecut=   120.00 Ry     beta= 0.70
     Davidson diagonalization with overlap
