
     Program PWSCF v.7.2 starts on  4Jun2023 at 17:10: 2 

     This program is part of the open-source Quantum ESPRESSO suite
     for quantum simulation of materials; please cite
         "P. Giannozzi et al., J. Phys.:Condens. Matter 21 395502 (2009);
         "P. Giannozzi et al., J. Phys.:Condens. Matter 29 465901 (2017);
         "P. Giannozzi et al., J. Chem. Phys. 152 154105 (2020);
          URL http://www.quantum-espresso.org", 
     in publications or presentations arising from this work. More details at
     http://www.quantum-espresso.org/quote

     Parallel version (MPI), running on    12 processors

     MPI processes distributed on     1 nodes
     77417 MiB available memory on the printing compute node when the environment starts

     Reading input from md_Hf5Ta6Nb16Zr8H.in
Warning: card &CELL ignored
Warning: card / ignored

     Current dimensions of program PWSCF are:
     Max number of different atomic species (ntypx) = 10
     Max number of k-points (npk) =  40000
     Max angular momentum in pseudopotentials (lmaxx) =  4

     gamma-point specific algorithms are used

     R & G space division:  proc/nbgrp/npool/nimage =      12
     Subspace diagonalization in iterative solution of the eigenvalue problem:
     one sub-group per band group will be used
     custom distributed-memory algorithm (size of sub-group:  3*  3 procs)


     Parallelization info
     --------------------
     sticks:   dense  smooth     PW     G-vecs:    dense   smooth      PW
     Min         617     617    154                58098    58098    7258
     Max         620     620    156                58116    58116    7272
     Sum        7425    7425   1861               697253   697253   87179

     Using Slab Decomposition



     bravais-lattice index     =            0
     lattice parameter (alat)  =      13.9462  a.u.
     unit-cell volume          =    3925.3696 (a.u.)^3
     number of atoms/cell      =           36
     number of atomic types    =            5
     number of electrons       =       443.00
     number of Kohn-Sham states=          266
     kinetic-energy cutoff     =     120.0000  Ry
     charge density cutoff     =     480.0000  Ry
     scf convergence threshold =      1.0E-06
     mixing beta               =       0.7000
     number of iterations used =            8  TF        mixing
     energy convergence thresh.=      0.0E+00
     force convergence thresh. =      0.0E+00
     Exchange-correlation=  SLA  PW   PBX  PBC
                           (   1   4   3   4   0   0   0)
     nstep                     =            1


     celldm(1)=  13.946178  celldm(2)=   0.000000  celldm(3)=   0.000000
     celldm(4)=   0.000000  celldm(5)=   0.000000  celldm(6)=   0.000000

     crystal axes: (cart. coord. in units of alat)
               a(1) = (   1.000000   0.000000   0.000000 )  
               a(2) = (   0.000000   1.000000   0.000000 )  
               a(3) = (   0.000000   0.000000   1.447154 )  

     reciprocal axes: (cart. coord. in units 2 pi/alat)
               b(1) = (  1.000000  0.000000  0.000000 )  
               b(2) = (  0.000000  1.000000  0.000000 )  
               b(3) = (  0.000000  0.000000  0.691011 )  


     PseudoPot. # 1 for Hf read from file:
     q-e/pseudo/hf_pbe_v1.uspp.F.UPF
     MD5 check sum: 8ee9378dfe14276e333edf04c5e4aa26
     Pseudo is Ultrasoft + core correction, Zval = 12.0
     Generated by new atomic code, or converted to UPF format
     Using radial grid of  921 points,  8 beta functions with: 
                l(1) =   0
                l(2) =   0
                l(3) =   0
                l(4) =   1
                l(5) =   1
                l(6) =   2
                l(7) =   2
                l(8) =   3
     Q(r) pseudized with  6 coefficients,  rinner =    1.200   1.200   1.200
                                                       1.200   1.200   1.200
                                                       1.200

     PseudoPot. # 2 for Ta read from file:
     q-e/pseudo/ta_pbe_v1.uspp.F.UPF
     MD5 check sum: f8bbe9446314a3b8ea5d9f3e3836c939
     Pseudo is Ultrasoft + core correction, Zval = 13.0
     Generated by new atomic code, or converted to UPF format
     Using radial grid of  921 points,  7 beta functions with: 
                l(1) =   0
                l(2) =   0
                l(3) =   1
                l(4) =   1
                l(5) =   2
                l(6) =   2
                l(7) =   3
     Q(r) pseudized with  6 coefficients,  rinner =    1.300   1.300   1.300
                                                       1.300   1.300   1.300
                                                       1.300

     PseudoPot. # 3 for Nb read from file:
     q-e/pseudo/nb_pbe_v1.uspp.F.UPF
     MD5 check sum: 573aab8a2fa660278ed4a62cd769473f
     Pseudo is Ultrasoft + core correction, Zval = 13.0
     Generated by new atomic code, or converted to UPF format
     Using radial grid of  887 points,  6 beta functions with: 
                l(1) =   0
                l(2) =   0
                l(3) =   1
                l(4) =   1
                l(5) =   2
                l(6) =   2
     Q(r) pseudized with  6 coefficients,  rinner =    1.000   1.000   1.000
                                                       1.000   1.000

     PseudoPot. # 4 for Zr read from file:
     q-e/pseudo/zr_pbe_v1.uspp.F.UPF
     MD5 check sum: 5db81b1e868ab7776c4564c113de050b
     Pseudo is Ultrasoft + core correction, Zval = 12.0
     Generated by new atomic code, or converted to UPF format
     Using radial grid of  887 points,  6 beta functions with: 
                l(1) =   0
                l(2) =   0
                l(3) =   1
                l(4) =   1
                l(5) =   2
                l(6) =   2
     Q(r) pseudized with  6 coefficients,  rinner =    1.200   1.200   1.200
                                                       1.200   1.200

     PseudoPot. # 5 for H  read from file:
     q-e/pseudo/h_pbe_v1.4.uspp.F.UPF
     MD5 check sum: 761ae9a214b05c3daf00ab9f6b793d6f
     Pseudo is Ultrasoft, Zval =  1.0
     Generated by new atomic code, or converted to UPF format
     Using radial grid of  615 points,  2 beta functions with: 
                l(1) =   0
                l(2) =   0
     Q(r) pseudized with  8 coefficients,  rinner =    0.700

     atomic species   valence    mass     pseudopotential
        Hf            12.00   178.49000     Hf( 1.00)
        Ta            13.00   180.94788     Ta( 1.00)
        Nb            13.00    92.90637     Nb( 1.00)
        Zr            12.00    91.22400     Zr( 1.00)
        H              1.00     2.01400     H ( 1.00)

     Starting magnetic structure 
     atomic species   magnetization
        Hf           0.000
        Ta           0.000
        Nb           0.000
        Zr           0.000
        H            0.000

     No symmetry found



   Cartesian axes

     site n.     atom                  positions (alat units)
         1           Hf  tau(   1) = (   0.2533875   0.7059621   0.9498645  )
         2           Hf  tau(   2) = (   0.4796748   0.0271003   0.7235772  )
         3           Hf  tau(   3) = (   0.4796748   0.9322493   0.7235772  )
         4           Hf  tau(   4) = (   0.0271003   0.4796748   0.2710027  )
         5           Hf  tau(   5) = (   0.9322493   0.4796748   0.2710027  )
         6           Ta  tau(   6) = (   0.4796748   0.0271003   0.2710027  )
         7           Ta  tau(   7) = (   0.4796748   0.9322493   0.2710027  )
         8           Ta  tau(   8) = (   0.7059621   0.2533875   0.9498645  )
         9           Ta  tau(   9) = (   0.7059621   0.7059621   0.4972900  )
        10           Ta  tau(  10) = (   0.0271003   0.4796748   1.1761518  )
        11           Ta  tau(  11) = (   0.9322493   0.4796748   1.1761518  )
        12           Nb  tau(  12) = (   0.2533875   0.2533875   0.9498645  )
        13           Nb  tau(  13) = (   0.4796748   0.4796748   0.7235772  )
        14           Nb  tau(  14) = (   0.4796748   0.4796748   1.1761518  )
        15           Nb  tau(  15) = (   0.4796748   0.0271003   1.1761518  )
        16           Nb  tau(  16) = (   0.4796748   0.9322493   1.1761518  )
        17           Nb  tau(  17) = (   0.7059621   0.7059621   0.9498645  )
        18           Nb  tau(  18) = (   0.0271003   0.4796748   0.7235772  )
        19           Nb  tau(  19) = (   0.9322493   0.4796748   0.7235772  )
        20           Nb  tau(  20) = (   0.0271003   0.0271003   0.7235772  )
        21           Nb  tau(  21) = (   0.0271003   0.9322493   0.7235772  )
        22           Nb  tau(  22) = (   0.9322493   0.0271003   0.7235772  )
        23           Nb  tau(  23) = (   0.9322493   0.9322493   0.7235772  )
        24           Nb  tau(  24) = (   0.0271003   0.0271003   0.2710027  )
        25           Nb  tau(  25) = (   0.0271003   0.9322493   0.2710027  )
        26           Nb  tau(  26) = (   0.9322493   0.0271003   0.2710027  )
        27           Nb  tau(  27) = (   0.9322493   0.9322493   0.2710027  )
        28           Zr  tau(  28) = (   0.2533875   0.2533875   0.4972900  )
        29           Zr  tau(  29) = (   0.2533875   0.7059621   0.4972900  )
        30           Zr  tau(  30) = (   0.4796748   0.4796748   0.2710027  )
        31           Zr  tau(  31) = (   0.7059621   0.2533875   0.4972900  )
        32           Zr  tau(  32) = (   0.0271003   0.0271003   1.1761518  )
        33           Zr  tau(  33) = (   0.0271003   0.9322493   1.1761518  )
        34           Zr  tau(  34) = (   0.9322493   0.0271003   1.1761518  )
        35           Zr  tau(  35) = (   0.9322493   0.9322493   1.1761518  )
        36           H   tau(  36) = (   0.4796748   1.2032520   0.7235772  )

     number of k points=     1  Gaussian smearing, width (Ry)=  0.0220
                       cart. coord. in units 2pi/alat
        k(    1) = (   0.0000000   0.0000000   0.0000000), wk =   1.0000000

     Dense  grid:   348627 G-vectors     FFT dimensions: ( 100, 100, 144)

     Estimated max dynamical RAM per process >     330.85 MB

     Estimated total dynamical RAM >       3.88 GB

     Check: negative core charge=   -0.000002
     Generating pointlists ...
     new r_m :   0.0391 (alat units)  0.5457 (a.u.) for type    1
     new r_m :   0.0391 (alat units)  0.5457 (a.u.) for type    2
     new r_m :   0.0391 (alat units)  0.5457 (a.u.) for type    3
     new r_m :   0.0391 (alat units)  0.5457 (a.u.) for type    4
     new r_m :   0.0727 (alat units)  1.0134 (a.u.) for type    5

     Initial potential from superposition of free atoms

     starting charge     432.9324, renormalised to     443.0000

     negative rho (up, down):  3.790E-01 3.790E-01
     Starting wfcs are  456 randomized atomic wfcs

     total cpu time spent up to now is       38.6 secs

     Self-consistent Calculation

     iteration #  1     ecut=   120.00 Ry     beta= 0.70
     Davidson diagonalization with overlap
     ethr =  1.00E-02,  avg # of iterations =  9.0

     negative rho (up, down):  4.814E-01 4.813E-01

     total cpu time spent up to now is      198.3 secs

     total energy              =   -3256.59853659 Ry
     estimated scf accuracy    <     714.11503048 Ry

     total magnetization       =     0.00 Bohr mag/cell
     absolute magnetization    =     0.18 Bohr mag/cell

     iteration #  2     ecut=   120.00 Ry     beta= 0.70
     Davidson diagonalization with overlap
     ethr =  1.00E-02,  avg # of iterations =  5.0

     negative rho (up, down):  5.437E-01 5.437E-01

     total cpu time spent up to now is      283.4 secs

     total energy              =   -3359.84537673 Ry
     estimated scf accuracy    <     103.21562201 Ry

     total magnetization       =    -0.03 Bohr mag/cell
     absolute magnetization    =     0.15 Bohr mag/cell

     iteration #  3     ecut=   120.00 Ry     beta= 0.70
     Davidson diagonalization with overlap
     ethr =  1.00E-02,  avg # of iterations =  2.0

     negative rho (up, down):  5.638E-01 5.638E-01

     total cpu time spent up to now is      342.0 secs

     total energy              =   -3362.80112937 Ry
     estimated scf accuracy    <      15.81126168 Ry

     total magnetization       =     0.00 Bohr mag/cell
     absolute magnetization    =     0.22 Bohr mag/cell

     iteration #  4     ecut=   120.00 Ry     beta= 0.70
     Davidson diagonalization with overlap
     ethr =  3.57E-03,  avg # of iterations =  5.0

     negative rho (up, down):  5.733E-01 5.733E-01

     total cpu time spent up to now is      402.4 secs

     total energy              =   -3362.63459320 Ry
     estimated scf accuracy    <       8.81904639 Ry

     total magnetization       =     0.01 Bohr mag/cell
     absolute magnetization    =     0.15 Bohr mag/cell

     iteration #  5     ecut=   120.00 Ry     beta= 0.70
     Davidson diagonalization with overlap
     ethr =  1.99E-03,  avg # of iterations =  2.5

     negative rho (up, down):  5.870E-01 5.870E-01

     total cpu time spent up to now is      457.7 secs

     total energy              =   -3362.62743060 Ry
     estimated scf accuracy    <       7.09009718 Ry

     total magnetization       =    -0.01 Bohr mag/cell
     absolute magnetization    =     0.11 Bohr mag/cell

     iteration #  6     ecut=   120.00 Ry     beta= 0.70
     Davidson diagonalization with overlap
     ethr =  1.60E-03,  avg # of iterations =  3.5

     negative rho (up, down):  5.852E-01 5.852E-01

     total cpu time spent up to now is      512.1 secs

     total energy              =   -3362.58013766 Ry
     estimated scf accuracy    <       2.13123644 Ry

     total magnetization       =    -0.00 Bohr mag/cell
     absolute magnetization    =     0.09 Bohr mag/cell

     iteration #  7     ecut=   120.00 Ry     beta= 0.70
     Davidson diagonalization with overlap
     ethr =  4.81E-04,  avg # of iterations =  8.0

     negative rho (up, down):  5.793E-01 5.793E-01

     total cpu time spent up to now is      570.3 secs

     total energy              =   -3362.55865098 Ry
     estimated scf accuracy    <       0.67081467 Ry

     total magnetization       =     0.00 Bohr mag/cell
     absolute magnetization    =     0.08 Bohr mag/cell

     iteration #  8     ecut=   120.00 Ry     beta= 0.70
     Davidson diagonalization with overlap
     ethr =  1.51E-04,  avg # of iterations =  5.5

     negative rho (up, down):  5.779E-01 5.779E-01

     total cpu time spent up to now is      629.8 secs

     total energy              =   -3362.57993860 Ry
     estimated scf accuracy    <       0.20500357 Ry

     total magnetization       =    -0.00 Bohr mag/cell
     absolute magnetization    =     0.07 Bohr mag/cell

     iteration #  9     ecut=   120.00 Ry     beta= 0.70
     Davidson diagonalization with overlap
     ethr =  4.63E-05,  avg # of iterations =  6.5

     negative rho (up, down):  5.779E-01 5.779E-01

     total cpu time spent up to now is      685.8 secs

     total energy              =   -3362.58397189 Ry
     estimated scf accuracy    <       0.07851076 Ry

     total magnetization       =    -0.00 Bohr mag/cell
     absolute magnetization    =     0.05 Bohr mag/cell

     iteration # 10     ecut=   120.00 Ry     beta= 0.70
     Davidson diagonalization with overlap
     ethr =  1.77E-05,  avg # of iterations =  3.5

     negative rho (up, down):  5.785E-01 5.785E-01

     total cpu time spent up to now is      744.4 secs

     total energy              =   -3362.58597447 Ry
     estimated scf accuracy    <       0.04213540 Ry

     total magnetization       =    -0.01 Bohr mag/cell
     absolute magnetization    =     0.04 Bohr mag/cell

     iteration # 11     ecut=   120.00 Ry     beta= 0.70
     Davidson diagonalization with overlap
     ethr =  9.51E-06,  avg # of iterations =  7.5

     negative rho (up, down):  5.791E-01 5.791E-01

     total cpu time spent up to now is      801.2 secs

     total energy              =   -3362.58838139 Ry
     estimated scf accuracy    <       0.00633904 Ry

     total magnetization       =    -0.01 Bohr mag/cell
     absolute magnetization    =     0.04 Bohr mag/cell

     iteration # 12     ecut=   120.00 Ry     beta= 0.70
     Davidson diagonalization with overlap
     ethr =  1.43E-06,  avg # of iterations =  8.0

     negative rho (up, down):  5.794E-01 5.794E-01

     total cpu time spent up to now is      861.0 secs

     total energy              =   -3362.58888689 Ry
     estimated scf accuracy    <       0.00221401 Ry

     total magnetization       =    -0.02 Bohr mag/cell
     absolute magnetization    =     0.04 Bohr mag/cell

     iteration # 13     ecut=   120.00 Ry     beta= 0.70
     Davidson diagonalization with overlap
     ethr =  5.00E-07,  avg # of iterations =  2.0

     negative rho (up, down):  5.792E-01 5.792E-01

     total cpu time spent up to now is      918.2 secs

     total energy              =   -3362.58907327 Ry
     estimated scf accuracy    <       0.00052595 Ry

     total magnetization       =    -0.03 Bohr mag/cell
     absolute magnetization    =     0.04 Bohr mag/cell

     iteration # 14     ecut=   120.00 Ry     beta= 0.70
     Davidson diagonalization with overlap
     ethr =  1.19E-07,  avg # of iterations =  3.5

     negative rho (up, down):  5.792E-01 5.792E-01

     total cpu time spent up to now is      979.6 secs

     total energy              =   -3362.58912283 Ry
     estimated scf accuracy    <       0.00016417 Ry

     total magnetization       =    -0.04 Bohr mag/cell
     absolute magnetization    =     0.05 Bohr mag/cell

     iteration # 15     ecut=   120.00 Ry     beta= 0.70
     Davidson diagonalization with overlap
     ethr =  3.71E-08,  avg # of iterations =  2.0

     negative rho (up, down):  5.791E-01 5.791E-01

     total cpu time spent up to now is     1036.8 secs

     total energy              =   -3362.58913415 Ry
     estimated scf accuracy    <       0.00007206 Ry

     total magnetization       =    -0.05 Bohr mag/cell
     absolute magnetization    =     0.06 Bohr mag/cell

     iteration # 16     ecut=   120.00 Ry     beta= 0.70
     Davidson diagonalization with overlap
     ethr =  1.63E-08,  avg # of iterations =  2.5

     negative rho (up, down):  5.791E-01 5.791E-01

     total cpu time spent up to now is     1094.4 secs

     total energy              =   -3362.58913993 Ry
     estimated scf accuracy    <       0.00001599 Ry

     total magnetization       =    -0.07 Bohr mag/cell
     absolute magnetization    =     0.07 Bohr mag/cell

     iteration # 17     ecut=   120.00 Ry     beta= 0.70
     Davidson diagonalization with overlap
     ethr =  3.61E-09,  avg # of iterations =  4.0

     negative rho (up, down):  5.792E-01 5.791E-01

     total cpu time spent up to now is     1152.1 secs

     total energy              =   -3362.58914627 Ry
     estimated scf accuracy    <       0.00000687 Ry

     total magnetization       =    -0.09 Bohr mag/cell
     absolute magnetization    =     0.09 Bohr mag/cell

     iteration # 18     ecut=   120.00 Ry     beta= 0.70
     Davidson diagonalization with overlap
     ethr =  1.55E-09,  avg # of iterations =  4.0

     negative rho (up, down):  5.792E-01 5.791E-01

     total cpu time spent up to now is     1211.5 secs

     total energy              =   -3362.58915424 Ry
     estimated scf accuracy    <       0.00000211 Ry

     total magnetization       =    -0.11 Bohr mag/cell
     absolute magnetization    =     0.12 Bohr mag/cell

     iteration # 19     ecut=   120.00 Ry     beta= 0.70
     Davidson diagonalization with overlap
     ethr =  4.76E-10,  avg # of iterations =  5.0

     negative rho (up, down):  5.792E-01 5.791E-01

     total cpu time spent up to now is     1272.4 secs

     total energy              =   -3362.58916572 Ry
     estimated scf accuracy    <       0.00000178 Ry

     total magnetization       =    -0.14 Bohr mag/cell
     absolute magnetization    =     0.15 Bohr mag/cell

     iteration # 20     ecut=   120.00 Ry     beta= 0.70
     Davidson diagonalization with overlap
     ethr =  4.03E-10,  avg # of iterations =  5.0

     negative rho (up, down):  5.792E-01 5.791E-01

     total cpu time spent up to now is     1332.4 secs

     total energy              =   -3362.58916812 Ry
     estimated scf accuracy    <       0.00000196 Ry

     total magnetization       =    -0.18 Bohr mag/cell
     absolute magnetization    =     0.19 Bohr mag/cell

     iteration # 21     ecut=   120.00 Ry     beta= 0.70
     Davidson diagonalization with overlap
     ethr =  4.03E-10,  avg # of iterations =  3.0

     negative rho (up, down):  5.792E-01 5.791E-01

     total cpu time spent up to now is     1387.0 secs

     total energy              =   -3362.58914645 Ry
     estimated scf accuracy    <       0.00000188 Ry

     total magnetization       =    -0.17 Bohr mag/cell
     absolute magnetization    =     0.18 Bohr mag/cell

     iteration # 22     ecut=   120.00 Ry     beta= 0.70
     Davidson diagonalization with overlap
     ethr =  4.03E-10,  avg # of iterations =  5.0

     negative rho (up, down):  5.792E-01 5.791E-01

     total cpu time spent up to now is     1450.9 secs

     total energy              =   -3362.58912956 Ry
     estimated scf accuracy    <       0.00000159 Ry

     total magnetization       =    -0.13 Bohr mag/cell
     absolute magnetization    =     0.14 Bohr mag/cell

     iteration # 23     ecut=   120.00 Ry     beta= 0.70
     Davidson diagonalization with overlap
     ethr =  3.59E-10,  avg # of iterations =  5.5

     negative rho (up, down):  5.792E-01 5.792E-01

     total cpu time spent up to now is     1515.1 secs

     total energy              =   -3362.58912356 Ry
     estimated scf accuracy    <       0.00000125 Ry

     total magnetization       =    -0.08 Bohr mag/cell
     absolute magnetization    =     0.08 Bohr mag/cell

     iteration # 24     ecut=   120.00 Ry     beta= 0.70
     Davidson diagonalization with overlap
     ethr =  2.82E-10,  avg # of iterations =  6.0

     negative rho (up, down):  5.792E-01 5.792E-01

     Magnetic moment per site  (integrated on atomic sphere of radius R)
     atom   1 (R=0.039)  charge=  0.0280  magn= -0.0000
     atom   2 (R=0.039)  charge=  0.2729  magn= -0.0000
     atom   3 (R=0.039)  charge=  0.2740  magn= -0.0000
     atom   4 (R=0.039)  charge=  0.2778  magn= -0.0000
     atom   5 (R=0.039)  charge=  0.2775  magn= -0.0000
     atom   6 (R=0.039)  charge=  0.3910  magn= -0.0000
     atom   7 (R=0.039)  charge=  0.3915  magn= -0.0000
     atom   8 (R=0.039)  charge=  0.0809  magn= -0.0000
     atom   9 (R=0.039)  charge=  0.0813  magn= -0.0000
     atom  10 (R=0.039)  charge=  0.3912  magn= -0.0000
     atom  11 (R=0.039)  charge=  0.3915  magn= -0.0000
     atom  12 (R=0.039)  charge=  0.3674  magn= -0.0000
     atom  13 (R=0.039)  charge=  0.3666  magn= -0.0000
     atom  14 (R=0.039)  charge=  0.3670  magn= -0.0002
     atom  15 (R=0.039)  charge=  0.9018  magn= -0.0000
     atom  16 (R=0.039)  charge=  0.9026  magn= -0.0000
     atom  17 (R=0.039)  charge=  0.3675  magn=  0.0000
     atom  18 (R=0.039)  charge=  0.9016  magn= -0.0000
     atom  19 (R=0.039)  charge=  0.9016  magn= -0.0000
     atom  20 (R=0.039)  charge=  1.4748  magn= -0.0000
     atom  21 (R=0.039)  charge=  1.4766  magn= -0.0000
     atom  22 (R=0.039)  charge=  1.4766  magn= -0.0000
     atom  23 (R=0.039)  charge=  1.4774  magn= -0.0000
     atom  24 (R=0.039)  charge=  1.4751  magn= -0.0000
     atom  25 (R=0.039)  charge=  1.4769  magn= -0.0000
     atom  26 (R=0.039)  charge=  1.4769  magn= -0.0000
     atom  27 (R=0.039)  charge=  1.4776  magn= -0.0000
     atom  28 (R=0.039)  charge=  0.0940  magn=  0.0000
     atom  29 (R=0.039)  charge=  0.0938  magn= -0.0000
     atom  30 (R=0.039)  charge=  0.0957  magn= -0.0000
     atom  31 (R=0.039)  charge=  0.0938  magn= -0.0000
     atom  32 (R=0.039)  charge=  1.0802  magn= -0.0000
     atom  33 (R=0.039)  charge=  1.0819  magn= -0.0000
     atom  34 (R=0.039)  charge=  1.0818  magn= -0.0000
     atom  35 (R=0.039)  charge=  1.0828  magn= -0.0000
     atom  36 (R=0.073)  charge=  0.7930  magn= -0.0000

     total cpu time spent up to now is     1580.5 secs

     End of self-consistent calculation

 ------ SPIN UP ------------


          k = 0.0000 0.0000 0.0000 ( 43590 PWs)   bands (ev):

  -153.2799-152.9684-149.7235-149.6148-143.5408-142.5572-111.6066 -89.3782
   -89.3375 -89.2790 -89.2515 -88.8500 -88.7238 -80.1058 -79.6582 -77.3226
   -66.9897 -66.9013 -64.4128 -64.4057 -55.6410 -55.5439 -55.5236 -55.4664
   -51.3282 -51.1940 -50.5201 -50.2432 -46.4602 -45.6658 -45.1496 -45.1088
   -44.8759 -44.8319 -44.7659 -44.6484 -44.6266 -44.3942 -43.8777 -43.8066
   -40.4727 -40.4451 -40.4073 -40.3901 -37.2444 -37.1875 -36.5122 -36.1845
   -34.7215 -34.6970 -34.6359 -34.2813 -32.6578 -31.6595 -31.0664 -31.0241
   -31.0075 -30.7185 -30.6730 -30.6705 -30.6640 -30.5939 -26.3298 -26.2027
   -20.8521 -19.0014 -18.6140 -18.3971 -17.1474 -17.0316 -16.9698 -16.8896
   -16.7641 -16.7219 -16.6415 -16.6145 -16.5752 -16.5375 -15.7043 -15.4790
   -15.2047 -13.5235 -13.4756 -13.4307 -13.4061 -13.4038 -13.3507 -13.3383
   -13.3209 -13.2190 -12.6416 -12.5063 -12.4881 -12.3968 -12.3497 -12.3114
   -12.2912 -12.1927 -10.5149 -10.4906  -9.4292  -9.3877  -9.3441  -9.3211
    -9.2606  -9.1849  -9.1468  -9.0919  -9.0349  -8.6600  -8.4907  -8.4758
    -7.7701  -7.6711  -7.5967  -7.5493  -5.0192  -4.9917  -4.9078  -4.8681
    -4.8386  -3.0062  -2.9808  -2.5747  -2.4499  -2.0565  -2.0105  -0.8035
    -0.7234  -0.6584  -0.6404  -0.5926  -0.4716   0.4853   1.3707   1.4123
     1.4578   1.4947   2.5362   2.5744   3.0112   3.0493   3.7370   3.8805
     4.1634   4.5896   5.5330   5.5444   5.6961   5.7512   6.0798   6.5919
     6.8259   7.7012   7.7300   7.7642   7.8116   7.8220   7.9702   7.9884
     8.3379   8.5136   8.5793   9.1603  10.0491  10.3118  10.4893  10.5227
    10.5797  10.9423  10.9575  11.0273  11.0958  11.2235  11.3981  11.4573
    11.6155  11.6809  11.9103  12.2100  12.3091  12.3943  12.4975  12.5689
    12.7474  12.7898  12.7949  13.1656  13.4460  14.0731  14.6490  14.7996
    14.9107  15.1731  15.2339  15.3049  15.4098  15.4922  15.5880  15.6954
    15.8853  16.0208  16.0894  16.1585  16.2407  16.2842  16.4220  16.4415
    16.5001  16.7612  16.8589  16.9785  17.1160  17.1770  17.6198  17.6377
    17.6668  17.8366  17.8905  17.9348  17.9784  18.0336  18.0831  18.1440
    18.2229  18.2450  18.3820  18.4928  18.5556  18.7662  18.8711  18.9429
    19.0272  19.0457  19.1446  19.1805  19.2463  19.2673  19.4559  19.5390
    19.6628  19.7125  19.8797  19.9586  20.0455  20.1434  20.1936  20.2167
    20.3042  20.3699  20.4068  20.4374  20.5017  20.6219  20.6552  20.8293
    20.8949  20.9419  21.0622  21.1598  21.3227  21.3907  21.4728  21.5248
    21.6110  21.6276

 ------ SPIN DOWN ----------


          k = 0.0000 0.0000 0.0000 ( 43590 PWs)   bands (ev):

  -153.2799-152.9688-149.7236-149.6148-143.5408-142.5573-111.6066 -89.3783
   -89.3376 -89.2791 -89.2517 -88.8500 -88.7239 -80.1058 -79.6583 -77.3227
   -66.9897 -66.9015 -64.4128 -64.4057 -55.6410 -55.5440 -55.5236 -55.4664
   -51.3283 -51.1940 -50.5202 -50.2435 -46.4603 -45.6658 -45.1496 -45.1089
   -44.8760 -44.8319 -44.7659 -44.6484 -44.6267 -44.3942 -43.8777 -43.8066
   -40.4727 -40.4451 -40.4074 -40.3902 -37.2437 -37.1881 -36.5171 -36.1847
   -34.7217 -34.6972 -34.6359 -34.2814 -32.6578 -31.6596 -31.0666 -31.0242
   -31.0075 -30.7186 -30.6730 -30.6706 -30.6640 -30.5939 -26.3300 -26.2027
   -20.8522 -19.0014 -18.6140 -18.3972 -17.1477 -17.0317 -16.9699 -16.8899
   -16.7644 -16.7222 -16.6416 -16.6148 -16.5754 -16.5376 -15.7045 -15.4791
   -15.2048 -13.5237 -13.4754 -13.4306 -13.4063 -13.4042 -13.3511 -13.3385
   -13.3213 -13.2193 -12.6475 -12.5116 -12.4927 -12.3970 -12.3498 -12.3115
   -12.2913 -12.1930 -10.5150 -10.4906  -9.4292  -9.3877  -9.3443  -9.3212
    -9.2606  -9.1847  -9.1469  -9.0920  -9.0349  -8.6603  -8.4906  -8.4757
    -7.7702  -7.6713  -7.5967  -7.5494  -5.0194  -4.9919  -4.9078  -4.8682
    -4.8386  -3.0064  -2.9809  -2.5749  -2.4500  -2.0565  -2.0106  -0.8037
    -0.7234  -0.6584  -0.6404  -0.5926  -0.4717   0.4853   1.3707   1.4122
     1.4578   1.4947   2.5361   2.5743   3.0111   3.0493   3.7369   3.8803
     4.1633   4.5896   5.5329   5.5442   5.6960   5.7511   6.0798   6.5919
     6.8258   7.7011   7.7299   7.7641   7.8116   7.8219   7.9701   7.9884
     8.3379   8.5135   8.5792   9.1602  10.0488  10.3117  10.4891  10.5226
    10.5796  10.9422  10.9573  11.0271  11.0956  11.2233  11.3980  11.4571
    11.6153  11.6808  11.9100  12.2098  12.3090  12.3942  12.4973  12.5687
    12.7472  12.7897  12.7947  13.1654  13.4458  14.0726  14.6488  14.7993
    14.9097  15.1726  15.2336  15.3046  15.4096  15.4916  15.5880  15.6948
    15.8849  16.0200  16.0886  16.1583  16.2405  16.2840  16.4213  16.4405
    16.4992  16.7608  16.8582  16.9775  17.1150  17.1752  17.6195  17.6375
    17.6666  17.8346  17.8898  17.9341  17.9772  18.0313  18.0803  18.1434
    18.2222  18.2395  18.3817  18.4922  18.5553  18.7658  18.8703  18.9427
    19.0264  19.0451  19.1429  19.1801  19.2458  19.2671  19.4556  19.5385
    19.6623  19.7121  19.8793  19.9585  20.0448  20.1416  20.1929  20.2163
    20.3038  20.3694  20.4060  20.4368  20.5010  20.6215  20.6548  20.8289
    20.8944  20.9410  21.0614  21.1585  21.3210  21.3894  21.4720  21.5239
    21.6103  21.6274

     the Fermi energy is    18.0401 ev

!    total energy              =   -3362.58913666 Ry
     estimated scf accuracy    <       0.00000031 Ry
     smearing contrib. (-TS)   =      -0.10399942 Ry
     internal energy E=F+TS    =   -3362.48513723 Ry

     total magnetization       =    -0.02 Bohr mag/cell
     absolute magnetization    =     0.03 Bohr mag/cell

     convergence has been achieved in  24 iterations

     negative rho (up, down):  5.792E-01 5.792E-01

     Forces acting on atoms (cartesian axes, Ry/au):

     atom    1 type  1   force =     0.03221175   -0.03130272   -0.01486119
     atom    2 type  1   force =     0.00532888   63.77441215    0.02842804
     atom    3 type  1   force =     0.00220710  -64.17367736    0.00841930
     atom    4 type  1   force =    63.84860634   -0.00345250   -0.06613492
     atom    5 type  1   force =   -63.85724321    0.00500683   -0.06878541
     atom    6 type  2   force =    -0.00526769  109.81464294   -0.08535489
     atom    7 type  2   force =     0.00295301 -109.81770834   -0.07198212
     atom    8 type  2   force =    -0.05496328    0.04610041   -0.01977022
     atom    9 type  2   force =    -0.03330052   -0.05412861    0.00092053
     atom   10 type  2   force =   109.73710594    0.00847116    0.08422069
     atom   11 type  2   force =  -109.74039325   -0.00863530    0.08440308
     atom   12 type  3   force =     0.05245341    0.04039039   -0.00702723
     atom   13 type  3   force =     0.02527056    0.03747147    0.02210133
     atom   14 type  3   force =     0.01361469   -0.00802777   -0.06433851
     atom   15 type  3   force =     0.00925784  118.89817808    0.08204476
     atom   16 type  3   force =    -0.01009918 -118.89686787    0.07054682
     atom   17 type  3   force =    -0.04966225   -0.05960281   -0.01590364
     atom   18 type  3   force =   118.90908717    0.00653991   -0.00417910
     atom   19 type  3   force =  -118.90541537   -0.00508471   -0.00917072
     atom   20 type  3   force =   128.31305015  128.42886739   -0.00877776
     atom   21 type  3   force =   128.32876757 -128.44922785    0.00798380
     atom   22 type  3   force =  -128.33600458  128.42454571    0.00186194
     atom   23 type  3   force =  -128.30679923 -128.40507241    0.00244451
     atom   24 type  3   force =   128.32924989  128.19212248   -0.02486401
     atom   25 type  3   force =   128.30797263 -128.18415183   -0.02724670
     atom   26 type  3   force =  -128.32183930  128.16650062   -0.02813058
     atom   27 type  3   force =  -128.31726794 -128.17917839   -0.03111636
     atom   28 type  4   force =    -0.00460913    0.01467074   -0.01117371
     atom   29 type  4   force =     0.00817373   -0.01746818   -0.00420948
     atom   30 type  4   force =     0.01529268    0.01698887    0.04266230
     atom   31 type  4   force =     0.00853880    0.02447318    0.00029021
     atom   32 type  4   force =   120.76517496  120.75050300    0.03613563
     atom   33 type  4   force =   120.74176549 -120.73312835    0.02392068
     atom   34 type  4   force =  -120.75048532  120.73630698    0.03339003
     atom   35 type  4   force =  -120.75938540 -120.74767587    0.03572147
     atom   36 type  5   force =    -0.00334696    0.38819858   -0.00246854
     The non-local contrib.  to forces
     atom    1 type  1   force =    -0.24032935    0.21937206    0.03739640
     atom    2 type  1   force =    -0.00084667  -59.55637133   -0.00581576
     atom    3 type  1   force =    -0.02255328   60.28284529    0.01011831
     atom    4 type  1   force =   -60.46329687    0.00005156    0.12468068
     atom    5 type  1   force =    60.47379256   -0.00663500    0.11131642
     atom    6 type  2   force =    -0.00601462  -42.48866353    0.10480403
     atom    7 type  2   force =    -0.01034406   42.50397788    0.10425988
     atom    8 type  2   force =     0.23369287   -0.29416813    0.01662397
     atom    9 type  2   force =     0.26028553    0.25660347    0.01013515
     atom   10 type  2   force =   -42.56543576    0.02574638   -0.11707818
     atom   11 type  2   force =    42.58144842    0.00255082   -0.10810485
     atom   12 type  3   force =     0.07739610    0.07506080   -0.00375499
     atom   13 type  3   force =    -0.00290777   -0.01265898    0.02201148
     atom   14 type  3   force =     0.00653059   -0.00920489   -0.12396757
     atom   15 type  3   force =     0.00532393   -6.89123136    0.00985950
     atom   16 type  3   force =    -0.01990784    6.85626814    0.00425680
     atom   17 type  3   force =    -0.09133700   -0.08231381    0.01319526
     atom   18 type  3   force =    -6.84702150    0.00906169    0.03580143
     atom   19 type  3   force =     6.90066619   -0.00838903    0.03207353
     atom   20 type  3   force =   -13.93985228  -13.79300574   -0.04011189
     atom   21 type  3   force =   -13.90391959   13.71997967   -0.00425401
     atom   22 type  3   force =    13.92101541  -13.77430193   -0.02885092
     atom   23 type  3   force =    13.98801858   13.80046057   -0.00840430
     atom   24 type  3   force =   -14.05704464  -14.27540032   -0.07832972
     atom   25 type  3   force =   -14.06482560   14.28532596   -0.07948865
     atom   26 type  3   force =    14.05679909  -14.29726929   -0.08058149
     atom   27 type  3   force =    14.06530141   14.30011058   -0.10251353
     atom   28 type  4   force =     0.08150092    0.04186373    0.02626675
     atom   29 type  4   force =     0.06442854   -0.03709806    0.03252578
     atom   30 type  4   force =     0.01489366    0.00274393    0.01472424
     atom   31 type  4   force =    -0.07109013    0.03462928    0.03246230
     atom   32 type  4   force =    -4.90976847   -4.91884913   -0.08362136
     atom   33 type  4   force =    -4.91459941    4.91846023   -0.11321148
     atom   34 type  4   force =     4.92381589   -4.93006743   -0.11645275
     atom   35 type  4   force =     4.91489470    4.92200670   -0.08129514
     atom   36 type  5   force =    -0.00133732   -0.12252305   -0.00500858
     The ionic contribution  to forces
     atom    1 type  1   force =    15.44156599  -14.51512519   21.06187981
     atom    2 type  1   force =    -0.44829233  156.89067339   -0.59015529
     atom    3 type  1   force =    -0.73123510 -162.26505018   -0.29185292
     atom    4 type  1   force =   163.08708254   -0.13309860  -34.79300094
     atom    5 type  1   force =  -162.38372543   -0.27895370  -34.94777562
     atom    6 type  2   force =    -0.27593138  191.26986269  -37.19286439
     atom    7 type  2   force =    -0.43394108 -190.93372011  -37.25199846
     atom    8 type  2   force =   -16.20026489   15.91337209   23.46456651
     atom    9 type  2   force =   -17.75455138  -17.86285510  -23.43380644
     atom   10 type  2   force =   190.91604701    0.42375877   38.59687383
     atom   11 type  2   force =  -190.15407681    0.26574908   38.76454639
     atom   12 type  3   force =    16.12849603   16.09771231   23.38219983
     atom   13 type  3   force =    -0.79217135    1.55196983   -1.43553300
     atom   14 type  3   force =    -0.43394108    0.49840951   40.22111621
     atom   15 type  3   force =    -0.27593138  190.05525970   37.85873437
     atom   16 type  3   force =    -0.43394108 -190.95549251   37.60689178
     atom   17 type  3   force =   -16.98447224  -15.72471896   23.13476370
     atom   18 type  3   force =   189.52503961    0.35571484   -1.24106099
     atom   19 type  3   force =  -188.14488171    0.04919351   -1.24106099
     atom   20 type  3   force =   255.66196282  254.63960404    0.59076257
     atom   21 type  3   force =   255.96419450 -255.29654465    0.83494005
     atom   22 type  3   force =  -254.78581837  254.83709617    0.59076257
     atom   23 type  3   force =  -254.58403660 -254.99002333    0.83494005
     atom   24 type  3   force =   256.29808383  256.64728068  -38.86735860
     atom   25 type  3   force =   256.40748425 -256.39884373  -38.91921235
     atom   26 type  3   force =  -255.79703865  256.75019600  -38.95462719
     atom   27 type  3   force =  -255.64551405 -256.24083403  -39.08688492
     atom   28 type  4   force =    15.73268856   16.63124167  -22.22892599
     atom   29 type  4   force =    16.15240828  -16.48878932  -21.33791925
     atom   30 type  4   force =    -0.40056099   -0.20127789  -36.09341162
     atom   31 type  4   force =   -15.79893674   16.46108147  -22.30495677
     atom   32 type  4   force =   218.18344379  217.62723478   35.87486555
     atom   33 type  4   force =   218.33421478 -218.31478864   35.70727168
     atom   34 type  4   force =  -217.72094054  217.72223354   35.95542118
     atom   35 type  4   force =  -217.63085767 -218.16893354   35.86204635
     atom   36 type  5   force =    -0.02165113    4.08140540   -0.13017670
     The local contribution  to forces
     atom    1 type  1   force =   -15.15154984   14.24920273  -21.11749679
     atom    2 type  1   force =     0.45343602  -23.98415294    0.62563045
     atom    3 type  1   force =     0.75632254   28.17883318    0.29039322
     atom    4 type  1   force =   -29.15132714    0.12871094   34.58514585
     atom    5 type  1   force =    28.42662034    0.29149561   34.75379510
     atom    6 type  2   force =     0.27586279  -33.84681075   36.99581361
     atom    7 type  2   force =     0.44688113   33.49249177   37.06843116
     atom    8 type  2   force =    15.89203717  -15.55173474  -23.50436747
     atom    9 type  2   force =    17.43796347   17.53400638   23.42593386
     atom   10 type  2   force =   -33.49096784   -0.44108957  -38.38745675
     atom   11 type  2   force =    32.71073245   -0.27809010  -38.56355573
     atom   12 type  3   force =   -16.14455271  -16.12254813  -23.38566244
     atom   13 type  3   force =     0.82061495   -1.50283329    1.43677802
     atom   14 type  3   force =     0.44159432   -0.49809589  -40.17787084
     atom   15 type  3   force =     0.28004650  -63.18158276  -37.78439520
     atom   16 type  3   force =     0.44328158   64.11733439  -37.53833566
     atom   17 type  3   force =    17.01611124   15.73790117  -23.16343863
     atom   18 type  3   force =   -62.68783827   -0.35835831    1.20270440
     atom   19 type  3   force =    61.25925923   -0.04624816    1.20137262
     atom   20 type  3   force =  -112.32473075 -111.33127307   -0.56012252
     atom   21 type  3   force =  -112.64722345  112.04063822   -0.82288737
     atom   22 type  3   force =   111.44466949 -111.55231560   -0.56061205
     atom   23 type  3   force =   111.20557371  111.69867127   -0.82419086
     atom   24 type  3   force =  -112.82781398 -113.09768219   38.91803617
     atom   25 type  3   force =  -112.95075684  112.84744378   38.96876134
     atom   26 type  3   force =   112.33442937 -113.20480094   39.00444415
     atom   27 type  3   force =   112.17929845  112.68020998   39.15494531
     atom   28 type  4   force =   -15.81082954  -16.65201267   22.19248629
     atom   29 type  4   force =   -16.20132721   16.50258361   21.30293208
     atom   30 type  4   force =     0.40210185    0.21602045   36.12876362
     atom   31 type  4   force =    15.87118192  -16.46527704   22.27424565
     atom   32 type  4   force =   -91.09196452  -90.54084867  -35.75720336
     atom   33 type  4   force =   -91.26134710   91.24681882  -35.57284663
     atom   34 type  4   force =    90.63037859  -90.63938002  -35.80886044
     atom   35 type  4   force =    90.53959187   91.08280982  -35.74703899
     atom   36 type  5   force =     0.01964206   -3.57069976    0.13271750
     The core correction contribution to forces
     atom    1 type  1   force =    -0.01756778    0.01509181    0.00382615
     atom    2 type  1   force =     0.00103662   -9.57564438   -0.00120102
     atom    3 type  1   force =    -0.00035822    9.62979489   -0.00023294
     atom    4 type  1   force =    -9.62378792    0.00088699    0.01647422
     atom    5 type  1   force =     9.62620365   -0.00089441    0.01331393
     atom    6 type  2   force =     0.00070376   -5.11964040    0.00648697
     atom    7 type  2   force =     0.00024762    5.11945895    0.00688403
     atom    8 type  2   force =     0.01969091   -0.02131380    0.00395187
     atom    9 type  2   force =     0.02325708    0.01808628   -0.00188335
     atom   10 type  2   force =    -5.12246365    0.00002366   -0.00755655
     atom   11 type  2   force =     5.12149460    0.00108075   -0.00796528
     atom   12 type  3   force =    -0.00900580   -0.00971788    0.00072132
     atom   13 type  3   force =    -0.00032575    0.00084372   -0.00106319
     atom   14 type  3   force =    -0.00064011    0.00082532    0.01730946
     atom   15 type  3   force =    -0.00018347   -1.08402411   -0.00174981
     atom   16 type  3   force =     0.00041968    1.08489810   -0.00178910
     atom   17 type  3   force =     0.01014579    0.00937404    0.00017661
     atom   18 type  3   force =    -1.08123633   -0.00001899   -0.00161750
     atom   19 type  3   force =     1.07975132    0.00017015   -0.00150882
     atom   20 type  3   force =    -1.08451054   -1.08635754    0.00061434
     atom   21 type  3   force =    -1.08442301    1.08687936    0.00009978
     atom   22 type  3   force =     1.08428413   -1.08580249    0.00052587
     atom   23 type  3   force =     1.08383662    1.08604720    0.00003971
     atom   24 type  3   force =    -1.08404172   -1.08200144    0.00259504
     atom   25 type  3   force =    -1.08398544    1.08189475    0.00244608
     atom   26 type  3   force =     1.08417741   -1.08156575    0.00245417
     atom   27 type  3   force =     1.08384384    1.08132396    0.00309905
     atom   28 type  4   force =    -0.00825469   -0.00638983   -0.00147591
     atom   29 type  4   force =    -0.00762014    0.00576765   -0.00227793
     atom   30 type  4   force =    -0.00129140   -0.00053253   -0.00821805
     atom   31 type  4   force =     0.00765377   -0.00599083   -0.00185114
     atom   32 type  4   force =    -1.41654658   -1.41691421    0.00226514
     atom   33 type  4   force =    -1.41648805    1.41634959    0.00294525
     atom   34 type  4   force =     1.41624834   -1.41635025    0.00338965
     atom   35 type  4   force =     1.41698664    1.41643833    0.00220033
     atom   36 type  5   force =     0.00000000    0.00000000    0.00000000
     The Hubbard contrib.    to forces
     atom    1 type  1   force =     0.00000000    0.00000000    0.00000000
     atom    2 type  1   force =     0.00000000    0.00000000    0.00000000
     atom    3 type  1   force =     0.00000000    0.00000000    0.00000000
     atom    4 type  1   force =     0.00000000    0.00000000    0.00000000
     atom    5 type  1   force =     0.00000000    0.00000000    0.00000000
     atom    6 type  2   force =     0.00000000    0.00000000    0.00000000
     atom    7 type  2   force =     0.00000000    0.00000000    0.00000000
     atom    8 type  2   force =     0.00000000    0.00000000    0.00000000
     atom    9 type  2   force =     0.00000000    0.00000000    0.00000000
     atom   10 type  2   force =     0.00000000    0.00000000    0.00000000
     atom   11 type  2   force =     0.00000000    0.00000000    0.00000000
     atom   12 type  3   force =     0.00000000    0.00000000    0.00000000
     atom   13 type  3   force =     0.00000000    0.00000000    0.00000000
     atom   14 type  3   force =     0.00000000    0.00000000    0.00000000
     atom   15 type  3   force =     0.00000000    0.00000000    0.00000000
     atom   16 type  3   force =     0.00000000    0.00000000    0.00000000
     atom   17 type  3   force =     0.00000000    0.00000000    0.00000000
     atom   18 type  3   force =     0.00000000    0.00000000    0.00000000
     atom   19 type  3   force =     0.00000000    0.00000000    0.00000000
     atom   20 type  3   force =     0.00000000    0.00000000    0.00000000
     atom   21 type  3   force =     0.00000000    0.00000000    0.00000000
     atom   22 type  3   force =     0.00000000    0.00000000    0.00000000
     atom   23 type  3   force =     0.00000000    0.00000000    0.00000000
     atom   24 type  3   force =     0.00000000    0.00000000    0.00000000
     atom   25 type  3   force =     0.00000000    0.00000000    0.00000000
     atom   26 type  3   force =     0.00000000    0.00000000    0.00000000
     atom   27 type  3   force =     0.00000000    0.00000000    0.00000000
     atom   28 type  4   force =     0.00000000    0.00000000    0.00000000
     atom   29 type  4   force =     0.00000000    0.00000000    0.00000000
     atom   30 type  4   force =     0.00000000    0.00000000    0.00000000
     atom   31 type  4   force =     0.00000000    0.00000000    0.00000000
     atom   32 type  4   force =     0.00000000    0.00000000    0.00000000
     atom   33 type  4   force =     0.00000000    0.00000000    0.00000000
     atom   34 type  4   force =     0.00000000    0.00000000    0.00000000
     atom   35 type  4   force =     0.00000000    0.00000000    0.00000000
     atom   36 type  5   force =     0.00000000    0.00000000    0.00000000
     The SCF correction term to forces
     atom    1 type  1   force =     0.00000000    0.00000000   -0.00000000
     atom    2 type  1   force =    -0.00000000   -0.00000000   -0.00000000
     atom    3 type  1   force =     0.00000000   -0.00000000   -0.00000000
     atom    4 type  1   force =    -0.00000000   -0.00000000    0.00000000
     atom    5 type  1   force =    -0.00000000   -0.00000000    0.00000000
     atom    6 type  2   force =     0.00000000   -0.00000000    0.00000000
     atom    7 type  2   force =     0.00000000    0.00000000    0.00000000
     atom    8 type  2   force =    -0.00000000   -0.00000000   -0.00000000
     atom    9 type  2   force =    -0.00000000    0.00000000    0.00000000
     atom   10 type  2   force =    -0.00000000    0.00000000   -0.00000000
     atom   11 type  2   force =     0.00000000    0.00000000   -0.00000000
     atom   12 type  3   force =     0.00000000   -0.00000000   -0.00000000
     atom   13 type  3   force =     0.00000000    0.00000000   -0.00000000
     atom   14 type  3   force =     0.00000000    0.00000000   -0.00000000
     atom   15 type  3   force =    -0.00000000   -0.00000000   -0.00000000
     atom   16 type  3   force =     0.00000000    0.00000000   -0.00000000
     atom   17 type  3   force =    -0.00000000    0.00000000   -0.00000000
     atom   18 type  3   force =     0.00000000    0.00000000   -0.00000000
     atom   19 type  3   force =    -0.00000000    0.00000000   -0.00000000
     atom   20 type  3   force =     0.00000000   -0.00000000    0.00000000
     atom   21 type  3   force =     0.00000000   -0.00000000    0.00000000
     atom   22 type  3   force =    -0.00000000   -0.00000000    0.00000000
     atom   23 type  3   force =    -0.00019442   -0.00023572    0.00005069
     atom   24 type  3   force =     0.00006352   -0.00008185    0.00018389
     atom   25 type  3   force =     0.00005338    0.00001980    0.00023766
     atom   26 type  3   force =    -0.00020940   -0.00006701    0.00017058
     atom   27 type  3   force =    -0.00020046    0.00000352    0.00022852
     atom   28 type  4   force =     0.00028274   -0.00003976    0.00046594
     atom   29 type  4   force =     0.00028138    0.00006034    0.00052064
     atom   30 type  4   force =     0.00014667    0.00002731    0.00079490
     atom   31 type  4   force =    -0.00027290    0.00002270    0.00038095
     atom   32 type  4   force =     0.00000786   -0.00012738   -0.00017954
     atom   33 type  4   force =    -0.00001761    0.00002405   -0.00024734
     atom   34 type  4   force =     0.00000951   -0.00013646   -0.00011680
     atom   35 type  4   force =    -0.00000382   -0.00000478   -0.00020029
     atom   36 type  5   force =    -0.00000346    0.00000838   -0.00000997

     Total force =   530.259840     Total SCF correction =     0.001442

     Molecular Dynamics Calculation

     Starting temperature  =   300.00 K

     temperature is set once at start

     mass Hf               =   178.49
     mass Ta               =   180.95
     mass Nb               =    92.91
     mass Zr               =    91.22
     mass H                =     2.01
     Time step             =     2.10 a.u.,  0.1016 femto-seconds

     Entering Dynamics:    iteration =     1
                           time      =   0.0001 pico-seconds


ATOMIC_POSITIONS (angstrom)
Hf            1.8699999570        5.2099998710        7.0099998710    0   0   0
Hf            3.5399999140        0.2000000000        5.3399999140    0   0   0
Hf            3.5399999140        6.8799998280        5.3399999140    0   0   0
Hf            0.2000000000        3.5399999140        2.0000000000    0   0   0
Hf            6.8799998280        3.5399999140        2.0000000000    0   0   0
Ta            3.5399999140        0.2000000000        2.0000000000    0   0   0
Ta            3.5399999140        6.8799998280        2.0000000000    0   0   0
Ta            5.2099998710        1.8699999570        7.0099998710    0   0   0
Ta            5.2099998710        5.2099998710        3.6699999570    0   0   0
Ta            0.2000000000        3.5399999140        8.6799998280    0   0   0
Ta            6.8799998280        3.5399999140        8.6799998280    0   0   0
Nb            1.8699999570        1.8699999570        7.0099998710    0   0   0
Nb            3.5399999140        3.5399999140        5.3399999140    0   0   0
Nb            3.5399999140        3.5399999140        8.6799998280    0   0   0
Nb            3.5399999140        0.2000000000        8.6799998280    0   0   0
Nb            3.5399999140        6.8799998280        8.6799998280    0   0   0
Nb            5.2099998710        5.2099998710        7.0099998710    0   0   0
Nb            0.2000000000        3.5399999140        5.3399999140    0   0   0
Nb            6.8799998280        3.5399999140        5.3399999140    0   0   0
Nb            0.2000000000        0.2000000000        5.3399999140    0   0   0
Nb            0.2000000000        6.8799998280        5.3399999140    0   0   0
Nb            6.8799998280        0.2000000000        5.3399999140    0   0   0
Nb            6.8782318217        6.8782304676        5.3399999477
Nb            0.2017683156        0.2017664261        1.9999996574
Nb            0.2017680224        6.8782335118        1.9999996246
Nb            6.8782316145        0.2017660730        1.9999996124
Nb            6.8782316775        6.8782335803        1.9999995712
Zr            1.8699998923        1.8700001629        3.6699998002
Zr            1.8700000717        5.2099996259        3.6699998979
Zr            3.5400001286        3.5400001524        2.0000005987
Zr            5.2099999908        1.8700003004        3.6699999611
Zr            0.2016947757        0.2016945698        8.6800003351
Zr            0.2016944472        6.8783055020        8.6800001637
Zr            6.8783052585        0.2016943706        8.6800002966
Zr            6.8783051336        6.8783052979        8.6800003293
H             3.5399977865        8.8802465876        5.3127610646


     kinetic energy (Ekin) =           0.55137389 Ry
     temperature           =        4145.47868793 K 
     Ekin + Etot (const)   =       -3362.03776276 Ry

     File outdir/pwscf.msd.dat deleted, as requested

     The maximum number of steps has been reached.

     End of molecular dynamics calculation

     diffusion coefficients :
     atom     1   D =       0.00000000 cm^2/s
     atom     2   D =       0.00000000 cm^2/s
     atom     3   D =       0.00000000 cm^2/s
     atom     4   D =       0.00000000 cm^2/s
     atom     5   D =       0.00000000 cm^2/s
     atom     6   D =       0.00000000 cm^2/s
     atom     7   D =       0.00000000 cm^2/s
     atom     8   D =       0.00000000 cm^2/s
     atom     9   D =       0.00000000 cm^2/s
     atom    10   D =       0.00000000 cm^2/s
     atom    11   D =       0.00000000 cm^2/s
     atom    12   D =       0.00000000 cm^2/s
     atom    13   D =       0.00000000 cm^2/s
     atom    14   D =       0.00000000 cm^2/s
     atom    15   D =       0.00000000 cm^2/s
     atom    16   D =       0.00000000 cm^2/s
     atom    17   D =       0.00000000 cm^2/s
     atom    18   D =       0.00000000 cm^2/s
     atom    19   D =       0.00000000 cm^2/s
     atom    20   D =       0.00000000 cm^2/s
     atom    21   D =       0.00000000 cm^2/s
     atom    22   D =       0.00000000 cm^2/s
     atom    23   D =       0.00000103 cm^2/s
     atom    24   D =       0.00000102 cm^2/s
     atom    25   D =       0.00000102 cm^2/s
     atom    26   D =       0.00000102 cm^2/s
     atom    27   D =       0.00000102 cm^2/s
     atom    28   D =       0.00000000 cm^2/s
     atom    29   D =       0.00000000 cm^2/s
     atom    30   D =       0.00000000 cm^2/s
     atom    31   D =       0.00000000 cm^2/s
     atom    32   D =       0.00000094 cm^2/s
     atom    33   D =       0.00000094 cm^2/s
     atom    34   D =       0.00000094 cm^2/s
     atom    35   D =       0.00000094 cm^2/s
     atom    36   D =       0.00012173 cm^2/s

     < D > =       0.00000933 cm^2/s

     Writing all to output data dir outdir/pwscf.save/

     init_run     :     37.15s CPU     37.87s WALL (       1 calls)
     electrons    :   1528.36s CPU   1541.98s WALL (       1 calls)
     forces       :     24.75s CPU     24.98s WALL (       1 calls)

     Called by init_run:
     wfcinit      :     32.66s CPU     32.87s WALL (       1 calls)
     potinit      :      0.81s CPU      0.88s WALL (       1 calls)
     hinit0       :      1.54s CPU      1.59s WALL (       1 calls)

     Called by electrons:
     c_bands      :   1299.38s CPU   1304.99s WALL (      24 calls)
     sum_band     :    175.69s CPU    180.33s WALL (      24 calls)
     v_of_rho     :      4.01s CPU      4.13s WALL (      25 calls)
     newd         :     50.75s CPU     54.38s WALL (      25 calls)
     mix_rho      :      0.64s CPU      0.64s WALL (      24 calls)

     Called by c_bands:
     init_us_2    :      1.41s CPU      1.42s WALL (     100 calls)
     init_us_2:cp :      1.41s CPU      1.42s WALL (     100 calls)
     regterg      :   1292.36s CPU   1297.92s WALL (      48 calls)

     Called by *egterg:
     rdiaghg      :     20.47s CPU     20.59s WALL (     275 calls)
     h_psi        :    516.93s CPU    520.51s WALL (     277 calls)
     s_psi        :    192.83s CPU    193.05s WALL (     277 calls)
     g_psi        :      0.30s CPU      0.30s WALL (     227 calls)

     Called by h_psi:
     h_psi:calbec :    268.10s CPU    268.48s WALL (     277 calls)
     vloc_psi     :     54.87s CPU     57.84s WALL (     277 calls)
     add_vuspsi   :    193.27s CPU    193.52s WALL (     277 calls)

     General routines
     calbec       :    395.80s CPU    396.31s WALL (     333 calls)
     fft          :      3.57s CPU      3.65s WALL (     390 calls)
     ffts         :      0.09s CPU      0.09s WALL (      24 calls)
     fftw         :     57.27s CPU     60.36s WALL (   37638 calls)

     Parallel routines

     PWSCF        :  26m31.15s CPU  26m46.27s WALL


   This run was terminated on:  17:36:49   4Jun2023            

=------------------------------------------------------------------------------=
   JOB DONE.
=------------------------------------------------------------------------------=
