
     Program PWSCF v.7.2 starts on 11Jun2023 at 22:28:53 

     This program is part of the open-source Quantum ESPRESSO suite
     for quantum simulation of materials; please cite
         "P. Giannozzi et al., J. Phys.:Condens. Matter 21 395502 (2009);
         "P. Giannozzi et al., J. Phys.:Condens. Matter 29 465901 (2017);
         "P. Giannozzi et al., J. Chem. Phys. 152 154105 (2020);
          URL http://www.quantum-espresso.org", 
     in publications or presentations arising from this work. More details at
     http://www.quantum-espresso.org/quote

     Parallel version (MPI), running on    42 processors

     MPI processes distributed on     1 nodes
     185477 MiB available memory on the printing compute node when the environment starts

     Reading input from md_data/md_Hf5Nb2Ta10Zr5H_20steps_100eV_incident45_polar90.in
Warning: card &CELL ignored
Warning: card / ignored

     Current dimensions of program PWSCF are:
     Max number of different atomic species (ntypx) = 10
     Max number of k-points (npk) =  40000
     Max angular momentum in pseudopotentials (lmaxx) =  4

     File outdir/pwscf.md deleted, as requested

     gamma-point specific algorithms are used

     R & G space division:  proc/nbgrp/npool/nimage =      42
     Subspace diagonalization in iterative solution of the eigenvalue problem:
     one sub-group per band group will be used
     custom distributed-memory algorithm (size of sub-group:  2*  2 procs)


     Parallelization info
     --------------------
     sticks:   dense  smooth     PW     G-vecs:    dense   smooth      PW
     Min         239     239     59                21459    21459    2676
     Max         242     242     62                21470    21470    2688
     Sum       10131   10131   2529               901547   901547  112647

     Using Slab Decomposition



     bravais-lattice index     =            0
     lattice parameter (alat)  =      16.1383  a.u.
     unit-cell volume          =    5077.2634 (a.u.)^3
     number of atoms/cell      =           23
     number of atomic types    =            5
     number of electrons       =       277.00
     number of Kohn-Sham states=          167
     kinetic-energy cutoff     =     120.0000  Ry
     charge density cutoff     =     480.0000  Ry
     scf convergence threshold =      1.0E-03
     mixing beta               =       0.7000
     number of iterations used =            8  TF        mixing
     energy convergence thresh.=      0.0E+00
     force convergence thresh. =      0.0E+00
     Exchange-correlation=  SLA  PW   PBX  PBC
                           (   1   4   3   4   0   0   0)
     nstep                     =           20


     celldm(1)=  16.138261  celldm(2)=   0.000000  celldm(3)=   0.000000
     celldm(4)=   0.000000  celldm(5)=   0.000000  celldm(6)=   0.000000

     crystal axes: (cart. coord. in units of alat)
               a(1) = (   1.000000   0.000000   0.000000 )  
               a(2) = (   0.000000   1.016393   0.000000 )  
               a(3) = (   0.000000   0.000000   1.188496 )  

     reciprocal axes: (cart. coord. in units 2 pi/alat)
               b(1) = (  1.000000  0.000000  0.000000 )  
               b(2) = (  0.000000  0.983871  0.000000 )  
               b(3) = (  0.000000  0.000000  0.841400 )  


     PseudoPot. # 1 for Hf read from file:
     q-e/pseudo/hf_pbe_v1.uspp.F.UPF
     MD5 check sum: 8ee9378dfe14276e333edf04c5e4aa26
     Pseudo is Ultrasoft + core correction, Zval = 12.0
     Generated by new atomic code, or converted to UPF format
     Using radial grid of  921 points,  8 beta functions with: 
                l(1) =   0
                l(2) =   0
                l(3) =   0
                l(4) =   1
                l(5) =   1
                l(6) =   2
                l(7) =   2
                l(8) =   3
     Q(r) pseudized with  6 coefficients,  rinner =    1.200   1.200   1.200
                                                       1.200   1.200   1.200
                                                       1.200

     PseudoPot. # 2 for Nb read from file:
     q-e/pseudo/nb_pbe_v1.uspp.F.UPF
     MD5 check sum: 573aab8a2fa660278ed4a62cd769473f
     Pseudo is Ultrasoft + core correction, Zval = 13.0
     Generated by new atomic code, or converted to UPF format
     Using radial grid of  887 points,  6 beta functions with: 
                l(1) =   0
                l(2) =   0
                l(3) =   1
                l(4) =   1
                l(5) =   2
                l(6) =   2
     Q(r) pseudized with  6 coefficients,  rinner =    1.000   1.000   1.000
                                                       1.000   1.000

     PseudoPot. # 3 for Ta read from file:
     q-e/pseudo/ta_pbe_v1.uspp.F.UPF
     MD5 check sum: f8bbe9446314a3b8ea5d9f3e3836c939
     Pseudo is Ultrasoft + core correction, Zval = 13.0
     Generated by new atomic code, or converted to UPF format
     Using radial grid of  921 points,  7 beta functions with: 
                l(1) =   0
                l(2) =   0
                l(3) =   1
                l(4) =   1
                l(5) =   2
                l(6) =   2
                l(7) =   3
     Q(r) pseudized with  6 coefficients,  rinner =    1.300   1.300   1.300
                                                       1.300   1.300   1.300
                                                       1.300

     PseudoPot. # 4 for Zr read from file:
     q-e/pseudo/zr_pbe_v1.uspp.F.UPF
     MD5 check sum: 5db81b1e868ab7776c4564c113de050b
     Pseudo is Ultrasoft + core correction, Zval = 12.0
     Generated by new atomic code, or converted to UPF format
     Using radial grid of  887 points,  6 beta functions with: 
                l(1) =   0
                l(2) =   0
                l(3) =   1
                l(4) =   1
                l(5) =   2
                l(6) =   2
     Q(r) pseudized with  6 coefficients,  rinner =    1.200   1.200   1.200
                                                       1.200   1.200

     PseudoPot. # 5 for H  read from file:
     q-e/pseudo/h_pbe_v1.4.uspp.F.UPF
     MD5 check sum: 761ae9a214b05c3daf00ab9f6b793d6f
     Pseudo is Ultrasoft, Zval =  1.0
     Generated by new atomic code, or converted to UPF format
     Using radial grid of  615 points,  2 beta functions with: 
                l(1) =   0
                l(2) =   0
     Q(r) pseudized with  8 coefficients,  rinner =    0.700

     atomic species   valence    mass     pseudopotential
        Hf            12.00   178.49000     Hf( 1.00)
        Nb            13.00    92.90637     Nb( 1.00)
        Ta            13.00   180.94788     Ta( 1.00)
        Zr            12.00    91.22400     Zr( 1.00)
        H              1.00     2.01400     H ( 1.00)

     Starting magnetic structure 
     atomic species   magnetization
        Hf           0.000
        Nb           0.000
        Ta           0.000
        Zr           0.000
        H            0.000

     No symmetry found



   Cartesian axes

     site n.     atom                  positions (alat units)
         1           Hf  tau(   1) = (   0.3126464   0.3310449   0.7732979  )
         2           Hf  tau(   2) = (   0.1467202   0.1506188   0.5923263  )
         3           Hf  tau(   3) = (   0.1470125   0.8653167   0.5957925  )
         4           Hf  tau(   4) = (   0.4785725   0.1506188   0.5923263  )
         5           Hf  tau(   5) = (   0.4782802   0.8653167   0.5957925  )
         6           Nb  tau(   6) = (   0.3126464   0.3275094   0.4116608  )
         7           Nb  tau(   7) = (   0.3126464   0.6881006   0.7769319  )
         8           Ta  tau(   8) = (   0.1416128   0.5083054   0.5938087  )
         9           Ta  tau(   9) = (   0.4836800   0.5083054   0.5938087  )
        10           Ta  tau(  10) = (   0.1530741   0.1538785   0.2410748  )
        11           Ta  tau(  11) = (   0.1525513   0.1532074   0.9478430  )
        12           Ta  tau(  12) = (   0.1526943   0.8636799   0.2396062  )
        13           Ta  tau(  13) = (   0.1531277   0.8624219   0.9468387  )
        14           Ta  tau(  14) = (   0.4722187   0.1538785   0.2410748  )
        15           Ta  tau(  15) = (   0.4727414   0.1532074   0.9478430  )
        16           Ta  tau(  16) = (   0.4725984   0.8636799   0.2396062  )
        17           Ta  tau(  17) = (   0.4721650   0.8624219   0.9468387  )
        18           Zr  tau(  18) = (   0.3126464   0.6869187   0.4130426  )
        19           Zr  tau(  19) = (   0.1456481   0.5060981   0.2341920  )
        20           Zr  tau(  20) = (   0.1452442   0.5098505   0.9543040  )
        21           Zr  tau(  21) = (   0.4796447   0.5060981   0.2341920  )
        22           Zr  tau(  22) = (   0.4800486   0.5098505   0.9543040  )
        23           H   tau(  23) = (   0.6161590   0.5081967   0.7264111  )

     number of k points=     1  Gaussian smearing, width (Ry)=  0.0220
                       cart. coord. in units 2pi/alat
        k(    1) = (   0.0000000   0.0000000   0.0000000), wk =   1.0000000

     Dense  grid:   450774 G-vectors     FFT dimensions: ( 120, 120, 135)

     Estimated max dynamical RAM per process >     123.77 MB

     Estimated total dynamical RAM >       5.08 GB

     Check: negative core charge=   -0.000002
     Generating pointlists ...
     new r_m :   0.1222 (alat units)  1.9717 (a.u.) for type    1
     new r_m :   0.1201 (alat units)  1.9374 (a.u.) for type    2
     new r_m :   0.0773 (alat units)  1.2478 (a.u.) for type    3
     new r_m :   0.1095 (alat units)  1.7671 (a.u.) for type    4
     new r_m :   0.0773 (alat units)  1.2478 (a.u.) for type    5

     Initial potential from superposition of free atoms

     starting charge     266.9726, renormalised to     277.0000

     negative rho (up, down):  9.226E-01 9.226E-01
     Starting wfcs are  287 randomized atomic wfcs

     total cpu time spent up to now is       22.8 secs

     Self-consistent Calculation

     iteration #  1     ecut=   120.00 Ry     beta= 0.70
     Davidson diagonalization with overlap
     ethr =  1.00E-02,  avg # of iterations =  2.0

     negative rho (up, down):  9.867E-01 9.867E-01

     total cpu time spent up to now is       47.9 secs

     total energy              =   -2931.85769886 Ry
     estimated scf accuracy    <     287.49792985 Ry

     total magnetization       =    -0.00 Bohr mag/cell
     absolute magnetization    =     0.10 Bohr mag/cell

     iteration #  2     ecut=   120.00 Ry     beta= 0.70
     Davidson diagonalization with overlap
     ethr =  1.00E-02,  avg # of iterations =  4.5

     negative rho (up, down):  9.417E-01 9.443E-01

     total cpu time spent up to now is       64.7 secs

     total energy              =   -2942.19749111 Ry
     estimated scf accuracy    <      34.86455978 Ry

     total magnetization       =    -0.05 Bohr mag/cell
     absolute magnetization    =     0.46 Bohr mag/cell

     iteration #  3     ecut=   120.00 Ry     beta= 0.70
     Davidson diagonalization with overlap
     ethr =  1.00E-02,  avg # of iterations =  4.0

     negative rho (up, down):  9.673E-01 9.742E-01

     total cpu time spent up to now is       79.8 secs

     total energy              =   -2942.72664005 Ry
     estimated scf accuracy    <      14.70339353 Ry

     total magnetization       =    -0.12 Bohr mag/cell
     absolute magnetization    =     0.72 Bohr mag/cell

     iteration #  4     ecut=   120.00 Ry     beta= 0.70
     Davidson diagonalization with overlap
     ethr =  5.31E-03,  avg # of iterations =  3.0

     negative rho (up, down):  9.661E-01 9.719E-01

     total cpu time spent up to now is       94.2 secs

     total energy              =   -2942.91415727 Ry
     estimated scf accuracy    <       3.38054825 Ry

     total magnetization       =    -0.49 Bohr mag/cell
     absolute magnetization    =     0.95 Bohr mag/cell

     iteration #  5     ecut=   120.00 Ry     beta= 0.70
     Davidson diagonalization with overlap
     ethr =  1.22E-03,  avg # of iterations =  7.0

     negative rho (up, down):  9.436E-01 9.471E-01

     total cpu time spent up to now is      112.6 secs

     total energy              =   -2943.07447452 Ry
     estimated scf accuracy    <       1.68408605 Ry

     total magnetization       =    -0.23 Bohr mag/cell
     absolute magnetization    =     0.55 Bohr mag/cell

     iteration #  6     ecut=   120.00 Ry     beta= 0.70
     Davidson diagonalization with overlap
     ethr =  6.08E-04,  avg # of iterations =  3.5

     negative rho (up, down):  9.294E-01 9.315E-01

     total cpu time spent up to now is      134.4 secs

     total energy              =   -2943.08752389 Ry
     estimated scf accuracy    <       0.97595410 Ry

     total magnetization       =    -0.23 Bohr mag/cell
     absolute magnetization    =     0.48 Bohr mag/cell

     iteration #  7     ecut=   120.00 Ry     beta= 0.70
     Davidson diagonalization with overlap
     ethr =  3.52E-04,  avg # of iterations =  2.0

     negative rho (up, down):  9.115E-01 9.119E-01

     total cpu time spent up to now is      166.2 secs

     total energy              =   -2943.05910315 Ry
     estimated scf accuracy    <       0.29777586 Ry

     total magnetization       =    -0.21 Bohr mag/cell
     absolute magnetization    =     0.44 Bohr mag/cell

     iteration #  8     ecut=   120.00 Ry     beta= 0.70
     Davidson diagonalization with overlap
     ethr =  1.08E-04,  avg # of iterations = 10.0

     negative rho (up, down):  9.067E-01 9.067E-01

     total cpu time spent up to now is      201.9 secs

     total energy              =   -2943.06375568 Ry
     estimated scf accuracy    <       0.17596707 Ry

     total magnetization       =    -0.19 Bohr mag/cell
     absolute magnetization    =     0.37 Bohr mag/cell

     iteration #  9     ecut=   120.00 Ry     beta= 0.70
     Davidson diagonalization with overlap
     ethr =  6.35E-05,  avg # of iterations =  4.0

     negative rho (up, down):  9.081E-01 9.081E-01

     total cpu time spent up to now is      216.5 secs

     total energy              =   -2943.06853949 Ry
     estimated scf accuracy    <       0.04835919 Ry

     total magnetization       =    -0.15 Bohr mag/cell
     absolute magnetization    =     0.29 Bohr mag/cell

     iteration # 10     ecut=   120.00 Ry     beta= 0.70
     Davidson diagonalization with overlap
     ethr =  1.75E-05,  avg # of iterations = 12.0

     negative rho (up, down):  9.090E-01 9.090E-01

     total cpu time spent up to now is      233.4 secs

     total energy              =   -2943.07318517 Ry
     estimated scf accuracy    <       0.02240204 Ry

     total magnetization       =    -0.14 Bohr mag/cell
     absolute magnetization    =     0.25 Bohr mag/cell

     iteration # 11     ecut=   120.00 Ry     beta= 0.70
     Davidson diagonalization with overlap
     ethr =  8.09E-06,  avg # of iterations =  7.0

     negative rho (up, down):  9.098E-01 9.098E-01

     total cpu time spent up to now is      247.7 secs

     total energy              =   -2943.07572277 Ry
     estimated scf accuracy    <       0.00447429 Ry

     total magnetization       =    -0.13 Bohr mag/cell
     absolute magnetization    =     0.22 Bohr mag/cell

     iteration # 12     ecut=   120.00 Ry     beta= 0.70
     Davidson diagonalization with overlap
     ethr =  1.62E-06,  avg # of iterations =  8.5

     negative rho (up, down):  9.097E-01 9.097E-01

     Magnetic moment per site  (integrated on atomic sphere of radius R)
     atom   1 (R=0.122)  charge=  9.4610  magn= -0.0008
     atom   2 (R=0.122)  charge=  9.0548  magn=  0.0006
     atom   3 (R=0.122)  charge=  9.0542  magn=  0.0001
     atom   4 (R=0.122)  charge=  9.0608  magn=  0.0001
     atom   5 (R=0.122)  charge=  9.0592  magn=  0.0005
     atom   6 (R=0.120)  charge= 10.3458  magn=  0.0013
     atom   7 (R=0.120)  charge= 10.3477  magn= -0.0005
     atom   8 (R=0.077)  charge=  5.9542  magn=  0.0001
     atom   9 (R=0.077)  charge=  5.9675  magn=  0.0007
     atom  10 (R=0.077)  charge=  5.9350  magn= -0.0028
     atom  11 (R=0.077)  charge=  5.9343  magn= -0.0002
     atom  12 (R=0.077)  charge=  5.9350  magn= -0.0043
     atom  13 (R=0.077)  charge=  5.9349  magn= -0.0002
     atom  14 (R=0.077)  charge=  5.9350  magn= -0.0029
     atom  15 (R=0.077)  charge=  5.9353  magn= -0.0005
     atom  16 (R=0.077)  charge=  5.9349  magn= -0.0024
     atom  17 (R=0.077)  charge=  5.9351  magn=  0.0000
     atom  18 (R=0.109)  charge=  8.5796  magn=  0.0010
     atom  19 (R=0.109)  charge=  8.2929  magn= -0.0066
     atom  20 (R=0.109)  charge=  8.2898  magn=  0.0015
     atom  21 (R=0.109)  charge=  8.2922  magn= -0.0049
     atom  22 (R=0.109)  charge=  8.2854  magn=  0.0006
     atom  23 (R=0.077)  charge=  0.9156  magn=  0.0000

     total cpu time spent up to now is      266.7 secs

     End of self-consistent calculation

 ------ SPIN UP ------------


          k = 0.0000 0.0000 0.0000 ( 56324 PWs)   bands (ev):

   -59.7702 -59.7645 -59.7218 -59.7173 -59.6901 -59.6867 -59.6432 -59.6406
   -59.4657 -59.2049 -53.3681 -53.3225 -53.2438 -53.1987 -51.6576 -45.2147
   -45.1897 -40.6125 -40.5866 -40.5245 -40.4785 -38.7596 -26.7665 -26.7581
   -26.6781 -26.6743 -26.5834 -26.5749 -26.4585 -26.4444 -26.3367 -26.3145
   -26.2662 -26.2468 -26.2422 -26.2204 -26.2049 -26.1530 -26.1417 -26.1083
   -26.0252 -25.9509 -25.9491 -25.9430 -25.9287 -25.9049 -25.8793 -25.8680
   -25.8567 -25.8455 -25.8435 -25.8353 -23.1476 -22.9411 -22.6291 -22.5536
   -22.2923 -22.1567 -22.1346 -22.0349 -21.9065 -21.8413 -21.8235 -21.6086
   -21.4539 -21.4039 -21.3546 -21.3087 -21.2366 -21.1883 -20.7205 -20.6660
   -20.5876 -19.1517 -18.9069 -18.7978 -18.7662 -18.5894 -18.5709 -18.5607
   -18.5562 -18.5182 -18.5087 -18.3383 -18.3223 -17.1140 -16.9001 -16.7714
     2.3278   3.3052   3.9531   4.1768   4.3348   4.4627   4.5353   4.7026
     4.7587   4.7852   4.9615   5.0438   5.3004   5.5075   5.5761   5.7108
     5.7480   5.9834   6.0672   6.1218   6.1359   6.2828   6.3111   6.3581
     6.4095   6.5873   6.6034   6.7428   6.7661   6.7875   6.7949   6.8449
     6.9511   7.0768   7.1756   7.2771   7.2887   7.3232   7.3818   7.4058
     7.4448   7.6583   7.7098   7.7421   7.9201   7.9743   8.0233   8.1170
     8.1988   8.2170   8.3193   8.3283   8.4284   8.4563   8.5417   8.5653
     8.6383   8.6771   8.9032   9.0325   9.1065   9.1339   9.2313   9.3359
     9.3646   9.3704   9.3843   9.4410   9.4710   9.5922   9.6828   9.8343
     9.8733   9.9727  10.1009  10.1148  10.2499  10.2759  10.3090

 ------ SPIN DOWN ----------


          k = 0.0000 0.0000 0.0000 ( 56324 PWs)   bands (ev):

   -59.7709 -59.7704 -59.7241 -59.7219 -59.6931 -59.6903 -59.6479 -59.6435
   -59.4650 -59.2024 -53.3675 -53.3218 -53.2432 -53.1980 -51.6582 -45.2151
   -45.1880 -40.6115 -40.5942 -40.5230 -40.4854 -38.7579 -26.7696 -26.7645
   -26.6845 -26.6780 -26.5865 -26.5814 -26.4602 -26.4530 -26.3380 -26.3195
   -26.2668 -26.2502 -26.2471 -26.2217 -26.2108 -26.1544 -26.1493 -26.1078
   -26.0248 -25.9534 -25.9498 -25.9489 -25.9344 -25.9059 -25.8794 -25.8742
   -25.8593 -25.8472 -25.8430 -25.8391 -23.1468 -22.9402 -22.6284 -22.5527
   -22.2912 -22.1556 -22.1336 -22.0341 -21.9055 -21.8405 -21.8225 -21.6076
   -21.4537 -21.4030 -21.3543 -21.3083 -21.2360 -21.1875 -20.7209 -20.6665
   -20.5884 -19.1583 -18.9040 -18.8066 -18.7733 -18.5897 -18.5721 -18.5655
   -18.5568 -18.5203 -18.5126 -18.3362 -18.3308 -17.1127 -16.8989 -16.7708
     2.3271   3.3048   3.9463   4.1760   4.3350   4.4621   4.5301   4.7012
     4.7567   4.7848   4.9555   5.0408   5.2987   5.5063   5.5741   5.7095
     5.7452   5.9801   6.0628   6.1168   6.1324   6.2790   6.3092   6.3545
     6.4055   6.5851   6.6026   6.7391   6.7620   6.7854   6.7949   6.8428
     6.9501   7.0732   7.1705   7.2738   7.2866   7.3190   7.3787   7.4043
     7.4416   7.6540   7.7062   7.7392   7.9153   7.9703   8.0134   8.1105
     8.1905   8.2024   8.3108   8.3236   8.4201   8.4483   8.5280   8.5617
     8.6321   8.6707   8.8990   9.0270   9.0981   9.1290   9.2264   9.3256
     9.3568   9.3644   9.3822   9.4349   9.4672   9.5883   9.6774   9.8311
     9.8675   9.9688  10.0927  10.1100  10.2492  10.2730  10.3069

     the Fermi energy is     8.2847 ev

!    total energy              =   -2943.07716932 Ry
     estimated scf accuracy    <       0.00078751 Ry
     smearing contrib. (-TS)   =      -0.10598632 Ry
     internal energy E=F+TS    =   -2942.97118299 Ry

     total magnetization       =    -0.13 Bohr mag/cell
     absolute magnetization    =     0.19 Bohr mag/cell

     convergence has been achieved in  12 iterations

     negative rho (up, down):  9.097E-01 9.097E-01

     Forces acting on atoms (cartesian axes, Ry/au):

     atom    1 type  1   force =    -0.01490485   -0.02182949    0.00504263
     atom    2 type  1   force =    -0.12151782   -0.01503203   -0.00339107
     atom    3 type  1   force =    -0.11953174    0.01171797    0.00144340
     atom    4 type  1   force =     0.11881615   -0.02461783   -0.00689440
     atom    5 type  1   force =     0.11840950    0.01989284   -0.00108658
     atom    6 type  2   force =    -0.00767258   -0.01965478    0.00168175
     atom    7 type  2   force =    -0.01525634    0.01443763   -0.00532707
     atom    8 type  3   force =    -0.12029542    0.00297459    0.00106552
     atom    9 type  3   force =     0.03970439    0.00582318   -0.09549610
     atom   10 type  3   force =    -0.02448475   -0.03062411   -0.05876619
     atom   11 type  3   force =    -0.02094610   -0.03352734    0.06039990
     atom   12 type  3   force =    -0.01898599    0.03530720   -0.05432063
     atom   13 type  3   force =    -0.02028707    0.02625215    0.06245120
     atom   14 type  3   force =     0.02633024   -0.02721865   -0.05481947
     atom   15 type  3   force =     0.02014687   -0.04145076    0.05446476
     atom   16 type  3   force =     0.02108833    0.03176910   -0.05121345
     atom   17 type  3   force =     0.01798801    0.03565762    0.05761827
     atom   18 type  4   force =    -0.00924386    0.02594759   -0.01579336
     atom   19 type  4   force =    -0.13555418   -0.00415619   -0.11770046
     atom   20 type  4   force =    -0.13826052    0.00622856    0.11317034
     atom   21 type  4   force =     0.13545483   -0.00489345   -0.12337103
     atom   22 type  4   force =     0.16435016    0.00865647    0.09901185
     atom   23 type  5   force =     0.10465275   -0.00166026    0.13183019
     The non-local contrib.  to forces
     atom    1 type  1   force =    -0.00088814   -0.00876131    0.03287998
     atom    2 type  1   force =    -0.24577901   -0.16528240    0.01630144
     atom    3 type  1   force =    -0.24252583    0.16034207   -0.02706022
     atom    4 type  1   force =     0.25967088   -0.16371809    0.03386032
     atom    5 type  1   force =     0.25094106    0.15599386   -0.01385462
     atom    6 type  2   force =     0.00862251   -0.06166378   -0.06310369
     atom    7 type  2   force =    -0.01217545    0.06606712    0.05493428
     atom    8 type  3   force =    -0.25677216    0.00113591   -0.00033556
     atom    9 type  3   force =     0.12876074    0.00011272   -0.09336422
     atom   10 type  3   force =    -0.22373718    0.00719310   -0.20898635
     atom   11 type  3   force =    -0.22454645    0.01394681    0.20023672
     atom   12 type  3   force =    -0.21327894   -0.02266549   -0.18086552
     atom   13 type  3   force =    -0.21449191   -0.01095431    0.20982356
     atom   14 type  3   force =     0.22050462    0.00871732   -0.22489008
     atom   15 type  3   force =     0.23780659    0.00777432    0.17868213
     atom   16 type  3   force =     0.20845772   -0.02574355   -0.19333161
     atom   17 type  3   force =     0.22722863   -0.00518859    0.18696852
     atom   18 type  4   force =     0.00602306    0.06637146   -0.06415216
     atom   19 type  4   force =     0.06260453    0.00826185    0.07149562
     atom   20 type  4   force =     0.05173944   -0.01096674   -0.05501672
     atom   21 type  4   force =    -0.06426155    0.00853205    0.06756482
     atom   22 type  4   force =    -0.05166639   -0.00796175   -0.08346446
     atom   23 type  5   force =    -0.06147874   -0.00025997   -0.03951366
     The ionic contribution  to forces
     atom    1 type  1   force =    -0.49326657   -4.89446468   14.26026878
     atom    2 type  1   force =   -35.68327093   -6.22198451    0.70154237
     atom    3 type  1   force =   -35.66382736    6.20892840   -0.79081382
     atom    4 type  1   force =    35.49186420   -6.45913928    0.59415329
     atom    5 type  1   force =    35.46966442    6.44973782   -0.89692929
     atom    6 type  2   force =    -0.18176036   -3.65924888  -14.33247679
     atom    7 type  2   force =    -0.52445039    3.91166945   14.21806768
     atom    8 type  3   force =   -47.63682415    0.07233441   -0.21538179
     atom    9 type  3   force =    45.61514009    0.07383670   -2.05307807
     atom   10 type  3   force =   -32.19762955   -2.12448543  -23.45904494
     atom   11 type  3   force =   -31.28427851   -0.92044795   22.51741277
     atom   12 type  3   force =   -31.38105811    0.82213392  -22.50979052
     atom   13 type  3   force =   -32.19133783    2.25833011   23.49715711
     atom   14 type  3   force =    32.13922099   -2.15527848  -23.49919662
     atom   15 type  3   force =    31.11817269   -1.08988226   22.64796963
     atom   16 type  3   force =    31.32325969    0.85253212  -22.54924352
     atom   17 type  3   force =    32.02317865    2.42918974   23.62814520
     atom   18 type  4   force =    -0.17005904    4.46204179  -14.26328029
     atom   19 type  4   force =   -32.18035859    0.96024535  -25.92212481
     atom   20 type  4   force =   -32.19284042   -0.95538700   26.00468487
     atom   21 type  4   force =    32.09036702    0.95964443  -26.02285933
     atom   22 type  4   force =    31.51823189   -0.94890467   26.90167207
     atom   23 type  5   force =     4.99186215   -0.03140111    1.54314601
     The local contribution  to forces
     atom    1 type  1   force =     0.47232906    4.88005473  -14.28772878
     atom    2 type  1   force =    35.81539000    6.36909729   -0.72301101
     atom    3 type  1   force =    35.79557004   -6.35855961    0.81805094
     atom    4 type  1   force =   -35.64064608    6.59121933   -0.63916442
     atom    5 type  1   force =   -35.61156916   -6.58138478    0.90484798
     atom    6 type  2   force =     0.16097536    3.71069995   14.38629250
     atom    7 type  2   force =     0.51259862   -3.96506819  -14.27606154
     atom    8 type  3   force =    47.78221176   -0.06625505    0.20708882
     atom    9 type  3   force =   -45.70466371   -0.06498772    2.05335846
     atom   10 type  3   force =    32.41108899    2.07976008   23.62163524
     atom   11 type  3   force =    31.50817713    0.86237981  -22.67315114
     atom   12 type  3   force =    31.59404998   -0.76090960   22.64824838
     atom   13 type  3   force =    32.40306050   -2.21612848  -23.65703279
     atom   14 type  3   force =   -32.34896189    2.11373291   23.68199840
     atom   15 type  3   force =   -31.35675867    1.02690087  -22.78258982
     atom   16 type  3   force =   -31.53076455   -0.79241798   22.70345548
     atom   17 type  3   force =   -32.25152656   -2.37868676  -23.76464710
     atom   18 type  4   force =     0.15036843   -4.50713532   14.29953874
     atom   19 type  4   force =    31.99156014   -0.96940828   25.73714508
     atom   20 type  4   force =    32.00668394    0.97620778  -25.83503254
     atom   21 type  4   force =   -31.90255566   -0.97031594   25.83269498
     atom   22 type  4   force =   -31.30734219    0.96755217  -26.71538705
     atom   23 type  5   force =    -4.82366908    0.03004262   -1.37200806
     The core correction contribution to forces
     atom    1 type  1   force =     0.00208083    0.00238547   -0.00025019
     atom    2 type  1   force =    -0.01208949   -0.00160908    0.00010127
     atom    3 type  1   force =    -0.01217712    0.00247436   -0.00209291
     atom    4 type  1   force =     0.01316686   -0.00222072    0.00301092
     atom    5 type  1   force =     0.01340655    0.00187937    0.00085449
     atom    6 type  2   force =    -0.00044924    0.00289663    0.00257218
     atom    7 type  2   force =     0.00056703   -0.00326126   -0.00189522
     atom    8 type  3   force =    -0.02994790   -0.00005285    0.00061597
     atom    9 type  3   force =     0.01432901    0.00049879   -0.01307733
     atom   10 type  3   force =    -0.02188930    0.00942599   -0.01522566
     atom   11 type  3   force =    -0.02449407    0.00957823    0.01796743
     atom   12 type  3   force =    -0.02201773   -0.00976449   -0.01452326
     atom   13 type  3   force =    -0.02303229   -0.00870547    0.01715463
     atom   14 type  3   force =     0.02250905    0.00826169   -0.01678816
     atom   15 type  3   force =     0.02617179    0.01022308    0.01385186
     atom   16 type  3   force =     0.02213995   -0.00900992   -0.01607365
     atom   17 type  3   force =     0.02356366   -0.00848075    0.01405435
     atom   18 type  4   force =    -0.00032954   -0.00370726    0.00312992
     atom   19 type  4   force =    -0.00984717    0.00012471   -0.00961071
     atom   20 type  4   force =    -0.00926430    0.00024090    0.00868613
     atom   21 type  4   force =     0.00988432    0.00009810   -0.00956495
     atom   22 type  4   force =     0.00932624    0.00008150    0.01033656
     atom   23 type  5   force =     0.00000000    0.00000000    0.00000000
     The Hubbard contrib.    to forces
     atom    1 type  1   force =     0.00000000    0.00000000    0.00000000
     atom    2 type  1   force =     0.00000000    0.00000000    0.00000000
     atom    3 type  1   force =     0.00000000    0.00000000    0.00000000
     atom    4 type  1   force =     0.00000000    0.00000000    0.00000000
     atom    5 type  1   force =     0.00000000    0.00000000    0.00000000
     atom    6 type  2   force =     0.00000000    0.00000000    0.00000000
     atom    7 type  2   force =     0.00000000    0.00000000    0.00000000
     atom    8 type  3   force =     0.00000000    0.00000000    0.00000000
     atom    9 type  3   force =     0.00000000    0.00000000    0.00000000
     atom   10 type  3   force =     0.00000000    0.00000000    0.00000000
     atom   11 type  3   force =     0.00000000    0.00000000    0.00000000
     atom   12 type  3   force =     0.00000000    0.00000000    0.00000000
     atom   13 type  3   force =     0.00000000    0.00000000    0.00000000
     atom   14 type  3   force =     0.00000000    0.00000000    0.00000000
     atom   15 type  3   force =     0.00000000    0.00000000    0.00000000
     atom   16 type  3   force =     0.00000000    0.00000000    0.00000000
     atom   17 type  3   force =     0.00000000    0.00000000    0.00000000
     atom   18 type  4   force =     0.00000000    0.00000000    0.00000000
     atom   19 type  4   force =     0.00000000    0.00000000    0.00000000
     atom   20 type  4   force =     0.00000000    0.00000000    0.00000000
     atom   21 type  4   force =     0.00000000    0.00000000    0.00000000
     atom   22 type  4   force =     0.00000000    0.00000000    0.00000000
     atom   23 type  5   force =     0.00000000    0.00000000    0.00000000
     The SCF correction term to forces
     atom    1 type  1   force =     0.00000000   -0.00000000   -0.00000000
     atom    2 type  1   force =     0.00000000    0.00000000    0.00000000
     atom    3 type  1   force =     0.00000000   -0.00000000    0.00000000
     atom    4 type  1   force =    -0.00000000    0.00000000    0.00000000
     atom    5 type  1   force =    -0.00000000   -0.00000000    0.00000000
     atom    6 type  2   force =     0.00000000   -0.00000000    0.00000000
     atom    7 type  2   force =     0.00000000    0.00000000   -0.00000000
     atom    8 type  3   force =     0.00000000   -0.00000000    0.00000000
     atom    9 type  3   force =    -0.00000000   -0.00000000    0.00000000
     atom   10 type  3   force =     0.00758874   -0.00258103    0.00268514
     atom   11 type  3   force =     0.00410226    0.00095258   -0.00223625
     atom   12 type  3   force =     0.00322526    0.00644969    0.00243992
     atom   13 type  3   force =     0.00542092    0.00364713   -0.00482170
     atom   14 type  3   force =    -0.00703608   -0.00271527    0.00388663
     atom   15 type  3   force =    -0.00533907    0.00347005   -0.00361940
     atom   16 type  3   force =    -0.00209803    0.00634525    0.00380947
     atom   17 type  3   force =    -0.00454993   -0.00123919   -0.00707308
     atom   18 type  4   force =     0.00465969    0.00831375    0.00880006
     atom   19 type  4   force =     0.00039336   -0.00344298    0.00522399
     atom   20 type  4   force =     0.00532729   -0.00392956   -0.01032178
     atom   21 type  4   force =     0.00192715   -0.00291526    0.00862307
     atom   22 type  4   force =    -0.00429293   -0.00217396   -0.01431563
     atom   23 type  5   force =    -0.00215513   -0.00010497    0.00003552

     Total force =     0.449793     Total SCF correction =     0.033947


     Computing stress (Cartesian axis) and pressure


     negative rho (up, down):  9.097E-01 9.097E-01
          total   stress  (Ry/bohr**3)                   (kbar)     P=       93.74
   0.00071080   0.00000046   0.00005897          104.56        0.07        8.68
   0.00000046   0.00074866  -0.00001268            0.07      110.13       -1.87
   0.00005897  -0.00001268   0.00045223            8.68       -1.87       66.52


     Molecular Dynamics Calculation

     Starting temperature  =   300.00 K

     temperature is set once at start

     mass Hf               =   178.49
     mass Nb               =    92.91
     mass Ta               =   180.95
     mass Zr               =    91.22
     mass H                =     2.01
     Time step             =     4.20 a.u.,  0.2032 femto-seconds

     Entering Dynamics:    iteration =     1
                           time      =   0.0002 pico-seconds


ATOMIC_POSITIONS (angstrom)
Hf            2.6699999570        2.8271230292        6.6039642186    0   0   0
Hf            1.2529906802        1.2862841814        5.0584662261    0   0   0
Hf            1.2554868986        7.3898042948        5.0880677674    0   0   0
Hf            4.0870092338        1.2862841814        5.0584662261    0   0   0
Hf            4.0845130154        7.3898042948        5.0880677674    0   0   0
Nb            2.6699999570        2.7969306055        3.5155832167    0   0   0
Nb            2.6699999570        5.8763786763        6.6349979432    0   0   0
Ta            1.2093730560        4.3409278516        5.0711258323    0   0   0
Ta            4.1306268580        4.3409278516        5.0711258323    0   0   0
Ta            1.3072519912        1.3141217227        2.0587774470
Ta            1.3027877214        1.3083901872        8.0945809117
Ta            1.3040090848        7.3758271233        2.0462356425
Ta            1.3077102243        7.3650836913        8.0860039882
Ta            4.0327479750        1.3141218191        2.0587775587
Ta            4.0372121700        1.3083899629        8.0945807438
Ta            4.0359908887        7.3758270232        2.0462357305
Ta            4.0322896247        7.3650839575        8.0860038514
Zr            2.6699994381        5.8662873000        3.5273830438
Zr            1.2438270097        4.3220777312        1.9999933929
Zr            1.2403776515        4.3541236341        8.1497619021
Zr            4.0961728987        4.3220776898        1.9999930746
Zr            4.0996237270        4.3541237704        8.1497611073
H             5.1919424981        4.3399957288        6.1335645366


     kinetic energy (Ekin) =           1.83764883 Ry
     temperature           =       13816.27629488 K 
     Ekin + Etot (const)   =       -2941.23952049 Ry
     Ions kinetic stress =           35.50 (kbar)
                                     53.24           0.00          53.24
                                      0.00           0.00           0.00
                                     53.24           0.00          53.24



     File outdir/pwscf.msd.dat deleted, as requested

     Writing config-only to output data dir outdir/pwscf.save/
     NEW-OLD atomic charge density approx. for the potential

     Check: negative core charge=   -0.000002

     negative rho (up, down):  9.096E-01 9.096E-01
     Generating pointlists ...
     new r_m :   0.0725 (alat units)  1.1706 (a.u.) for type    3
     new r_m :   0.0725 (alat units)  1.1706 (a.u.) for type    5

     total cpu time spent up to now is      289.5 secs

     Self-consistent Calculation

     iteration #  1     ecut=   120.00 Ry     beta= 0.70
     Davidson diagonalization with overlap
     ethr =  1.00E-06,  avg # of iterations =  9.0

     negative rho (up, down):  9.099E-01 9.099E-01

     total cpu time spent up to now is      316.8 secs

     total energy              =   -2943.03318641 Ry
     estimated scf accuracy    <       0.03683202 Ry

     total magnetization       =    -0.12 Bohr mag/cell
     absolute magnetization    =     0.16 Bohr mag/cell

     iteration #  2     ecut=   120.00 Ry     beta= 0.70
     Davidson diagonalization with overlap
     ethr =  1.33E-05,  avg # of iterations =  2.0

     negative rho (up, down):  9.097E-01 9.097E-01

     total cpu time spent up to now is      331.5 secs

     total energy              =   -2943.03699847 Ry
     estimated scf accuracy    <       0.00860069 Ry

     total magnetization       =    -0.12 Bohr mag/cell
     absolute magnetization    =     0.15 Bohr mag/cell

     iteration #  3     ecut=   120.00 Ry     beta= 0.70
     Davidson diagonalization with overlap
     ethr =  3.10E-06,  avg # of iterations =  1.0

     negative rho (up, down):  9.097E-01 9.097E-01

     total cpu time spent up to now is      344.2 secs

     total energy              =   -2943.03758810 Ry
     estimated scf accuracy    <       0.00101197 Ry

     total magnetization       =    -0.12 Bohr mag/cell
     absolute magnetization    =     0.15 Bohr mag/cell

     iteration #  4     ecut=   120.00 Ry     beta= 0.70
     Davidson diagonalization with overlap
     ethr =  3.65E-07,  avg # of iterations =  2.0

     negative rho (up, down):  9.095E-01 9.096E-01

     Magnetic moment per site  (integrated on atomic sphere of radius R)
     atom   1 (R=0.122)  charge=  9.4644  magn= -0.0004
     atom   2 (R=0.122)  charge=  9.0550  magn= -0.0000
     atom   3 (R=0.122)  charge=  9.0554  magn= -0.0003
     atom   4 (R=0.122)  charge=  9.0601  magn= -0.0003
     atom   5 (R=0.122)  charge=  9.0599  magn= -0.0002
     atom   6 (R=0.120)  charge= 10.3496  magn=  0.0002
     atom   7 (R=0.120)  charge= 10.3494  magn= -0.0006
     atom   8 (R=0.073)  charge=  5.2447  magn= -0.0000
     atom   9 (R=0.073)  charge=  5.2634  magn=  0.0000
     atom  10 (R=0.073)  charge=  5.2302  magn= -0.0015
     atom  11 (R=0.073)  charge=  5.2287  magn= -0.0003
     atom  12 (R=0.073)  charge=  5.2300  magn= -0.0025
     atom  13 (R=0.073)  charge=  5.2298  magn= -0.0003
     atom  14 (R=0.073)  charge=  5.2301  magn= -0.0015
     atom  15 (R=0.073)  charge=  5.2287  magn= -0.0005
     atom  16 (R=0.073)  charge=  5.2301  magn= -0.0015
     atom  17 (R=0.073)  charge=  5.2295  magn= -0.0001
     atom  18 (R=0.109)  charge=  8.5798  magn=  0.0004
     atom  19 (R=0.109)  charge=  8.2902  magn= -0.0047
     atom  20 (R=0.109)  charge=  8.2890  magn=  0.0008
     atom  21 (R=0.109)  charge=  8.2901  magn= -0.0036
     atom  22 (R=0.109)  charge=  8.2845  magn=  0.0007
     atom  23 (R=0.073)  charge=  0.8896  magn= -0.0000

     total cpu time spent up to now is      358.2 secs

     End of self-consistent calculation

 ------ SPIN UP ------------


          k = 0.0000 0.0000 0.0000 ( 56324 PWs)   bands (ev):

   -59.7731 -59.7709 -59.7251 -59.7233 -59.6952 -59.6911 -59.6481 -59.6445
   -59.4626 -59.1395 -53.3734 -53.3271 -53.2487 -53.2027 -51.6659 -45.2226
   -45.2156 -40.6256 -40.5909 -40.5269 -40.4792 -38.7785 -26.7715 -26.7670
   -26.6844 -26.6809 -26.5869 -26.5824 -26.4611 -26.4520 -26.3405 -26.3235
   -26.2681 -26.2520 -26.2504 -26.2243 -26.2147 -26.1560 -26.1510 -26.1064
   -26.0251 -25.9523 -25.9510 -25.9452 -25.9340 -25.8970 -25.8862 -25.8757
   -25.8591 -25.8484 -25.8310 -25.7943 -23.1535 -22.9456 -22.6383 -22.5605
   -22.2987 -22.1641 -22.1425 -22.0419 -21.9131 -21.8482 -21.8294 -21.6145
   -21.4699 -21.4220 -21.3665 -21.3195 -21.2494 -21.2008 -20.7287 -20.6720
   -20.5973 -19.1553 -18.9176 -18.8025 -18.7663 -18.6063 -18.5797 -18.5700
   -18.5595 -18.5179 -18.5112 -18.3449 -18.3227 -17.1356 -16.9149 -16.7870
     2.2819   3.2037   3.9418   4.1675   4.3260   4.4558   4.5263   4.6941
     4.7495   4.7819   4.9514   5.0348   5.2923   5.5058   5.5611   5.7026
     5.7377   5.9750   6.0580   6.1177   6.1321   6.2741   6.3037   6.3529
     6.4071   6.5791   6.5952   6.7355   6.7619   6.7799   6.7895   6.8394
     6.9436   7.0721   7.1688   7.2703   7.2793   7.3142   7.3753   7.3964
     7.4381   7.6517   7.7024   7.7481   7.9211   7.9712   8.0163   8.1152
     8.1858   8.2089   8.3101   8.3195   8.4260   8.4486   8.5331   8.5505
     8.6276   8.6708   8.8957   9.0260   9.1028   9.1305   9.2266   9.3296
     9.3570   9.3670   9.3810   9.4380   9.4651   9.5953   9.6781   9.8314
     9.8724   9.9729  10.0901  10.1091  10.2446  10.2696  10.3073

 ------ SPIN DOWN ----------


          k = 0.0000 0.0000 0.0000 ( 56324 PWs)   bands (ev):

   -59.7772 -59.7713 -59.7295 -59.7236 -59.6995 -59.6917 -59.6531 -59.6451
   -59.4626 -59.1392 -53.3735 -53.3272 -53.2487 -53.2028 -51.6662 -45.2230
   -45.2152 -40.6247 -40.5960 -40.5259 -40.4838 -38.7781 -26.7767 -26.7688
   -26.6911 -26.6817 -26.5914 -26.5846 -26.4636 -26.4571 -26.3421 -26.3264
   -26.2690 -26.2568 -26.2508 -26.2260 -26.2183 -26.1585 -26.1551 -26.1067
   -26.0256 -25.9583 -25.9516 -25.9461 -25.9397 -25.8968 -25.8877 -25.8808
   -25.8626 -25.8517 -25.8321 -25.7941 -23.1537 -22.9457 -22.6386 -22.5605
   -22.2988 -22.1642 -22.1426 -22.0421 -21.9132 -21.8483 -21.8294 -21.6144
   -21.4700 -21.4220 -21.3669 -21.3196 -21.2497 -21.2008 -20.7291 -20.6723
   -20.5977 -19.1603 -18.9156 -18.8081 -18.7709 -18.6058 -18.5790 -18.5748
   -18.5592 -18.5192 -18.5134 -18.3437 -18.3289 -17.1352 -16.9146 -16.7874
     2.2807   3.2025   3.9366   4.1662   4.3250   4.4549   4.5219   4.6926
     4.7473   4.7809   4.9468   5.0320   5.2907   5.5042   5.5589   5.7010
     5.7348   5.9720   6.0541   6.1145   6.1284   6.2712   6.3016   6.3494
     6.4039   6.5772   6.5939   6.7325   6.7588   6.7774   6.7888   6.8370
     6.9423   7.0687   7.1646   7.2677   7.2772   7.3106   7.3725   7.3948
     7.4349   7.6486   7.6999   7.7453   7.9171   7.9677   8.0078   8.1094
     8.1783   8.1974   8.3023   8.3158   8.4181   8.4416   8.5215   8.5460
     8.6224   8.6657   8.8921   9.0212   9.0966   9.1261   9.2226   9.3211
     9.3501   9.3624   9.3791   9.4329   9.4617   9.5915   9.6736   9.8290
     9.8677   9.9693  10.0832  10.1057  10.2431  10.2669  10.3050

     the Fermi energy is     8.2777 ev

!    total energy              =   -2943.03756083 Ry
     estimated scf accuracy    <       0.00017363 Ry
     smearing contrib. (-TS)   =      -0.10670278 Ry
     internal energy E=F+TS    =   -2942.93085805 Ry

     total magnetization       =    -0.11 Bohr mag/cell
     absolute magnetization    =     0.14 Bohr mag/cell

     convergence has been achieved in   4 iterations

     negative rho (up, down):  9.095E-01 9.096E-01

     Forces acting on atoms (cartesian axes, Ry/au):

     atom    1 type  1   force =    -0.01345205   -0.02368136    0.00606583
     atom    2 type  1   force =    -0.11863094   -0.01629437   -0.00267598
     atom    3 type  1   force =    -0.11688686    0.01436888    0.00199371
     atom    4 type  1   force =     0.11530475   -0.02414878   -0.00612558
     atom    5 type  1   force =     0.11514262    0.02050319    0.00003495
     atom    6 type  2   force =    -0.00768880   -0.02123434    0.00062434
     atom    7 type  2   force =    -0.01420622    0.01438569   -0.00553413
     atom    8 type  3   force =    -0.11970342    0.00191909    0.00434800
     atom    9 type  3   force =    -0.03091753    0.00604975   -0.16411578
     atom   10 type  3   force =    -0.02306226   -0.03206764   -0.05924645
     atom   11 type  3   force =    -0.02030397   -0.03379241    0.06034520
     atom   12 type  3   force =    -0.01772637    0.03753780   -0.05428985
     atom   13 type  3   force =    -0.01966631    0.02752730    0.06172939
     atom   14 type  3   force =     0.02490447   -0.02885647   -0.05546701
     atom   15 type  3   force =     0.01920022   -0.04053513    0.05399117
     atom   16 type  3   force =     0.02003239    0.03421812   -0.05119900
     atom   17 type  3   force =     0.01756611    0.03543457    0.05673679
     atom   18 type  4   force =    -0.00799974    0.02967719   -0.01540080
     atom   19 type  4   force =    -0.13501127   -0.00509357   -0.11567628
     atom   20 type  4   force =    -0.13682634    0.00456002    0.10962422
     atom   21 type  4   force =     0.13578422   -0.00577385   -0.12357243
     atom   22 type  4   force =     0.15940936    0.00745956    0.09649500
     atom   23 type  5   force =     0.17473794   -0.00216321    0.20131470
     The non-local contrib.  to forces
     atom    1 type  1   force =    -0.00119366   -0.01067912    0.03443023
     atom    2 type  1   force =    -0.24721998   -0.16464328    0.01736884
     atom    3 type  1   force =    -0.24390548    0.16060712   -0.02624108
     atom    4 type  1   force =     0.25911060   -0.16251050    0.03311792
     atom    5 type  1   force =     0.25037925    0.15521034   -0.01500720
     atom    6 type  2   force =     0.00907137   -0.06255570   -0.06187641
     atom    7 type  2   force =    -0.01110439    0.06584255    0.05517081
     atom    8 type  3   force =    -0.25318942    0.00031593    0.00069360
     atom    9 type  3   force =     0.13979264    0.00065322   -0.08276880
     atom   10 type  3   force =    -0.22125719    0.00720657   -0.21119143
     atom   11 type  3   force =    -0.22275696    0.01580226    0.19981791
     atom   12 type  3   force =    -0.21104490   -0.02261275   -0.18293189
     atom   13 type  3   force =    -0.21246858   -0.01234577    0.20947399
     atom   14 type  3   force =     0.21814677    0.00828457   -0.22627737
     atom   15 type  3   force =     0.23448309    0.00814983    0.18054333
     atom   16 type  3   force =     0.20654904   -0.02503806   -0.19420006
     atom   17 type  3   force =     0.22409783   -0.00532141    0.18926373
     atom   18 type  4   force =     0.00624201    0.06851335   -0.06297036
     atom   19 type  4   force =     0.06345211    0.00760471    0.07404991
     atom   20 type  4   force =     0.05313449   -0.01169359   -0.05900079
     atom   21 type  4   force =    -0.06541827    0.00806141    0.07044524
     atom   22 type  4   force =    -0.05499705   -0.00867674   -0.08452922
     atom   23 type  5   force =    -0.07147496   -0.00035935   -0.05295182
     The ionic contribution  to forces
     atom    1 type  1   force =    -0.51267509   -4.91138938   14.28248291
     atom    2 type  1   force =   -35.69131599   -6.22428360    0.70488595
     atom    3 type  1   force =   -35.67193404    6.21123227   -0.78738079
     atom    4 type  1   force =    35.49403391   -6.47642167    0.59816382
     atom    5 type  1   force =    35.47189123    6.46712508   -0.89261357
     atom    6 type  2   force =    -0.19576321   -3.66948611  -14.34609860
     atom    7 type  2   force =    -0.54437141    3.92945958   14.24193442
     atom    8 type  3   force =   -47.66219963    0.07234020   -0.21031782
     atom    9 type  3   force =    45.33811301    0.07419943   -2.32833659
     atom   10 type  3   force =   -32.20061165   -2.12543243  -23.46345299
     atom   11 type  3   force =   -31.28994681   -0.91948996   22.51965471
     atom   12 type  3   force =   -31.38403184    0.82307343  -22.51421203
     atom   13 type  3   force =   -32.19702507    2.25739115   23.49944305
     atom   14 type  3   force =    32.13984533   -2.15839685  -23.50766576
     atom   15 type  3   force =    31.12705111   -1.08604783   22.65289438
     atom   16 type  3   force =    31.32391766    0.85559472  -22.55768629
     atom   17 type  3   force =    32.03209421    2.42538671   23.63316905
     atom   18 type  4   force =    -0.18321688    4.47153279  -14.27596164
     atom   19 type  4   force =   -32.18500282    0.96022113  -25.92851060
     atom   20 type  4   force =   -32.20538925   -0.95540095   26.00785001
     atom   21 type  4   force =    32.09023970    0.95957305  -26.04169246
     atom   22 type  4   force =    31.57605928   -0.94917783   26.89960255
     atom   23 type  5   force =     5.33023825   -0.03160294    1.81384830
     The local contribution  to forces
     atom    1 type  1   force =     0.49760366    4.88942376  -14.30698430
     atom    2 type  1   force =    35.83643104    6.36771588   -0.72439486
     atom    3 type  1   force =    35.81645571   -6.35290057    0.81772893
     atom    4 type  1   force =   -35.65617265    6.61077833   -0.63929168
     atom    5 type  1   force =   -35.62621128   -6.59713137    0.90765698
     atom    6 type  2   force =     0.17784605    3.69404986   14.40374419
     atom    7 type  2   force =     0.54018941   -3.97074289  -14.29845708
     atom    8 type  3   force =    47.83114165   -0.07112131    0.21711870
     atom    9 type  3   force =   -45.52669187   -0.06984243    2.26997483
     atom   10 type  3   force =    32.42531316    2.06665628   23.63010814
     atom   11 type  3   force =    31.51735825    0.85434529  -22.67563449
     atom   12 type  3   force =    31.60418640   -0.74166142   22.65944545
     atom   13 type  3   force =    32.41302349   -2.19900434  -23.66478706
     atom   14 type  3   force =   -32.36041310    2.10158981   23.69387606
     atom   15 type  3   force =   -31.36973051    1.02157776  -22.79178306
     atom   16 type  3   force =   -31.53701884   -0.77519210   22.71784150
     atom   17 type  3   force =   -32.26244611   -2.36754911  -23.78055088
     atom   18 type  4   force =     0.16815549   -4.49408897   14.31885954
     atom   19 type  4   force =    31.99812377   -0.97453275   25.75112002
     atom   20 type  4   force =    32.02576027    0.96872239  -25.85053329
     atom   21 type  4   force =   -31.90088493   -0.97451007   25.85815833
     atom   22 type  4   force =   -31.37869949    0.96320309  -26.72633801
     atom   23 type  5   force =    -5.08573880    0.02971040   -1.56013997
     The core correction contribution to forces
     atom    1 type  1   force =     0.00185922    0.00231574   -0.00018964
     atom    2 type  1   force =    -0.01223634   -0.00160370    0.00029278
     atom    3 type  1   force =    -0.01238930    0.00249144   -0.00202444
     atom    4 type  1   force =     0.01302935   -0.00221774    0.00271853
     atom    5 type  1   force =     0.01327537    0.00188456    0.00050587
     atom    6 type  2   force =    -0.00043014    0.00295657    0.00252855
     atom    7 type  2   force =     0.00051100   -0.00320719   -0.00189411
     atom    8 type  3   force =    -0.02966049   -0.00007387    0.00071031
     atom    9 type  3   force =     0.01420878    0.00071193   -0.01370452
     atom   10 type  3   force =    -0.02190482    0.00957653   -0.01536366
     atom   11 type  3   force =    -0.02447753    0.00968495    0.01798985
     atom   12 type  3   force =    -0.02196809   -0.00989182   -0.01469617
     atom   13 type  3   force =    -0.02300793   -0.00889453    0.01725127
     atom   14 type  3   force =     0.02252456    0.00824329   -0.01698494
     atom   15 type  3   force =     0.02583590    0.01024611    0.01410396
     atom   16 type  3   force =     0.02214160   -0.00901037   -0.01623923
     atom   17 type  3   force =     0.02329987   -0.00855089    0.01446605
     atom   18 type  4   force =    -0.00027142   -0.00369454    0.00311908
     atom   19 type  4   force =    -0.00983028    0.00013653   -0.00973155
     atom   20 type  4   force =    -0.00931151    0.00022893    0.00881729
     atom   21 type  4   force =     0.00991944    0.00010826   -0.00968891
     atom   22 type  4   force =     0.00954510    0.00008145    0.01018590
     atom   23 type  5   force =     0.00000000    0.00000000    0.00000000
     The Hubbard contrib.    to forces
     atom    1 type  1   force =     0.00000000    0.00000000    0.00000000
     atom    2 type  1   force =     0.00000000    0.00000000    0.00000000
     atom    3 type  1   force =     0.00000000    0.00000000    0.00000000
     atom    4 type  1   force =     0.00000000    0.00000000    0.00000000
     atom    5 type  1   force =     0.00000000    0.00000000    0.00000000
     atom    6 type  2   force =     0.00000000    0.00000000    0.00000000
     atom    7 type  2   force =     0.00000000    0.00000000    0.00000000
     atom    8 type  3   force =     0.00000000    0.00000000    0.00000000
     atom    9 type  3   force =     0.00000000    0.00000000    0.00000000
     atom   10 type  3   force =     0.00000000    0.00000000    0.00000000
     atom   11 type  3   force =     0.00000000    0.00000000    0.00000000
     atom   12 type  3   force =     0.00000000    0.00000000    0.00000000
     atom   13 type  3   force =     0.00000000    0.00000000    0.00000000
     atom   14 type  3   force =     0.00000000    0.00000000    0.00000000
     atom   15 type  3   force =     0.00000000    0.00000000    0.00000000
     atom   16 type  3   force =     0.00000000    0.00000000    0.00000000
     atom   17 type  3   force =     0.00000000    0.00000000    0.00000000
     atom   18 type  4   force =     0.00000000    0.00000000    0.00000000
     atom   19 type  4   force =     0.00000000    0.00000000    0.00000000
     atom   20 type  4   force =     0.00000000    0.00000000    0.00000000
     atom   21 type  4   force =     0.00000000    0.00000000    0.00000000
     atom   22 type  4   force =     0.00000000    0.00000000    0.00000000
     atom   23 type  5   force =     0.00000000    0.00000000    0.00000000
     The SCF correction term to forces
     atom    1 type  1   force =     0.00000000    0.00000000   -0.00000000
     atom    2 type  1   force =    -0.00000000    0.00000000   -0.00000000
     atom    3 type  1   force =    -0.00000000   -0.00000000    0.00000000
     atom    4 type  1   force =     0.00000000    0.00000000   -0.00000000
     atom    5 type  1   force =     0.00000000   -0.00000000   -0.00000000
     atom    6 type  2   force =     0.00000000    0.00000000    0.00000000
     atom    7 type  2   force =     0.00000000   -0.00000000   -0.00000000
     atom    8 type  3   force =    -0.00000000    0.00000000   -0.00000000
     atom    9 type  3   force =     0.00000000    0.00000000   -0.00000000
     atom   10 type  3   force =    -0.00474482    0.00993061    0.00078744
     atom   11 type  3   force =    -0.00062397    0.00587023   -0.00134883
     atom   12 type  3   force =    -0.00501101   -0.01136446   -0.00176126
     atom   13 type  3   force =    -0.00033129   -0.00961402    0.00048209
     atom   14 type  3   force =     0.00465785    0.01142791    0.00171894
     atom   15 type  3   force =     0.00141757    0.00554419   -0.00163348
     atom   16 type  3   force =     0.00429986   -0.01213087   -0.00078095
     atom   17 type  3   force =     0.00037725   -0.00852554    0.00052280
     atom   18 type  4   force =     0.00094800   -0.01258025    0.00168654
     atom   19 type  4   force =    -0.00189711    0.00148199   -0.00247012
     atom   20 type  4   force =    -0.00116340    0.00270843    0.00262494
     atom   21 type  4   force =     0.00178522    0.00099869   -0.00066068
     atom   22 type  4   force =     0.00735845    0.00203478   -0.00229228
     atom   23 type  5   force =     0.00157038    0.00009387    0.00069214

     Total force =     0.491412     Total SCF correction =     0.033154


     Computing stress (Cartesian axis) and pressure


     negative rho (up, down):  9.095E-01 9.096E-01
          total   stress  (Ry/bohr**3)                   (kbar)     P=       95.88
   0.00074811   0.00000056   0.00008025          110.05        0.08       11.80
   0.00000056   0.00073178  -0.00001301            0.08      107.65       -1.91
   0.00008025  -0.00001301   0.00047534           11.80       -1.91       69.93


     Entering Dynamics:    iteration =     2
                           time      =   0.0004 pico-seconds


ATOMIC_POSITIONS (angstrom)
Hf            2.6699999570        2.8271230292        6.6039642186    0   0   0
Hf            1.2529906802        1.2862841814        5.0584662261    0   0   0
Hf            1.2554868986        7.3898042948        5.0880677674    0   0   0
Hf            4.0870092338        1.2862841814        5.0584662261    0   0   0
Hf            4.0845130154        7.3898042948        5.0880677674    0   0   0
Nb            2.6699999570        2.7969306055        3.5155832167    0   0   0
Nb            2.6699999570        5.8763786763        6.6349979432    0   0   0
Ta            1.2093730560        4.3409278516        5.0711258323    0   0   0
Ta            4.1306268580        4.3409278516        5.0711258323    0   0   0
Ta            1.3072499929        1.3141190410        2.0587724306
Ta            1.3027859794        1.3083873257        8.0945860366
Ta            1.3040075442        7.3758302471        2.0462310325
Ta            1.3077085370        7.3650859923        8.0860092494
Ta            4.0327501298        1.3141194156        2.0587728679
Ta            4.0372138268        1.3083864956        8.0945853410
Ta            4.0359926193        7.3758298590        2.0462313833
Ta            4.0322911280        7.3650869722        8.0860086933
Zr            2.6699980211        5.8662920883        3.5273804283
Zr            1.2438042428        4.3220769260        1.9999737990
Zr            1.2403545289        4.3541244957        8.1497805623
Zr            4.0961957468        4.3220767669        1.9999722759
Zr            4.0996508495        4.3541250938        8.1497774987
H             5.1227758699        4.3399805070        6.0646021589


     kinetic energy (Ekin) =           1.79719286 Ry
     temperature           =       13512.11003293 K 
     Ekin + Etot (const)   =       -2941.24036796 Ry
     Ions kinetic stress =           34.71 (kbar)
                                     52.17           0.01          52.07
                                      0.01           0.00           0.01
                                     52.07           0.01          51.97



     Writing config-only to output data dir outdir/pwscf.save/
     NEW-OLD atomic charge density approx. for the potential

     Check: negative core charge=   -0.000002

     negative rho (up, down):  9.095E-01 9.095E-01
     Generating pointlists ...
     new r_m :   0.0678 (alat units)  1.0945 (a.u.) for type    3
     new r_m :   0.0678 (alat units)  1.0945 (a.u.) for type    5

     total cpu time spent up to now is      404.0 secs

     Self-consistent Calculation

     iteration #  1     ecut=   120.00 Ry     beta= 0.70
     Davidson diagonalization with overlap
     ethr =  1.00E-06,  avg # of iterations =  7.0

     negative rho (up, down):  9.094E-01 9.094E-01

     total cpu time spent up to now is      449.5 secs

     total energy              =   -2942.97263049 Ry
     estimated scf accuracy    <       0.02961923 Ry

     total magnetization       =    -0.11 Bohr mag/cell
     absolute magnetization    =     0.13 Bohr mag/cell

     iteration #  2     ecut=   120.00 Ry     beta= 0.70
     Davidson diagonalization with overlap
