
     Program PWSCF v.7.2 starts on 14Jun2023 at 22:12: 7 

     This program is part of the open-source Quantum ESPRESSO suite
     for quantum simulation of materials; please cite
         "P. Giannozzi et al., J. Phys.:Condens. Matter 21 395502 (2009);
         "P. Giannozzi et al., J. Phys.:Condens. Matter 29 465901 (2017);
         "P. Giannozzi et al., J. Chem. Phys. 152 154105 (2020);
          URL http://www.quantum-espresso.org", 
     in publications or presentations arising from this work. More details at
     http://www.quantum-espresso.org/quote

     Parallel version (MPI), running on    42 processors

     MPI processes distributed on     1 nodes
     175729 MiB available memory on the printing compute node when the environment starts

     Reading input from md_data/md_Hf5Nb2Ta10Zr5H_20steps_200eV_incident30_polar30.in
Warning: card &CELL ignored
Warning: card / ignored

     Current dimensions of program PWSCF are:
     Max number of different atomic species (ntypx) = 10
     Max number of k-points (npk) =  40000
     Max angular momentum in pseudopotentials (lmaxx) =  4

     File outdir/pwscf.md deleted, as requested

     gamma-point specific algorithms are used

     R & G space division:  proc/nbgrp/npool/nimage =      42
     Subspace diagonalization in iterative solution of the eigenvalue problem:
     one sub-group per band group will be used
     custom distributed-memory algorithm (size of sub-group:  2*  2 procs)


     Parallelization info
     --------------------
     sticks:   dense  smooth     PW     G-vecs:    dense   smooth      PW
     Min         262     262     63                23470    23470    2920
     Max         265     265     66                23484    23484    2942
     Sum       11057   11057   2753               986005   986005  123175

     Using Slab Decomposition



     bravais-lattice index     =            0
     lattice parameter (alat)  =      17.6500  a.u.
     unit-cell volume          =    5552.8853 (a.u.)^3
     number of atoms/cell      =           23
     number of atomic types    =            5
     number of electrons       =       277.00
     number of Kohn-Sham states=          167
     kinetic-energy cutoff     =     120.0000  Ry
     charge density cutoff     =     480.0000  Ry
     scf convergence threshold =      1.0E-03
     mixing beta               =       0.7000
     number of iterations used =            8  TF        mixing
     energy convergence thresh.=      0.0E+00
     force convergence thresh. =      0.0E+00
     Exchange-correlation=  SLA  PW   PBX  PBC
                           (   1   4   3   4   0   0   0)
     nstep                     =           20


     celldm(1)=  17.650041  celldm(2)=   0.000000  celldm(3)=   0.000000
     celldm(4)=   0.000000  celldm(5)=   0.000000  celldm(6)=   0.000000

     crystal axes: (cart. coord. in units of alat)
               a(1) = (   1.000000   0.000000   0.000000 )  
               a(2) = (   0.000000   0.929336   0.000000 )  
               a(3) = (   0.000000   0.000000   1.086698 )  

     reciprocal axes: (cart. coord. in units 2 pi/alat)
               b(1) = (  1.000000  0.000000  0.000000 )  
               b(2) = (  0.000000  1.076037  0.000000 )  
               b(3) = (  0.000000  0.000000  0.920219 )  


     PseudoPot. # 1 for Hf read from file:
     q-e/pseudo/hf_pbe_v1.uspp.F.UPF
     MD5 check sum: 8ee9378dfe14276e333edf04c5e4aa26
     Pseudo is Ultrasoft + core correction, Zval = 12.0
     Generated by new atomic code, or converted to UPF format
     Using radial grid of  921 points,  8 beta functions with: 
                l(1) =   0
                l(2) =   0
                l(3) =   0
                l(4) =   1
                l(5) =   1
                l(6) =   2
                l(7) =   2
                l(8) =   3
     Q(r) pseudized with  6 coefficients,  rinner =    1.200   1.200   1.200
                                                       1.200   1.200   1.200
                                                       1.200

     PseudoPot. # 2 for Nb read from file:
     q-e/pseudo/nb_pbe_v1.uspp.F.UPF
     MD5 check sum: 573aab8a2fa660278ed4a62cd769473f
     Pseudo is Ultrasoft + core correction, Zval = 13.0
     Generated by new atomic code, or converted to UPF format
     Using radial grid of  887 points,  6 beta functions with: 
                l(1) =   0
                l(2) =   0
                l(3) =   1
                l(4) =   1
                l(5) =   2
                l(6) =   2
     Q(r) pseudized with  6 coefficients,  rinner =    1.000   1.000   1.000
                                                       1.000   1.000

     PseudoPot. # 3 for Ta read from file:
     q-e/pseudo/ta_pbe_v1.uspp.F.UPF
     MD5 check sum: f8bbe9446314a3b8ea5d9f3e3836c939
     Pseudo is Ultrasoft + core correction, Zval = 13.0
     Generated by new atomic code, or converted to UPF format
     Using radial grid of  921 points,  7 beta functions with: 
                l(1) =   0
                l(2) =   0
                l(3) =   1
                l(4) =   1
                l(5) =   2
                l(6) =   2
                l(7) =   3
     Q(r) pseudized with  6 coefficients,  rinner =    1.300   1.300   1.300
                                                       1.300   1.300   1.300
                                                       1.300

     PseudoPot. # 4 for Zr read from file:
     q-e/pseudo/zr_pbe_v1.uspp.F.UPF
     MD5 check sum: 5db81b1e868ab7776c4564c113de050b
     Pseudo is Ultrasoft + core correction, Zval = 12.0
     Generated by new atomic code, or converted to UPF format
     Using radial grid of  887 points,  6 beta functions with: 
                l(1) =   0
                l(2) =   0
                l(3) =   1
                l(4) =   1
                l(5) =   2
                l(6) =   2
     Q(r) pseudized with  6 coefficients,  rinner =    1.200   1.200   1.200
                                                       1.200   1.200

     PseudoPot. # 5 for H  read from file:
     q-e/pseudo/h_pbe_v1.4.uspp.F.UPF
     MD5 check sum: 761ae9a214b05c3daf00ab9f6b793d6f
     Pseudo is Ultrasoft, Zval =  1.0
     Generated by new atomic code, or converted to UPF format
     Using radial grid of  615 points,  2 beta functions with: 
                l(1) =   0
                l(2) =   0
     Q(r) pseudized with  8 coefficients,  rinner =    0.700

     atomic species   valence    mass     pseudopotential
        Hf            12.00   178.49000     Hf( 1.00)
        Nb            13.00    92.90637     Nb( 1.00)
        Ta            13.00   180.94788     Ta( 1.00)
        Zr            12.00    91.22400     Zr( 1.00)
        H              1.00     2.01400     H ( 1.00)

     Starting magnetic structure 
     atomic species   magnetization
        Hf           0.000
        Nb           0.000
        Ta           0.000
        Zr           0.000
        H            0.000

     No symmetry found



   Cartesian axes

     site n.     atom                  positions (alat units)
         1           Hf  tau(   1) = (   0.2858672   0.3026898   0.7070626  )
         2           Hf  tau(   2) = (   0.1341532   0.1377178   0.5415917  )
         3           Hf  tau(   3) = (   0.1344204   0.7911996   0.5447610  )
         4           Hf  tau(   4) = (   0.4375813   0.1377178   0.5415917  )
         5           Hf  tau(   5) = (   0.4373140   0.7911996   0.5447610  )
         6           Nb  tau(   6) = (   0.2858672   0.2994572   0.3764008  )
         7           Nb  tau(   7) = (   0.2858672   0.6291626   0.7103852  )
         8           Ta  tau(   8) = (   0.1294832   0.4647675   0.5429471  )
         9           Ta  tau(   9) = (   0.4422513   0.4647675   0.5429471  )
        10           Ta  tau(  10) = (   0.1399628   0.1406984   0.2204260  )
        11           Ta  tau(  11) = (   0.1394848   0.1400847   0.8666573  )
        12           Ta  tau(  12) = (   0.1396156   0.7897030   0.2190832  )
        13           Ta  tau(  13) = (   0.1400119   0.7885528   0.8657390  )
        14           Ta  tau(  14) = (   0.4317717   0.1406984   0.2204260  )
        15           Ta  tau(  15) = (   0.4322496   0.1400847   0.8666573  )
        16           Ta  tau(  16) = (   0.4321189   0.7897030   0.2190832  )
        17           Ta  tau(  17) = (   0.4317226   0.7885528   0.8657390  )
        18           Zr  tau(  18) = (   0.2858672   0.6280820   0.3776642  )
        19           Zr  tau(  19) = (   0.1331729   0.4627493   0.2141328  )
        20           Zr  tau(  20) = (   0.1328036   0.4661802   0.8725649  )
        21           Zr  tau(  21) = (   0.4385616   0.4627493   0.2141328  )
        22           Zr  tau(  22) = (   0.4389309   0.4661802   0.8725649  )
        23           H   tau(  23) = (   0.6276957   0.5573903   0.5965931  )

     number of k points=     1  Gaussian smearing, width (Ry)=  0.0220
                       cart. coord. in units 2pi/alat
        k(    1) = (   0.0000000   0.0000000   0.0000000), wk =   1.0000000

     Dense  grid:   493003 G-vectors     FFT dimensions: ( 125, 120, 135)

     Estimated max dynamical RAM per process >     133.03 MB

     Estimated total dynamical RAM >       5.46 GB

     Check: negative core charge=   -0.000002
     Generating pointlists ...
     new r_m :   0.1117 (alat units)  1.9717 (a.u.) for type    1
     new r_m :   0.1098 (alat units)  1.9374 (a.u.) for type    2
     new r_m :   0.0883 (alat units)  1.5589 (a.u.) for type    3
     new r_m :   0.1112 (alat units)  1.9625 (a.u.) for type    4
     new r_m :   0.0883 (alat units)  1.5589 (a.u.) for type    5

     Initial potential from superposition of free atoms

     starting charge     266.9726, renormalised to     277.0000

     negative rho (up, down):  9.217E-01 9.217E-01
     Starting wfcs are  287 randomized atomic wfcs

     total cpu time spent up to now is       12.2 secs

     Self-consistent Calculation

     iteration #  1     ecut=   120.00 Ry     beta= 0.70
     Davidson diagonalization with overlap
     ethr =  1.00E-02,  avg # of iterations =  2.0

     negative rho (up, down):  9.956E-01 9.953E-01

     total cpu time spent up to now is       32.2 secs

     total energy              =   -2930.55206247 Ry
     estimated scf accuracy    <     277.08287383 Ry

     total magnetization       =    -0.00 Bohr mag/cell
     absolute magnetization    =     0.09 Bohr mag/cell

     iteration #  2     ecut=   120.00 Ry     beta= 0.70
     Davidson diagonalization with overlap
     ethr =  1.00E-02,  avg # of iterations =  5.0

     negative rho (up, down):  9.685E-01 9.711E-01

     total cpu time spent up to now is       61.6 secs

     total energy              =   -2942.18906598 Ry
     estimated scf accuracy    <      30.22512437 Ry

     total magnetization       =     0.17 Bohr mag/cell
     absolute magnetization    =     0.40 Bohr mag/cell

     iteration #  3     ecut=   120.00 Ry     beta= 0.70
     Davidson diagonalization with overlap
     ethr =  1.00E-02,  avg # of iterations =  2.0

     negative rho (up, down):  1.005E+00 1.010E+00

     total cpu time spent up to now is      100.6 secs

     total energy              =   -2942.64968572 Ry
     estimated scf accuracy    <      12.90028573 Ry

     total magnetization       =     0.08 Bohr mag/cell
     absolute magnetization    =     0.46 Bohr mag/cell

     iteration #  4     ecut=   120.00 Ry     beta= 0.70
     Davidson diagonalization with overlap
     ethr =  4.66E-03,  avg # of iterations =  3.0

     negative rho (up, down):  1.013E+00 1.016E+00

     total cpu time spent up to now is      132.3 secs

     total energy              =   -2942.91319614 Ry
     estimated scf accuracy    <       3.16054892 Ry

     total magnetization       =     0.16 Bohr mag/cell
     absolute magnetization    =     0.45 Bohr mag/cell

     iteration #  5     ecut=   120.00 Ry     beta= 0.70
     Davidson diagonalization with overlap
     ethr =  1.14E-03,  avg # of iterations =  8.0

     negative rho (up, down):  9.888E-01 9.901E-01

     total cpu time spent up to now is      155.1 secs

     total energy              =   -2943.06721469 Ry
     estimated scf accuracy    <       1.69359302 Ry

     total magnetization       =     0.11 Bohr mag/cell
     absolute magnetization    =     0.26 Bohr mag/cell

     iteration #  6     ecut=   120.00 Ry     beta= 0.70
     Davidson diagonalization with overlap
     ethr =  6.11E-04,  avg # of iterations =  2.0

     negative rho (up, down):  9.755E-01 9.763E-01

     total cpu time spent up to now is      172.3 secs

     total energy              =   -2943.11055656 Ry
     estimated scf accuracy    <       1.08433663 Ry

     total magnetization       =     0.09 Bohr mag/cell
     absolute magnetization    =     0.20 Bohr mag/cell

     iteration #  7     ecut=   120.00 Ry     beta= 0.70
     Davidson diagonalization with overlap
     ethr =  3.91E-04,  avg # of iterations =  1.0

     negative rho (up, down):  9.490E-01 9.495E-01

     total cpu time spent up to now is      188.5 secs

     total energy              =   -2943.05842001 Ry
     estimated scf accuracy    <       0.41721618 Ry

     total magnetization       =     0.09 Bohr mag/cell
     absolute magnetization    =     0.18 Bohr mag/cell

     iteration #  8     ecut=   120.00 Ry     beta= 0.70
     Davidson diagonalization with overlap
     ethr =  1.51E-04,  avg # of iterations =  5.0

     negative rho (up, down):  9.217E-01 9.217E-01

     total cpu time spent up to now is      207.1 secs

     total energy              =   -2943.05939934 Ry
     estimated scf accuracy    <       0.21364174 Ry

     total magnetization       =     0.08 Bohr mag/cell
     absolute magnetization    =     0.14 Bohr mag/cell

     iteration #  9     ecut=   120.00 Ry     beta= 0.70
     Davidson diagonalization with overlap
     ethr =  7.71E-05,  avg # of iterations = 10.5

     negative rho (up, down):  9.081E-01 9.081E-01

     total cpu time spent up to now is      244.7 secs

     total energy              =   -2943.05390159 Ry
     estimated scf accuracy    <       0.06087438 Ry

     total magnetization       =     0.07 Bohr mag/cell
     absolute magnetization    =     0.11 Bohr mag/cell

     iteration # 10     ecut=   120.00 Ry     beta= 0.70
     Davidson diagonalization with overlap
     c_bands:  1 eigenvalues not converged
     ethr =  2.20E-05,  avg # of iterations = 18.0

     negative rho (up, down):  9.084E-01 9.084E-01

     total cpu time spent up to now is      290.4 secs

     total energy              =   -2943.05945834 Ry
     estimated scf accuracy    <       0.03851708 Ry

     total magnetization       =     0.06 Bohr mag/cell
     absolute magnetization    =     0.08 Bohr mag/cell

     iteration # 11     ecut=   120.00 Ry     beta= 0.70
     Davidson diagonalization with overlap
     ethr =  1.39E-05,  avg # of iterations =  1.5

     negative rho (up, down):  9.092E-01 9.092E-01

     total cpu time spent up to now is      307.3 secs

     total energy              =   -2943.06291763 Ry
     estimated scf accuracy    <       0.00903732 Ry

     total magnetization       =     0.05 Bohr mag/cell
     absolute magnetization    =     0.07 Bohr mag/cell

     iteration # 12     ecut=   120.00 Ry     beta= 0.70
     Davidson diagonalization with overlap
     ethr =  3.26E-06,  avg # of iterations = 10.5

     negative rho (up, down):  9.093E-01 9.093E-01

     total cpu time spent up to now is      329.1 secs

     total energy              =   -2943.06562070 Ry
     estimated scf accuracy    <       0.00244834 Ry

     total magnetization       =     0.05 Bohr mag/cell
     absolute magnetization    =     0.06 Bohr mag/cell

     iteration # 13     ecut=   120.00 Ry     beta= 0.70
     Davidson diagonalization with overlap
     ethr =  8.84E-07,  avg # of iterations =  7.0

     negative rho (up, down):  9.090E-01 9.090E-01

     Magnetic moment per site  (integrated on atomic sphere of radius R)
     atom   1 (R=0.112)  charge=  9.4619    0.0002
     atom   2 (R=0.112)  charge=  9.0595    0.0003
     atom   3 (R=0.112)  charge=  9.0583    0.0002
     atom   4 (R=0.112)  charge=  9.0578   -0.0002
     atom   5 (R=0.112)  charge=  9.0501    0.0005
     atom   6 (R=0.110)  charge= 10.3491    0.0005
     atom   7 (R=0.110)  charge= 10.3487   -0.0000
     atom   8 (R=0.088)  charge=  8.1255   -0.0001
     atom   9 (R=0.088)  charge=  8.1159    0.0003
     atom  10 (R=0.088)  charge=  8.1059    0.0006
     atom  11 (R=0.088)  charge=  8.1033    0.0008
     atom  12 (R=0.088)  charge=  8.1063    0.0010
     atom  13 (R=0.088)  charge=  8.1037    0.0007
     atom  14 (R=0.088)  charge=  8.1055    0.0011
     atom  15 (R=0.088)  charge=  8.1023    0.0006
     atom  16 (R=0.088)  charge=  8.1058    0.0001
     atom  17 (R=0.088)  charge=  8.1084    0.0017
     atom  18 (R=0.111)  charge=  9.4532    0.0003
     atom  19 (R=0.111)  charge=  9.0000    0.0004
     atom  20 (R=0.111)  charge=  8.9968    0.0002
     atom  21 (R=0.111)  charge=  8.9994    0.0003
     atom  22 (R=0.111)  charge=  8.9961    0.0004
     atom  23 (R=0.088)  charge=  0.9730    0.0000

     total cpu time spent up to now is      347.7 secs

     End of self-consistent calculation

 ------ SPIN UP ------------


          k = 0.0000 0.0000 0.0000 ( 61588 PWs)   bands (ev):

   -60.7969 -60.7877 -60.7524 -60.7427 -60.7176 -60.7115 -60.6733 -60.6682
   -60.5299 -60.4052 -54.4014 -54.3530 -54.2738 -54.2267 -52.7107 -46.2809
   -46.2730 -41.6637 -41.6530 -41.5682 -41.5517 -39.8135 -27.7971 -27.7910
   -27.7128 -27.7032 -27.6101 -27.6039 -27.4841 -27.4737 -27.3817 -27.3473
   -27.3121 -27.2850 -27.2710 -27.2522 -27.2399 -27.1858 -27.1788 -27.1568
   -27.1020 -27.0773 -27.0171 -26.9754 -26.9686 -26.9618 -26.9529 -26.9064
   -26.9014 -26.8947 -26.8715 -26.8690 -24.1867 -23.9741 -23.6746 -23.5831
   -23.3304 -23.1978 -23.1753 -23.0734 -22.9472 -22.8744 -22.8532 -22.6327
   -22.5208 -22.4687 -22.4118 -22.3693 -22.2946 -22.2498 -21.7716 -21.7063
   -21.6407 -20.2185 -19.9702 -19.8578 -19.8472 -19.6412 -19.6226 -19.6141
   -19.6000 -19.5961 -19.5542 -19.3967 -19.3932 -18.1587 -17.9570 -17.8327
     1.4542   2.9141   2.9878   3.1269   3.3033   3.4486   3.5060   3.6742
     3.7363   3.8448   3.9011   4.0591   4.2134   4.4931   4.6586   4.6797
     4.7575   4.8297   5.0260   5.0787   5.1544   5.2525   5.2746   5.3088
     5.3882   5.5425   5.5959   5.7069   5.7170   5.7404   5.7459   5.7814
     5.9279   6.0865   6.1690   6.2106   6.2551   6.2781   6.3477   6.3742
     6.4463   6.5985   6.6470   6.6937   6.8588   6.9212   6.9889   7.0342
     7.0853   7.1365   7.2484   7.2690   7.3060   7.4182   7.5408   7.5725
     7.6023   7.7180   7.8820   7.9017   8.0689   8.0930   8.1010   8.1892
     8.2408   8.2912   8.3382   8.3655   8.4533   8.5422   8.6215   8.6655
     8.8048   8.8873   8.9332   9.0548   9.1314   9.2190   9.2721

 ------ SPIN DOWN ----------


          k = 0.0000 0.0000 0.0000 ( 61588 PWs)   bands (ev):

   -60.7961 -60.7866 -60.7517 -60.7416 -60.7170 -60.7105 -60.6726 -60.6672
   -60.5299 -60.4048 -54.4012 -54.3528 -54.2737 -54.2266 -52.7106 -46.2809
   -46.2723 -41.6635 -41.6528 -41.5682 -41.5514 -39.8131 -27.7958 -27.7895
   -27.7116 -27.7016 -27.6088 -27.6023 -27.4828 -27.4728 -27.3812 -27.3463
   -27.3114 -27.2841 -27.2697 -27.2513 -27.2389 -27.1850 -27.1779 -27.1564
   -27.1018 -27.0767 -27.0167 -26.9743 -26.9671 -26.9603 -26.9517 -26.9055
   -26.8999 -26.8937 -26.8705 -26.8678 -24.1865 -23.9740 -23.6743 -23.5829
   -23.3302 -23.1975 -23.1748 -23.0731 -22.9470 -22.8742 -22.8530 -22.6325
   -22.5204 -22.4681 -22.4115 -22.3691 -22.2942 -22.2495 -21.7713 -21.7061
   -21.6405 -20.2182 -19.9701 -19.8577 -19.8470 -19.6410 -19.6224 -19.6139
   -19.6000 -19.5958 -19.5543 -19.3965 -19.3926 -18.1584 -17.9565 -17.8322
     1.4553   2.9158   2.9886   3.1277   3.3043   3.4507   3.5067   3.6749
     3.7373   3.8454   3.9029   4.0598   4.2146   4.4938   4.6592   4.6812
     4.7584   4.8309   5.0275   5.0798   5.1554   5.2533   5.2758   5.3103
     5.3899   5.5432   5.5965   5.7082   5.7178   5.7413   5.7464   5.7824
     5.9287   6.0882   6.1701   6.2116   6.2561   6.2796   6.3485   6.3751
     6.4479   6.5994   6.6479   6.6949   6.8599   6.9228   6.9921   7.0364
     7.0902   7.1387   7.2515   7.2726   7.3073   7.4234   7.5421   7.5748
     7.6042   7.7202   7.8834   7.9031   8.0714   8.0942   8.1025   8.1925
     8.2429   8.2920   8.3411   8.3669   8.4545   8.5436   8.6229   8.6665
     8.8060   8.8907   8.9345   9.0562   9.1323   9.2198   9.2716

     the Fermi energy is     7.2241 ev

!    total energy              =   -2943.06690491 Ry
     estimated scf accuracy    <       0.00050598 Ry
     smearing contrib. (-TS)   =      -0.09959305 Ry
     internal energy E=F+TS    =   -2942.96731186 Ry

     total magnetization       =     0.04 Bohr mag/cell
     absolute magnetization    =     0.05 Bohr mag/cell

     convergence has been achieved in  13 iterations

     negative rho (up, down):  9.090E-01 9.090E-01

     Forces acting on atoms (cartesian axes, Ry/au):

     atom    1 type  1   force =    -0.00494979   -0.02535695    0.01205132
     atom    2 type  1   force =    -0.11392523   -0.01816899   -0.00271321
     atom    3 type  1   force =    -0.11625886    0.01501887    0.00275274
     atom    4 type  1   force =     0.11282082   -0.01433697   -0.00541097
     atom    5 type  1   force =     0.13242047   -0.00184033    0.00653284
     atom    6 type  2   force =    -0.01162251   -0.01794394    0.00524494
     atom    7 type  2   force =    -0.01778963    0.01073516   -0.01081791
     atom    8 type  3   force =    -0.11749442    0.00425956   -0.00289061
     atom    9 type  3   force =     0.16618542    0.01584636    0.00173767
     atom   10 type  3   force =    -0.01983820   -0.03056163   -0.05957162
     atom   11 type  3   force =    -0.02079266   -0.03504754    0.05683443
     atom   12 type  3   force =    -0.01938933    0.03677127   -0.05543732
     atom   13 type  3   force =    -0.01803660    0.03151184    0.06235214
     atom   14 type  3   force =     0.02226944   -0.03003193   -0.05973528
     atom   15 type  3   force =     0.01903036   -0.03734545    0.05669248
     atom   16 type  3   force =     0.01994607    0.03764082   -0.05330231
     atom   17 type  3   force =     0.01527498    0.03754459    0.06159490
     atom   18 type  4   force =    -0.00424866    0.02419826   -0.00926949
     atom   19 type  4   force =    -0.12982709   -0.00537434   -0.11641223
     atom   20 type  4   force =    -0.13366660    0.00484197    0.11636660
     atom   21 type  4   force =     0.12703817   -0.00919033   -0.11750144
     atom   22 type  4   force =     0.14040774    0.00371331    0.11444405
     atom   23 type  5   force =    -0.02755390    0.00311639   -0.00354172
     The non-local contrib.  to forces
     atom    1 type  1   force =    -0.00262156   -0.01267751    0.03290929
     atom    2 type  1   force =    -0.24628419   -0.16307061    0.01523734
     atom    3 type  1   force =    -0.24030801    0.15698701   -0.02483200
     atom    4 type  1   force =     0.24849355   -0.16383193    0.02037797
     atom    5 type  1   force =     0.25527364    0.14570655   -0.01597234
     atom    6 type  2   force =     0.00659970   -0.05456479   -0.06816570
     atom    7 type  2   force =    -0.02431989    0.06157771    0.05973249
     atom    8 type  3   force =    -0.26858839    0.00300138   -0.00112508
     atom    9 type  3   force =     0.09285162   -0.06807101   -0.03424561
     atom   10 type  3   force =    -0.21139855    0.00368027   -0.20876786
     atom   11 type  3   force =    -0.21444322    0.00518874    0.19829136
     atom   12 type  3   force =    -0.20679155   -0.02003472   -0.17765152
     atom   13 type  3   force =    -0.21294523   -0.00404962    0.20601931
     atom   14 type  3   force =     0.20506447    0.00283469   -0.21873575
     atom   15 type  3   force =     0.21432136    0.00294371    0.19673255
     atom   16 type  3   force =     0.20660482   -0.02110533   -0.18265508
     atom   17 type  3   force =     0.23474519   -0.01473160    0.19247409
     atom   18 type  4   force =    -0.01239232    0.05570283   -0.06230424
     atom   19 type  4   force =     0.06309099    0.00796026    0.07116575
     atom   20 type  4   force =     0.05757616   -0.01810518   -0.06260087
     atom   21 type  4   force =    -0.05883609    0.00939236    0.07352448
     atom   22 type  4   force =    -0.05757879   -0.01100074   -0.06951874
     atom   23 type  5   force =    -0.03820345   -0.01445224   -0.01023519
     The ionic contribution  to forces
     atom    1 type  1   force =    -0.20374446   -4.72282459   14.04858143
     atom    2 type  1   force =   -39.66137728   -6.14024484    0.75411400
     atom    3 type  1   force =   -39.63872725    6.19925127   -0.74905321
     atom    4 type  1   force =    39.50373471   -6.20512431    0.72848827
     atom    5 type  1   force =    39.16420244    6.62984043   -0.84947940
     atom    6 type  2   force =    -0.15642003   -3.64258626  -13.99342179
     atom    7 type  2   force =    -0.42444769    3.66024063   14.05938859
     atom    8 type  3   force =   -52.07815298    0.00336504   -0.11453112
     atom    9 type  3   force =    50.56412991   -0.67773058   -0.51196171
     atom   10 type  3   force =   -36.04353957   -2.09498259  -23.08574298
     atom   11 type  3   force =   -35.11955934   -0.85341763   22.10781101
     atom   12 type  3   force =   -35.22983798    0.83136784  -22.15888439
     atom   13 type  3   force =   -36.02396664    2.23530955   23.11459450
     atom   14 type  3   force =    35.96627657   -2.11097245  -23.13096648
     atom   15 type  3   force =    35.01061269   -0.88421725   22.17293648
     atom   16 type  3   force =    35.10891312    0.89290325  -22.25789646
     atom   17 type  3   force =    35.80928202    2.37597523   23.29033113
     atom   18 type  4   force =    -0.25508260    4.39554356  -14.02818266
     atom   19 type  4   force =   -35.88143481    0.92992975  -25.56698128
     atom   20 type  4   force =   -35.86667585   -0.99114941   25.57902518
     atom   21 type  4   force =    35.73530697    0.88909038  -25.71822252
     atom   22 type  4   force =    35.55877495   -1.09623065   25.89911308
     atom   23 type  5   force =     4.16173310    0.37666364    0.41094032
     The local contribution  to forces
     atom    1 type  1   force =     0.20308572    4.70649787  -14.06972536
     atom    2 type  1   force =    39.81567310    6.28219514   -0.77496624
     atom    3 type  1   force =    39.78528152   -6.33702585    0.77524260
     atom    4 type  1   force =   -39.66010659    6.35387815   -0.76062144
     atom    5 type  1   force =   -39.30567383   -6.77770591    0.87153705
     atom    6 type  2   force =     0.14345933    3.67454471   14.05448976
     atom    7 type  2   force =     0.43527800   -3.70888042  -14.13099915
     atom    8 type  3   force =    52.26429727   -0.00464809    0.10724783
     atom    9 type  3   force =   -50.50243529    0.76816393    0.54630213
     atom   10 type  3   force =    36.26025783    2.05437294   23.24978263
     atom   11 type  3   force =    35.34210066    0.80659181  -22.26656452
     atom   12 type  3   force =    35.44248329   -0.76132774   22.29483517
     atom   13 type  3   force =    36.24598743   -2.18676146  -23.27278146
     atom   14 type  3   force =   -36.17152941    2.07166021   23.30440497
     atom   15 type  3   force =   -35.23407502    0.83324434  -22.32601611
     atom   16 type  3   force =   -35.31926906   -0.81847895   22.39947053
     atom   17 type  3   force =   -36.05284909   -2.31223425  -23.43376161
     atom   18 type  4   force =     0.26623959   -4.42715795   14.07215907
     atom   19 type  4   force =    35.69941842   -0.94790018   25.38783369
     atom   20 type  4   force =    35.68441704    1.00918642  -25.40635801
     atom   21 type  4   force =   -35.55637391   -0.91339021   25.53799808
     atom   22 type  4   force =   -35.36740986    1.10869846  -25.72376247
     atom   23 type  5   force =    -4.15142137   -0.35973504   -0.40494946
     The core correction contribution to forces
     atom    1 type  1   force =     0.00066596    0.00090118   -0.00086968
     atom    2 type  1   force =    -0.01181073   -0.00159984    0.00023097
     atom    3 type  1   force =    -0.01266009    0.00267392   -0.00154645
     atom    4 type  1   force =     0.01231509   -0.00214516    0.00224142
     atom    5 type  1   force =     0.00999194    0.00610170   -0.00116780
     atom    6 type  2   force =    -0.00036909    0.00251264    0.00277707
     atom    7 type  2   force =     0.00089317   -0.00303723   -0.00224137
     atom    8 type  3   force =    -0.03249299    0.00094289   -0.00018955
     atom    9 type  3   force =     0.01225769   -0.00931310   -0.00458754
     atom   10 type  3   force =    -0.02176370    0.00933787   -0.01666762
     atom   11 type  3   force =    -0.02409100    0.00894194    0.01817608
     atom   12 type  3   force =    -0.02234648   -0.01000002   -0.01539818
     atom   13 type  3   force =    -0.02331105   -0.00918514    0.01642989
     atom   14 type  3   force =     0.02207668    0.00997200   -0.01613024
     atom   15 type  3   force =     0.02349465    0.01026259    0.01509920
     atom   16 type  3   force =     0.02332871   -0.01178516   -0.01489984
     atom   17 type  3   force =     0.02387535   -0.00988691    0.01438547
     atom   18 type  4   force =     0.00059767   -0.00289223    0.00291637
     atom   19 type  4   force =    -0.00991687    0.00007734   -0.00947688
     atom   20 type  4   force =    -0.00976140    0.00059587    0.00907597
     atom   21 type  4   force =     0.00979259    0.00005430   -0.00961185
     atom   22 type  4   force =     0.01016403    0.00043357    0.00908010
     atom   23 type  5   force =     0.00000000    0.00000000    0.00000000
     The Hubbard contrib.    to forces
     atom    1 type  1   force =     0.00000000    0.00000000    0.00000000
     atom    2 type  1   force =     0.00000000    0.00000000    0.00000000
     atom    3 type  1   force =     0.00000000    0.00000000    0.00000000
     atom    4 type  1   force =     0.00000000    0.00000000    0.00000000
     atom    5 type  1   force =     0.00000000    0.00000000    0.00000000
     atom    6 type  2   force =     0.00000000    0.00000000    0.00000000
     atom    7 type  2   force =     0.00000000    0.00000000    0.00000000
     atom    8 type  3   force =     0.00000000    0.00000000    0.00000000
     atom    9 type  3   force =     0.00000000    0.00000000    0.00000000
     atom   10 type  3   force =     0.00000000    0.00000000    0.00000000
     atom   11 type  3   force =     0.00000000    0.00000000    0.00000000
     atom   12 type  3   force =     0.00000000    0.00000000    0.00000000
     atom   13 type  3   force =     0.00000000    0.00000000    0.00000000
     atom   14 type  3   force =     0.00000000    0.00000000    0.00000000
     atom   15 type  3   force =     0.00000000    0.00000000    0.00000000
     atom   16 type  3   force =     0.00000000    0.00000000    0.00000000
     atom   17 type  3   force =     0.00000000    0.00000000    0.00000000
     atom   18 type  4   force =     0.00000000    0.00000000    0.00000000
     atom   19 type  4   force =     0.00000000    0.00000000    0.00000000
     atom   20 type  4   force =     0.00000000    0.00000000    0.00000000
     atom   21 type  4   force =     0.00000000    0.00000000    0.00000000
     atom   22 type  4   force =     0.00000000    0.00000000    0.00000000
     atom   23 type  5   force =     0.00000000    0.00000000    0.00000000
     The SCF correction term to forces
     atom    1 type  1   force =    -0.00207705    0.00273945    0.00081534
     atom    2 type  1   force =    -0.00986773    0.00454451    0.00233041
     atom    3 type  1   force =    -0.00958663   -0.00687415    0.00260151
     atom    4 type  1   force =     0.00864245    0.00287963    0.00376250
     atom    5 type  1   force =     0.00888466   -0.00578975    0.00127503
     atom    6 type  2   force =    -0.00463403    0.00214311    0.00922530
     atom    7 type  2   force =    -0.00493483    0.00082782    0.00296122
     atom    8 type  3   force =    -0.00229893    0.00159169    0.00536700
     atom    9 type  3   force =    -0.00036013    0.00279047    0.00589011
     atom   10 type  3   force =    -0.00313582   -0.00297676    0.00148390
     atom   11 type  3   force =    -0.00454136   -0.00235904   -0.00121981
     atom   12 type  3   force =    -0.00263823   -0.00324074    0.00132130
     atom   13 type  3   force =    -0.00354272   -0.00380814   -0.00225040
     atom   14 type  3   force =     0.00063953   -0.00353303    0.00135191
     atom   15 type  3   force =     0.00493507    0.00041450   -0.00239993
     atom   16 type  3   force =     0.00062687   -0.00389964    0.00233825
     atom   17 type  3   force =     0.00047991   -0.00158454   -0.00217449
     atom   18 type  4   force =    -0.00335261    0.00299539    0.00580167
     atom   19 type  4   force =    -0.00072643    0.00455184    0.00070619
     atom   20 type  4   force =     0.00103584    0.00430761   -0.00311597
     atom   21 type  4   force =    -0.00259300    0.00565618   -0.00152994
     atom   22 type  4   force =    -0.00328420    0.00180601   -0.00080822
     atom   23 type  5   force =     0.00059620    0.00063337    0.00036230

     Total force =     0.516873     Total SCF correction =     0.032440


     Computing stress (Cartesian axis) and pressure


     negative rho (up, down):  9.090E-01 9.090E-01
          total   stress  (Ry/bohr**3)                   (kbar)     P=       83.31
   0.00067296   0.00000208  -0.00000266           99.00        0.31       -0.39
   0.00000208   0.00064317  -0.00000882            0.31       94.61       -1.30
  -0.00000266  -0.00000882   0.00038290           -0.39       -1.30       56.33


     Molecular Dynamics Calculation

     Starting temperature  =   300.00 K

     temperature is set once at start

     mass Hf               =   178.49
     mass Nb               =    92.91
     mass Ta               =   180.95
     mass Zr               =    91.22
     mass H                =     2.01
     Time step             =     4.20 a.u.,  0.2032 femto-seconds

     Entering Dynamics:    iteration =     1
                           time      =   0.0002 pico-seconds


ATOMIC_POSITIONS (angstrom)
Hf            2.6701537722        2.8271992803        6.6040090070
Hf            1.2531413689        1.2863606387        5.0585105909
Hf            1.2556375204        7.3898817043        5.0881122890
Hf            4.0871664278        1.2863607487        5.0585105135
Hf            4.0846707717        7.3898812206        5.0881123975
Nb            2.6701532736        2.7970065951        3.5156279484
Nb            2.6701529337        5.8764562466        6.6350417896
Ta            1.2095236881        4.3410049507        5.0711701931
Ta            4.1307855182        4.3410052786        5.0711703241
Ta            1.3074060799        1.3141987031        2.0588218669
Ta            1.3029416830        1.3084671227        8.0946252534
Ta            1.3041630306        7.3759041433        2.0462800536
Ta            1.3078642451        7.3651608188        8.0860484280
Ta            4.0329018173        1.3141987181        2.0588218622
Ta            4.0373660955        1.3084670577        8.0946252494
Ta            4.0361448136        7.3759041679        2.0462801140
Ta            4.0324435051        7.3651609895        8.0860484066
Zr            2.6701536757        5.8663641804        3.5274278527
Zr            1.2439812884        4.3221546414        2.0000379079
Zr            1.2405318666        4.3542005349        8.1498065241
Zr            4.0963263834        4.3221544272        2.0000378467
Zr            4.0997763402        4.3542004715        8.1498064162
H             5.6069911675        5.0782250582        5.4983823110


     kinetic energy (Ekin) =          16.19702766 Ry
     temperature           =       77494.19408669 K 
     Ekin + Etot (const)   =       -2926.86987725 Ry
     Ions kinetic stress =          286.06 (kbar)
                                    643.63         321.82         185.80
                                    321.82         160.91          92.90
                                    185.80          92.90          53.63



     Linear momentum :   -0.0000000000    0.0000000000   -0.0000000000

     File outdir/pwscf.msd.dat deleted, as requested

     Writing config-only to output data dir outdir/pwscf.save/
     NEW-OLD atomic charge density approx. for the potential

     Check: negative core charge=   -0.000002

     negative rho (up, down):  9.089E-01 9.089E-01
     Generating pointlists ...
     new r_m :   0.0753 (alat units)  1.3286 (a.u.) for type    3
     new r_m :   0.0753 (alat units)  1.3286 (a.u.) for type    5

     total cpu time spent up to now is      375.6 secs

     Self-consistent Calculation

     iteration #  1     ecut=   120.00 Ry     beta= 0.70
     Davidson diagonalization with overlap
     c_bands:  1 eigenvalues not converged
     ethr =  1.00E-06,  avg # of iterations = 15.0

     negative rho (up, down):  9.090E-01 9.090E-01

     total cpu time spent up to now is      448.1 secs

     total energy              =   -2943.05192976 Ry
     estimated scf accuracy    <       0.04924322 Ry

     total magnetization       =     0.04 Bohr mag/cell
     absolute magnetization    =     0.04 Bohr mag/cell

     iteration #  2     ecut=   120.00 Ry     beta= 0.70
     Davidson diagonalization with overlap
     ethr =  1.78E-05,  avg # of iterations =  2.0

     negative rho (up, down):  9.090E-01 9.090E-01

     total cpu time spent up to now is      467.8 secs

     total energy              =   -2943.05576779 Ry
     estimated scf accuracy    <       0.01268628 Ry

     total magnetization       =     0.04 Bohr mag/cell
     absolute magnetization    =     0.04 Bohr mag/cell

     iteration #  3     ecut=   120.00 Ry     beta= 0.70
     Davidson diagonalization with overlap
     ethr =  4.58E-06,  avg # of iterations =  2.0

     negative rho (up, down):  9.089E-01 9.089E-01

     total cpu time spent up to now is      484.7 secs

     total energy              =   -2943.05634185 Ry
     estimated scf accuracy    <       0.00245604 Ry

     total magnetization       =     0.04 Bohr mag/cell
     absolute magnetization    =     0.04 Bohr mag/cell

     iteration #  4     ecut=   120.00 Ry     beta= 0.70
     Davidson diagonalization with overlap
     ethr =  8.87E-07,  avg # of iterations =  2.0

     negative rho (up, down):  9.089E-01 9.089E-01

     Magnetic moment per site  (integrated on atomic sphere of radius R)
     atom   1 (R=0.112)  charge=  9.4637   -0.0000
     atom   2 (R=0.112)  charge=  9.0590    0.0001
     atom   3 (R=0.112)  charge=  9.0588    0.0001
     atom   4 (R=0.112)  charge=  9.0582   -0.0000
     atom   5 (R=0.112)  charge=  9.0507    0.0002
     atom   6 (R=0.110)  charge= 10.3509    0.0001
     atom   7 (R=0.110)  charge= 10.3483   -0.0000
     atom   8 (R=0.075)  charge=  6.6158   -0.0000
     atom   9 (R=0.075)  charge=  6.6267    0.0001
     atom  10 (R=0.075)  charge=  6.6005    0.0003
     atom  11 (R=0.075)  charge=  6.5978    0.0004
     atom  12 (R=0.075)  charge=  6.6011    0.0005
     atom  13 (R=0.075)  charge=  6.5999    0.0003
     atom  14 (R=0.075)  charge=  6.5991    0.0005
     atom  15 (R=0.075)  charge=  6.5970    0.0004
     atom  16 (R=0.075)  charge=  6.6010    0.0004
     atom  17 (R=0.075)  charge=  6.5995    0.0007
     atom  18 (R=0.111)  charge=  9.4553    0.0000
     atom  19 (R=0.111)  charge=  8.9979    0.0007
     atom  20 (R=0.111)  charge=  8.9966    0.0004
     atom  21 (R=0.111)  charge=  8.9970    0.0008
     atom  22 (R=0.111)  charge=  8.9961    0.0006
     atom  23 (R=0.075)  charge=  0.9162    0.0000

     total cpu time spent up to now is      501.7 secs

     End of self-consistent calculation

 ------ SPIN UP ------------


          k = 0.0000 0.0000 0.0000 ( 61588 PWs)   bands (ev):

   -60.7789 -60.7646 -60.7344 -60.7198 -60.7012 -60.6857 -60.6567 -60.6440
   -60.5048 -60.2253 -54.3849 -54.3380 -54.2562 -54.2108 -52.6982 -46.2615
   -46.2579 -41.6423 -41.6364 -41.5467 -41.5357 -39.8055 -27.7795 -27.7682
   -27.6959 -27.6800 -27.5909 -27.5811 -27.4637 -27.4563 -27.3488 -27.3263
   -27.2794 -27.2668 -27.2496 -27.2308 -27.2168 -27.1667 -27.1578 -27.1310
   -27.0771 -26.9628 -26.9579 -26.9478 -26.9410 -26.9183 -26.8849 -26.8801
   -26.8740 -26.8558 -26.8479 -26.8002 -24.1695 -23.9563 -23.6597 -23.5693
   -23.3146 -23.1801 -23.1591 -23.0557 -22.9302 -22.8619 -22.8369 -22.6188
   -22.5049 -22.4538 -22.3952 -22.3497 -22.2793 -22.2312 -21.7575 -21.6910
   -21.6289 -20.2022 -19.9493 -19.8389 -19.8324 -19.6193 -19.6042 -19.5960
   -19.5798 -19.5794 -19.5346 -19.3763 -19.3747 -18.1513 -17.9465 -17.8235
     1.4193   2.7314   2.9325   3.1439   3.3055   3.4682   3.5161   3.6919
     3.7526   3.8582   3.9191   4.0561   4.2248   4.5030   4.6579   4.6911
     4.7680   4.8047   5.0414   5.0825   5.1599   5.2715   5.2901   5.3161
     5.3989   5.5579   5.6330   5.7281   5.7325   5.7566   5.7745   5.7936
     5.9433   6.1061   6.1880   6.2307   6.2685   6.3140   6.3649   6.3855
     6.4513   6.6210   6.6632   6.7112   6.8796   6.9375   7.0006   7.0477
     7.0953   7.1510   7.2539   7.2737   7.3225   7.4318   7.5581   7.5715
     7.6222   7.7298   7.8980   7.9187   8.0874   8.0943   8.1156   8.2007
     8.2578   8.3082   8.3551   8.3817   8.4843   8.5549   8.6343   8.6817
     8.8233   8.8965   8.9640   9.0689   9.1402   9.2499   9.2931

 ------ SPIN DOWN ----------


          k = 0.0000 0.0000 0.0000 ( 61588 PWs)   bands (ev):

   -60.7782 -60.7639 -60.7337 -60.7191 -60.7005 -60.6848 -60.6560 -60.6432
   -60.5048 -60.2251 -54.3848 -54.3379 -54.2561 -54.2108 -52.6982 -46.2615
   -46.2579 -41.6418 -41.6357 -41.5463 -41.5351 -39.8054 -27.7784 -27.7671
   -27.6948 -27.6789 -27.5899 -27.5799 -27.4627 -27.4554 -27.3483 -27.3255
   -27.2791 -27.2660 -27.2488 -27.2301 -27.2158 -27.1660 -27.1572 -27.1307
   -27.0770 -26.9622 -26.9569 -26.9467 -26.9399 -26.9176 -26.8842 -26.8791
   -26.8733 -26.8549 -26.8469 -26.7999 -24.1694 -23.9563 -23.6596 -23.5693
   -23.3145 -23.1799 -23.1590 -23.0556 -22.9301 -22.8618 -22.8369 -22.6188
   -22.5049 -22.4538 -22.3951 -22.3497 -22.2792 -22.2311 -21.7574 -21.6909
   -21.6289 -20.2015 -19.9489 -19.8383 -19.8318 -19.6188 -19.6035 -19.5954
   -19.5792 -19.5789 -19.5342 -19.3756 -19.3740 -18.1512 -17.9464 -17.8233
     1.4200   2.7319   2.9338   3.1443   3.3060   3.4698   3.5166   3.6922
     3.7532   3.8587   3.9206   4.0567   4.2256   4.5035   4.6584   4.6920
     4.7686   4.8056   5.0426   5.0834   5.1606   5.2722   5.2909   5.3171
     5.4003   5.5585   5.6335   5.7290   5.7334   5.7574   5.7747   5.7944
     5.9438   6.1075   6.1888   6.2314   6.2692   6.3151   6.3656   6.3863
     6.4526   6.6217   6.6639   6.7121   6.8805   6.9389   7.0030   7.0498
     7.0995   7.1528   7.2571   7.2763   7.3236   7.4359   7.5593   7.5736
     7.6239   7.7315   7.8991   7.9198   8.0895   8.0957   8.1168   8.2033
     8.2596   8.3089   8.3575   8.3829   8.4853   8.5562   8.6355   8.6827
     8.8244   8.8995   8.9652   9.0700   9.1416   9.2510   9.2931

     the Fermi energy is     7.2355 ev

!    total energy              =   -2943.05637929 Ry
     estimated scf accuracy    <       0.00039032 Ry
     smearing contrib. (-TS)   =      -0.10004140 Ry
     internal energy E=F+TS    =   -2942.95633789 Ry

     total magnetization       =     0.04 Bohr mag/cell
     absolute magnetization    =     0.04 Bohr mag/cell

     convergence has been achieved in   4 iterations

     negative rho (up, down):  9.089E-01 9.089E-01

     Forces acting on atoms (cartesian axes, Ry/au):

     atom    1 type  1   force =    -0.00552159   -0.02353651    0.01232698
     atom    2 type  1   force =    -0.11820449   -0.01712846   -0.00220010
     atom    3 type  1   force =    -0.11973434    0.01263302    0.00223634
     atom    4 type  1   force =     0.11703667   -0.01359087   -0.00452074
     atom    5 type  1   force =     0.13068646   -0.00282128    0.00474427
     atom    6 type  2   force =    -0.01232131   -0.02045797    0.00367531
     atom    7 type  2   force =    -0.01670381    0.01113419   -0.01021823
     atom    8 type  3   force =    -0.12167409    0.00571621   -0.00054007
     atom    9 type  3   force =     0.08768260   -0.02840619   -0.02464410
     atom   10 type  3   force =    -0.01978874   -0.03046400   -0.05783685
     atom   11 type  3   force =    -0.02244351   -0.03479808    0.05583230
     atom   12 type  3   force =    -0.01935407    0.03480283   -0.05524731
     atom   13 type  3   force =    -0.01963604    0.02945224    0.06202782
     atom   14 type  3   force =     0.02252542   -0.03075802   -0.05877986
     atom   15 type  3   force =     0.02122598   -0.03633241    0.05568265
     atom   16 type  3   force =     0.01986027    0.03568952   -0.05257551
     atom   17 type  3   force =     0.01629734    0.03596540    0.06158569
     atom   18 type  4   force =    -0.00319715    0.02722133   -0.00963707
     atom   19 type  4   force =    -0.12952668   -0.00343372   -0.11479245
     atom   20 type  4   force =    -0.13277763    0.00541183    0.11422939
     atom   21 type  4   force =     0.12589638   -0.00699482   -0.11616626
     atom   22 type  4   force =     0.13574253    0.00398414    0.11385528
     atom   23 type  5   force =     0.06392980    0.04671164    0.02096251
     The non-local contrib.  to forces
     atom    1 type  1   force =    -0.00244285   -0.01041697    0.03171102
     atom    2 type  1   force =    -0.24718279   -0.16216496    0.01596340
     atom    3 type  1   force =    -0.24192993    0.15508606   -0.02524269
     atom    4 type  1   force =     0.24885077   -0.16432524    0.02056905
     atom    5 type  1   force =     0.25657401    0.14327691   -0.01889746
     atom    6 type  2   force =     0.00817826   -0.05580273   -0.06989912
     atom    7 type  2   force =    -0.02136312    0.06067880    0.06058257
     atom    8 type  3   force =    -0.26128252    0.00144258   -0.00159894
     atom    9 type  3   force =     0.03244367   -0.09886682   -0.05324121
     atom   10 type  3   force =    -0.21079084    0.00162103   -0.21028301
     atom   11 type  3   force =    -0.21534050    0.00601230    0.19743398
     atom   12 type  3   force =    -0.20416048   -0.02118338   -0.17748618
     atom   13 type  3   force =    -0.21050806   -0.00617795    0.20561744
     atom   14 type  3   force =     0.20211226    0.00223318   -0.21829363
     atom   15 type  3   force =     0.21348547    0.00318703    0.19616328
     atom   16 type  3   force =     0.20316164   -0.02277909   -0.18093797
     atom   17 type  3   force =     0.22772346   -0.01204525    0.19810348
     atom   18 type  4   force =    -0.01342440    0.05605917   -0.06195869
     atom   19 type  4   force =     0.06444382    0.01001503    0.07292609
     atom   20 type  4   force =     0.05804173   -0.01635846   -0.06447262
     atom   21 type  4   force =    -0.05990047    0.01143833    0.07400475
     atom   22 type  4   force =    -0.05833847   -0.01076434   -0.06623822
     atom   23 type  5   force =    -0.06117044   -0.02693005   -0.01766753
     The ionic contribution  to forces
     atom    1 type  1   force =    -0.24869810   -4.75422114   14.07457896
     atom    2 type  1   force =   -39.68461795   -6.14932988    0.75721964
     atom    3 type  1   force =   -39.67817761    6.20154644   -0.74371853
     atom    4 type  1   force =    39.50498153   -6.24929949    0.73058862
     atom    5 type  1   force =    39.19863357    6.69740188   -0.83678701
     atom    6 type  2   force =    -0.19500334   -3.66941549  -14.01782608
     atom    7 type  2   force =    -0.49300000    3.70238400   14.10485633
     atom    8 type  3   force =   -52.15025204    0.00986212   -0.10923677
     atom    9 type  3   force =    49.95947832   -0.97850391   -0.68466429
     atom   10 type  3   force =   -36.05602705   -2.09985822  -23.08951268
     atom   11 type  3   force =   -35.13554442   -0.85903347   22.10952392
     atom   12 type  3   force =   -35.24671527    0.83314984  -22.16138866
     atom   13 type  3   force =   -36.04733629    2.23484954   23.11340870
     atom   14 type  3   force =    35.96786910   -2.12406723  -23.14396063
     atom   15 type  3   force =    35.01669828   -0.90206571   22.18461479
     atom   16 type  3   force =    35.11526963    0.90540718  -22.27234329
     atom   17 type  3   force =    35.83539923    2.38276597   23.29504101
     atom   18 type  4   force =    -0.30730150    4.42347615  -14.06206926
     atom   19 type  4   force =   -35.90240322    0.93236079  -25.57331211
     atom   20 type  4   force =   -35.89826397   -0.98606236   25.58193928
     atom   21 type  4   force =    35.73187115    0.88800243  -25.76458069
     atom   22 type  4   force =    35.57056243   -1.08897828   25.95996674
     atom   23 type  5   force =     5.14257751    0.64962883    0.54766201
     The local contribution  to forces
     atom    1 type  1   force =     0.24429349    4.74398277  -14.09739032
     atom    2 type  1   force =    39.81906186    6.29554807   -0.77821676
     atom    3 type  1   force =    39.80704883   -6.34596951    0.76857384
     atom    4 type  1   force =   -39.64765091    6.40478678   -0.75950805
     atom    5 type  1   force =   -39.34129278   -6.84720733    0.85409610
     atom    6 type  2   force =     0.17212981    3.70167410   14.08983226
     atom    7 type  2   force =     0.49168702   -3.75391282  -14.17720962
     atom    8 type  3   force =    52.32039552   -0.00557529    0.10971507
     atom    9 type  3   force =   -49.90100561    1.06894804    0.72320965
     atom   10 type  3   force =    36.26224575    2.05273689   23.26255431
     atom   11 type  3   force =    35.34253293    0.80971991  -22.27267582
     atom   12 type  3   force =    35.44985200   -0.76873120   22.29933877
     atom   13 type  3   force =    36.25007331   -2.19517820  -23.27237928
     atom   14 type  3   force =   -36.16810581    2.07457928   23.32216539
     atom   15 type  3   force =   -35.22571533    0.85651938  -22.34362204
     atom   16 type  3   force =   -35.32272305   -0.83702420   22.41594534
     atom   17 type  3   force =   -36.06850246   -2.32795734  -23.44326319
     atom   18 type  4   force =     0.31515232   -4.44556690   14.10700263
     atom   19 type  4   force =    35.71555067   -0.94018974   25.39663594
     atom   20 type  4   force =    35.71360027    1.01071839  -25.41327743
     atom   21 type  4   force =   -35.55750984   -0.90024940   25.58656551
     atom   22 type  4   force =   -35.39014700    1.10254830  -25.78979713
     atom   23 type  5   force =    -5.02195616   -0.57813440   -0.51050511
     The core correction contribution to forces
     atom    1 type  1   force =     0.00079963    0.00090975   -0.00140448
     atom    2 type  1   force =    -0.01172433   -0.00161884    0.00033122
     atom    3 type  1   force =    -0.01252881    0.00284154   -0.00156612
     atom    4 type  1   force =     0.01213661   -0.00244772    0.00222815
     atom    5 type  1   force =     0.01067803    0.00531879   -0.00113812
     atom    6 type  2   force =    -0.00036233    0.00270945    0.00301337
     atom    7 type  2   force =     0.00077292   -0.00294341   -0.00228518
     atom    8 type  3   force =    -0.03168231    0.00080315   -0.00032564
     atom    9 type  3   force =     0.00690628   -0.01197060   -0.00664392
     atom   10 type  3   force =    -0.02147555    0.00932375   -0.01668327
     atom   11 type  3   force =    -0.02415429    0.00908136    0.01818050
     atom   12 type  3   force =    -0.02218257   -0.01007232   -0.01534028
     atom   13 type  3   force =    -0.02312618   -0.00926677    0.01640736
     atom   14 type  3   force =     0.02200047    0.00993274   -0.01629200
     atom   15 type  3   force =     0.02341675    0.01017981    0.01531481
     atom   16 type  3   force =     0.02290520   -0.01169759   -0.01479312
     atom   17 type  3   force =     0.02335105   -0.00961919    0.01493641
     atom   18 type  4   force =     0.00065986   -0.00284563    0.00295259
     atom   19 type  4   force =    -0.00995799    0.00004255   -0.00956284
     atom   20 type  4   force =    -0.00977349    0.00055002    0.00914529
     atom   21 type  4   force =     0.00975661    0.00001074   -0.00962926
     atom   22 type  4   force =     0.01009921    0.00040766    0.00889962
     atom   23 type  5   force =     0.00000000    0.00000000    0.00000000
     The Hubbard contrib.    to forces
     atom    1 type  1   force =     0.00000000    0.00000000    0.00000000
     atom    2 type  1   force =     0.00000000    0.00000000    0.00000000
     atom    3 type  1   force =     0.00000000    0.00000000    0.00000000
     atom    4 type  1   force =     0.00000000    0.00000000    0.00000000
     atom    5 type  1   force =     0.00000000    0.00000000    0.00000000
     atom    6 type  2   force =     0.00000000    0.00000000    0.00000000
     atom    7 type  2   force =     0.00000000    0.00000000    0.00000000
     atom    8 type  3   force =     0.00000000    0.00000000    0.00000000
     atom    9 type  3   force =     0.00000000    0.00000000    0.00000000
     atom   10 type  3   force =     0.00000000    0.00000000    0.00000000
     atom   11 type  3   force =     0.00000000    0.00000000    0.00000000
     atom   12 type  3   force =     0.00000000    0.00000000    0.00000000
     atom   13 type  3   force =     0.00000000    0.00000000    0.00000000
     atom   14 type  3   force =     0.00000000    0.00000000    0.00000000
     atom   15 type  3   force =     0.00000000    0.00000000    0.00000000
     atom   16 type  3   force =     0.00000000    0.00000000    0.00000000
     atom   17 type  3   force =     0.00000000    0.00000000    0.00000000
     atom   18 type  4   force =     0.00000000    0.00000000    0.00000000
     atom   19 type  4   force =     0.00000000    0.00000000    0.00000000
     atom   20 type  4   force =     0.00000000    0.00000000    0.00000000
     atom   21 type  4   force =     0.00000000    0.00000000    0.00000000
     atom   22 type  4   force =     0.00000000    0.00000000    0.00000000
     atom   23 type  5   force =     0.00000000    0.00000000    0.00000000
     The SCF correction term to forces
     atom    1 type  1   force =     0.00015786   -0.00368401    0.00453693
     atom    2 type  1   force =     0.00589033    0.00054407    0.00220754
     atom    3 type  1   force =     0.00548481   -0.00076460    0.00389497
     atom    4 type  1   force =    -0.00164971   -0.00219828    0.00130662
     atom    5 type  1   force =     0.00572524   -0.00150462    0.00717590
     atom    6 type  2   force =     0.00236790    0.00048362   -0.00174000
     atom    7 type  2   force =     0.00483099    0.00503454    0.00354280
     atom    8 type  3   force =     0.00077889   -0.00070944    0.00061134
     atom    9 type  3   force =    -0.01050845   -0.00790599   -0.00359920
     atom   10 type  3   force =     0.00589056    0.00581947   -0.00420707
     atom   11 type  3   force =     0.00969439   -0.00047127    0.00307485
     atom   12 type  3   force =     0.00348387    0.00174680   -0.00066583
     atom   13 type  3   force =     0.01089281    0.00533254   -0.00132127
     atom   14 type  3   force =    -0.00171898    0.00667092   -0.00269385
     atom   15 type  3   force =    -0.00702758   -0.00404602    0.00291695
     atom   16 type  3   force =     0.00087847    0.00189013   -0.00074135
     atom   17 type  3   force =    -0.00204232    0.00292812   -0.00352688
     atom   18 type  4   force =     0.00134819   -0.00379454    0.00414080
     atom   19 type  4   force =     0.00247165   -0.00555544   -0.00177441
     atom   20 type  4   force =     0.00324944   -0.00332885    0.00060001
     atom   21 type  4   force =     0.00131055   -0.00609001   -0.00282144
     atom   22 type  4   force =     0.00319798    0.00087770    0.00072940
     atom   23 type  5   force =     0.00411051    0.00225418    0.00117827

     Total force =     0.503364     Total SCF correction =     0.034114


     Computing stress (Cartesian axis) and pressure


     negative rho (up, down):  9.089E-01 9.089E-01
          total   stress  (Ry/bohr**3)                   (kbar)     P=       86.31
   0.00071404   0.00002247   0.00000813          105.04        3.31        1.20
   0.00002247   0.00066224  -0.00000324            3.31       97.42       -0.48
   0.00000813  -0.00000324   0.00038383            1.20       -0.48       56.46


     Entering Dynamics:    iteration =     2
                           time      =   0.0004 pico-seconds


ATOMIC_POSITIONS (angstrom)
Hf            2.6703072705        2.8272741809        6.6040545027
Hf            1.2532852751        1.2864361132        5.0585548294
Hf            1.2557812718        7.3899598386        5.0881569389
Hf            4.0873303372        1.2864365361        5.0585545415
Hf            4.0848360267        7.3899579845        5.0881572997
Nb            2.6703052319        2.7970803294        3.5156730853
Nb            2.6703040689        5.8765350443        6.6350845095
Ta            1.2096674334        4.3410823734        5.0712145234
Ta            4.1309491413        4.3410810979        5.0712134211
Ta            1.3075583556        1.3142730925        2.0588613500
Ta            1.3030937814        1.3085411399        8.0946744646
Ta            1.3043153436        7.3759841324        2.0463198003
Ta            1.3080165805        7.3652403561        8.0860981460
Ta            4.0330576797        1.3142731059        2.0588612874
Ta            4.0375217927        1.3085409230        8.0946744481
Ta            4.0363004593        7.3759842318        2.0463200724
Ta            4.0325988170        7.3652410662        8.0860980781
Zr            2.6703070354        5.8664455734        3.5274706930
Zr            1.2441134159        4.3222309328        2.0000629281
Zr            1.2406634136        4.3542783929        8.1498703234
Zr            4.0965016061        4.3222301046        2.0000626516
Zr            4.0999534188        4.3542781059        8.1498700655
H             5.3516297668        4.9506623015        5.4246914263


     kinetic energy (Ekin) =          16.18102568 Ry
     temperature           =       77417.63312363 K 
     Ekin + Etot (const)   =       -2926.87535361 Ry
     Ions kinetic stress =          285.77 (kbar)
                                    643.17         321.38         185.62
                                    321.38         160.59          92.75
                                    185.62          92.75          53.57



     Linear momentum :   -0.0000000000    0.0000000000   -0.0000000000

     Writing config-only to output data dir outdir/pwscf.save/
     NEW-OLD atomic charge density approx. for the potential

     Check: negative core charge=   -0.000002

     negative rho (up, down):  9.087E-01 9.087E-01
     Generating pointlists ...
     new r_m :   0.0622 (alat units)  1.0987 (a.u.) for type    3
     new r_m :   0.0622 (alat units)  1.0987 (a.u.) for type    5

     total cpu time spent up to now is      526.9 secs

     Self-consistent Calculation

     iteration #  1     ecut=   120.00 Ry     beta= 0.70
     Davidson diagonalization with overlap
     c_bands:  1 eigenvalues not converged
     ethr =  1.00E-06,  avg # of iterations = 13.5

     negative rho (up, down):  9.090E-01 9.090E-01

     total cpu time spent up to now is      595.8 secs

     total energy              =   -2942.92908330 Ry
     estimated scf accuracy    <       0.07549481 Ry

     total magnetization       =     0.03 Bohr mag/cell
     absolute magnetization    =     0.04 Bohr mag/cell

     iteration #  2     ecut=   120.00 Ry     beta= 0.70
     Davidson diagonalization with overlap
     ethr =  2.73E-05,  avg # of iterations =  2.5

     negative rho (up, down):  9.088E-01 9.088E-01

     total cpu time spent up to now is      622.8 secs

     total energy              =   -2942.93710876 Ry
     estimated scf accuracy    <       0.02109841 Ry

     total magnetization       =     0.03 Bohr mag/cell
     absolute magnetization    =     0.04 Bohr mag/cell

     iteration #  3     ecut=   120.00 Ry     beta= 0.70
     Davidson diagonalization with overlap
     ethr =  7.62E-06,  avg # of iterations =  2.0

     negative rho (up, down):  9.087E-01 9.087E-01

     total cpu time spent up to now is      639.8 secs

     total energy              =   -2942.93820395 Ry
     estimated scf accuracy    <       0.00324494 Ry

     total magnetization       =     0.03 Bohr mag/cell
     absolute magnetization    =     0.04 Bohr mag/cell

     iteration #  4     ecut=   120.00 Ry     beta= 0.70
     Davidson diagonalization with overlap
     c_bands:  1 eigenvalues not converged
     ethr =  1.17E-06,  avg # of iterations = 11.0

     negative rho (up, down):  9.086E-01 9.086E-01

     Magnetic moment per site  (integrated on atomic sphere of radius R)
     atom   1 (R=0.112)  charge=  9.4643   -0.0001
     atom   2 (R=0.112)  charge=  9.0594    0.0001
     atom   3 (R=0.112)  charge=  9.0595    0.0001
     atom   4 (R=0.112)  charge=  9.0594    0.0000
     atom   5 (R=0.112)  charge=  9.0526    0.0001
     atom   6 (R=0.110)  charge= 10.3510   -0.0001
     atom   7 (R=0.110)  charge= 10.3473   -0.0001
     atom   8 (R=0.062)  charge=  4.5359    0.0000
     atom   9 (R=0.062)  charge=  4.5600    0.0001
     atom  10 (R=0.062)  charge=  4.5230    0.0001
     atom  11 (R=0.062)  charge=  4.5216    0.0002
     atom  12 (R=0.062)  charge=  4.5225    0.0002
     atom  13 (R=0.062)  charge=  4.5214    0.0002
     atom  14 (R=0.062)  charge=  4.5221    0.0002
     atom  15 (R=0.062)  charge=  4.5196    0.0002
     atom  16 (R=0.062)  charge=  4.5189    0.0002
     atom  17 (R=0.062)  charge=  4.5217    0.0003
     atom  18 (R=0.111)  charge=  9.4563   -0.0000
     atom  19 (R=0.111)  charge=  8.9994    0.0006
     atom  20 (R=0.111)  charge=  8.9963    0.0004
     atom  21 (R=0.111)  charge=  9.0001    0.0007
     atom  22 (R=0.111)  charge=  8.9965    0.0006
     atom  23 (R=0.062)  charge=  0.8622    0.0000

     total cpu time spent up to now is      658.5 secs

     End of self-consistent calculation

 ------ SPIN UP ------------


          k = 0.0000 0.0000 0.0000 ( 61588 PWs)   bands (ev):

   -60.7865 -60.7651 -60.7415 -60.7214 -60.7065 -60.6888 -60.6613 -60.6470
   -60.4942 -60.0318 -54.3888 -54.3437 -54.2609 -54.2152 -52.7070 -46.2748
   -46.2576 -41.6404 -41.6327 -41.5417 -41.5397 -39.8176 -27.7862 -27.7704
   -27.7023 -27.6823 -27.6002 -27.5812 -27.4673 -27.4604 -27.3539 -27.3281
   -27.2813 -27.2733 -27.2506 -27.2332 -27.2181 -27.1695 -27.1592 -27.1261
   -27.0673 -26.9662 -26.9484 -26.9477 -26.9453 -26.8975 -26.8846 -26.8792
   -26.8608 -26.8529 -26.7586 -26.7089 -24.1736 -23.9599 -23.6652 -23.5759
   -23.3199 -23.1831 -23.1639 -23.0590 -22.9345 -22.8688 -22.8419 -22.6249
   -22.5150 -22.4599 -22.3998 -22.3520 -22.2859 -22.2343 -21.7641 -21.6968
   -21.6365 -20.2082 -19.9408 -19.8425 -19.8373 -19.6115 -19.6055 -19.5956
   -19.5798 -19.5760 -19.5324 -19.3801 -19.3685 -18.1623 -17.9559 -17.8350
     1.3222   2.3915   2.9279   3.1414   3.2908   3.4706   3.5069   3.6912
     3.7377   3.8751   3.9165   4.0456   4.2141   4.4728   4.6334   4.6892
     4.7573   4.7945   5.0392   5.0675   5.1578   5.2741   5.2844   5.3067
     5.3916   5.5535   5.6618   5.7255   5.7337   5.7539   5.7820   5.7943
     5.9374   6.1070   6.1893   6.2317   6.2634   6.3407   6.3621   6.3772
     6.4427   6.6262   6.6621   6.7158   6.8879   6.9348   6.9923   7.0493
     7.0949   7.1503   7.2321   7.2675   7.3227   7.4296   7.5526   7.5612
     7.6228   7.7267   7.8954   7.9170   8.0837   8.0884   8.1126   8.1916
     8.2556   8.3022   8.3528   8.3800   8.4951   8.5510   8.6335   8.6798
     8.8260   8.8958   8.9792   9.0661   9.1210   9.2612   9.2906

 ------ SPIN DOWN ----------


          k = 0.0000 0.0000 0.0000 ( 61588 PWs)   bands (ev):

   -60.7859 -60.7645 -60.7410 -60.7207 -60.7059 -60.6881 -60.6607 -60.6464
   -60.4941 -60.0314 -54.3888 -54.3436 -54.2608 -54.2151 -52.7071 -46.2749
   -46.2577 -41.6399 -41.6322 -41.5413 -41.5392 -39.8177 -27.7854 -27.7695
   -27.7014 -27.6813 -27.5994 -27.5802 -27.4664 -27.4595 -27.3534 -27.3275
   -27.2810 -27.2727 -27.2500 -27.2325 -27.2173 -27.1688 -27.1585 -27.1257
   -27.0670 -26.9654 -26.9476 -26.9468 -26.9443 -26.8969 -26.8838 -26.8784
   -26.8600 -26.8520 -26.7581 -26.7082 -24.1735 -23.9598 -23.6651 -23.5759
   -23.3199 -23.1830 -23.1638 -23.0590 -22.9345 -22.8687 -22.8419 -22.6249
   -22.5152 -22.4600 -22.3998 -22.3520 -22.2859 -22.2343 -21.7641 -21.6969
   -21.6365 -20.2076 -19.9403 -19.8420 -19.8369 -19.6110 -19.6050 -19.5951
   -19.5794 -19.5754 -19.5319 -19.3794 -19.3679 -18.1625 -17.9560 -17.8350
     1.3227   2.3919   2.9290   3.1418   3.2911   3.4720   3.5073   3.6915
     3.7383   3.8756   3.9177   4.0461   4.2149   4.4733   4.6338   4.6899
     4.7579   4.7953   5.0402   5.0683   5.1584   5.2746   5.2851   5.3074
     5.3929   5.5540   5.6621   5.7263   5.7345   5.7546   5.7826   5.7947
     5.9378   6.1082   6.1899   6.2324   6.2639   6.3416   6.3626   6.3779
     6.4439   6.6269   6.6627   6.7165   6.8888   6.9359   6.9942   7.0513
     7.0985   7.1518   7.2350   7.2697   7.3236   7.4330   7.5541   7.5627
     7.6242   7.7281   7.8963   7.9181   8.0854   8.0897   8.1136   8.1937
     8.2574   8.3029   8.3548   8.3811   8.4960   8.5522   8.6345   8.6807
     8.8270   8.8982   8.9803   9.0669   9.1217   9.2631   9.2928

     the Fermi energy is     7.2308 ev

!    total energy              =   -2942.93818307 Ry
     estimated scf accuracy    <       0.00053569 Ry
     smearing contrib. (-TS)   =      -0.10075291 Ry
     internal energy E=F+TS    =   -2942.83743016 Ry

     total magnetization       =     0.03 Bohr mag/cell
     absolute magnetization    =     0.04 Bohr mag/cell

     convergence has been achieved in   4 iterations

     negative rho (up, down):  9.086E-01 9.086E-01

     Forces acting on atoms (cartesian axes, Ry/au):

     atom    1 type  1   force =    -0.00524448   -0.02729665    0.01535964
     atom    2 type  1   force =    -0.11450876   -0.01798299   -0.00281795
     atom    3 type  1   force =    -0.11576299    0.01410105    0.00129150
     atom    4 type  1   force =     0.11450655   -0.01651613   -0.00601910
     atom    5 type  1   force =     0.12448195    0.00388124    0.00475570
     atom    6 type  2   force =    -0.01143933   -0.02189330    0.00316778
     atom    7 type  2   force =    -0.01405424    0.01246734   -0.00960111
     atom    8 type  3   force =    -0.12822381    0.00783308    0.00103608
     atom    9 type  3   force =    -0.17999193   -0.17234053   -0.11129694
     atom   10 type  3   force =    -0.01650832   -0.02833604   -0.05772734
     atom   11 type  3   force =    -0.01935980   -0.03377748    0.05641804
     atom   12 type  3   force =    -0.01781192    0.03478170   -0.05504614
     atom   13 type  3   force =    -0.01807858    0.03018240    0.06219731
     atom   14 type  3   force =     0.01944265   -0.02926532   -0.05890939
     atom   15 type  3   force =     0.01830257   -0.03659946    0.05710973
     atom   16 type  3   force =     0.01838226    0.03614580   -0.05267679
     atom   17 type  3   force =     0.01534780    0.03537833    0.06128836
     atom   18 type  4   force =    -0.00119532    0.02942380   -0.01048391
     atom   19 type  4   force =    -0.12857926   -0.00478831   -0.11472592
     atom   20 type  4   force =    -0.13250586    0.00350188    0.11513867
     atom   21 type  4   force =     0.12486899   -0.00789153   -0.11682404
     atom   22 type  4   force =     0.13220331    0.00429372    0.11736530
     atom   23 type  5   force =     0.33572851    0.18469741    0.10100053
     The non-local contrib.  to forces
     atom    1 type  1   force =    -0.00056208   -0.00883936    0.03031135
     atom    2 type  1   force =    -0.24345420   -0.16355706    0.01590168
     atom    3 type  1   force =    -0.23845181    0.15651870   -0.02619148
     atom    4 type  1   force =     0.24615201   -0.16681085    0.01935561
     atom    5 type  1   force =     0.25430970    0.14624589   -0.02166113
     atom    6 type  2   force =     0.00970864   -0.05614693   -0.07172680
     atom    7 type  2   force =    -0.01780379    0.06014555    0.06131684
     atom    8 type  3   force =    -0.25024208   -0.00147047   -0.00425111
     atom    9 type  3   force =     0.07495038   -0.08616536   -0.05015971
     atom   10 type  3   force =    -0.20995880    0.00045485   -0.21512679
     atom   11 type  3   force =    -0.21446853    0.00710927    0.19895980
     atom   12 type  3   force =    -0.20267978   -0.02065142   -0.17848612
     atom   13 type  3   force =    -0.20792901   -0.00584072    0.20647743
     atom   14 type  3   force =     0.19957166    0.00288375   -0.21942495
     atom   15 type  3   force =     0.21193421    0.00217247    0.19831586
     atom   16 type  3   force =     0.20153710   -0.02228264   -0.18056231
     atom   17 type  3   force =     0.22157499   -0.00782350    0.20428724
     atom   18 type  4   force =    -0.01334904    0.05573409   -0.06327040
     atom   19 type  4   force =     0.06758605    0.00960843    0.07384489
     atom   20 type  4   force =     0.05948720   -0.01659032   -0.06549099
     atom   21 type  4   force =    -0.06044924    0.01074049    0.07278854
     atom   22 type  4   force =    -0.05782396   -0.01056579   -0.06048287
     atom   23 type  5   force =    -0.10238950   -0.04954168   -0.03083536
     The ionic contribution  to forces
     atom    1 type  1   force =    -0.29666423   -4.79223453   14.10936642
     atom    2 type  1   force =   -39.70889899   -6.16012506    0.76013776
     atom    3 type  1   force =   -39.71370558    6.20682367   -0.73899568
     atom    4 type  1   force =    39.51022021   -6.30185739    0.73360506
     atom    5 type  1   force =    39.25500912    6.74725620   -0.81837268
     atom    6 type  2   force =    -0.23841976   -3.70341899  -14.04992752
     atom    7 type  2   force =    -0.55333619    3.75534584   14.15981039
     atom    8 type  3   force =   -52.22845964    0.01468954   -0.10499646
     atom    9 type  3   force =    48.94518585   -1.48449011   -0.97661701
     atom   10 type  3   force =   -36.06896251   -2.10537271  -23.09432976
     atom   11 type  3   force =   -35.15086493   -0.86505125   22.11240118
     atom   12 type  3   force =   -35.26283233    0.83557833  -22.16506587
     atom   13 type  3   force =   -36.06684944    2.23535384   23.11386616
     atom   14 type  3   force =    35.97143666   -2.13912236  -23.15821819
     atom   15 type  3   force =    35.02539430   -0.92015258   22.19669431
     atom   16 type  3   force =    35.12543618    0.91687656  -22.28451484
     atom   17 type  3   force =    35.86517149    2.38371015   23.29384334
     atom   18 type  4   force =    -0.36008247    4.46089284  -14.10283840
     atom   19 type  4   force =   -35.92479407    0.93470683  -25.58191049
     atom   20 type  4   force =   -35.92805721   -0.98152123   25.58780025
     atom   21 type  4   force =    35.73362926    0.88922078  -25.81623465
     atom   22 type  4   force =    35.59676059   -1.07500682   26.01495388
     atom   23 type  5   force =     6.47368369    1.14789844    0.80954279
     The local contribution  to forces
     atom    1 type  1   force =     0.28840222    4.76546117  -14.12226839
     atom    2 type  1   force =    39.85651733    6.30376540   -0.78541141
     atom    3 type  1   force =    39.85529874   -6.34660322    0.76002894
     atom    4 type  1   force =   -39.66201420    6.45122805   -0.76801095
     atom    5 type  1   force =   -39.40873620   -6.88371449    0.83858085
     atom    6 type  2   force =     0.21585819    3.72375832   14.10374972
     atom    7 type  2   force =     0.55468752   -3.79654557  -14.23106606
     atom    8 type  3   force =    52.38147834   -0.00593985    0.10268332
     atom    9 type  3   force =   -49.20946816    1.41450168    0.91731928
     atom   10 type  3   force =    36.29558552    2.06872478   23.26926513
     atom   11 type  3   force =    35.37643798    0.81972354  -22.27249389
     atom   12 type  3   force =    35.48155434   -0.76747637   22.30653768
     atom   13 type  3   force =    36.28459847   -2.18816869  -23.27327068
     atom   14 type  3   force =   -36.18228968    2.09541415   23.33219269
     atom   15 type  3   force =   -35.24713450    0.87158216  -22.34961378
     atom   16 type  3   force =   -35.33890036   -0.84267103   22.42564247
     atom   17 type  3   force =   -36.09433501   -2.32909253  -23.44834808
     atom   18 type  4   force =     0.36970889   -4.47796085   14.13800327
     atom   19 type  4   force =    35.74778447   -0.95169245   25.40114592
     atom   20 type  4   force =    35.74915924    0.99651349  -25.41094664
     atom   21 type  4   force =   -35.56564693   -0.90948755   25.63165585
     atom   22 type  4   force =   -35.42165886    1.08789632  -25.83627549
     atom   23 type  5   force =    -6.03995198   -0.91498483   -0.67910378
     The core correction contribution to forces
     atom    1 type  1   force =     0.00104533    0.00111379   -0.00203780
     atom    2 type  1   force =    -0.01164488   -0.00177150    0.00044523
     atom    3 type  1   force =    -0.01225622    0.00301042   -0.00154925
     atom    4 type  1   force =     0.01198895   -0.00273759    0.00211022
     atom    5 type  1   force =     0.01138090    0.00445376   -0.00114493
     atom    6 type  2   force =    -0.00027797    0.00295674    0.00336193
     atom    7 type  2   force =     0.00065659   -0.00290258   -0.00234733
     atom    8 type  3   force =    -0.03073647    0.00058499   -0.00039978
     atom    9 type  3   force =     0.00651419   -0.01261699   -0.00786883
     atom   10 type  3   force =    -0.02124909    0.00916392   -0.01686033
     atom   11 type  3   force =    -0.02409296    0.00917411    0.01830417
     atom   12 type  3   force =    -0.02220984   -0.01018505   -0.01544487
     atom   13 type  3   force =    -0.02313146   -0.00939856    0.01640165
     atom   14 type  3   force =     0.02195087    0.00980308   -0.01651589
     atom   15 type  3   force =     0.02342572    0.01003187    0.01570392
     atom   16 type  3   force =     0.02252761   -0.01150965   -0.01486163
     atom   17 type  3   force =     0.02261060   -0.00915416    0.01568446
     atom   18 type  4   force =     0.00072848   -0.00282272    0.00302810
     atom   19 type  4   force =    -0.01005748    0.00001030   -0.00965426
     atom   20 type  4   force =    -0.00980931    0.00050987    0.00925910
     atom   21 type  4   force =     0.00971376   -0.00001871   -0.00963012
     atom   22 type  4   force =     0.00997089    0.00033065    0.00871395
     atom   23 type  5   force =     0.00000000    0.00000000    0.00000000
     The Hubbard contrib.    to forces
     atom    1 type  1   force =     0.00000000    0.00000000    0.00000000
     atom    2 type  1   force =     0.00000000    0.00000000    0.00000000
     atom    3 type  1   force =     0.00000000    0.00000000    0.00000000
     atom    4 type  1   force =     0.00000000    0.00000000    0.00000000
     atom    5 type  1   force =     0.00000000    0.00000000    0.00000000
     atom    6 type  2   force =     0.00000000    0.00000000    0.00000000
     atom    7 type  2   force =     0.00000000    0.00000000    0.00000000
     atom    8 type  3   force =     0.00000000    0.00000000    0.00000000
     atom    9 type  3   force =     0.00000000    0.00000000    0.00000000
     atom   10 type  3   force =     0.00000000    0.00000000    0.00000000
     atom   11 type  3   force =     0.00000000    0.00000000    0.00000000
     atom   12 type  3   force =     0.00000000    0.00000000    0.00000000
     atom   13 type  3   force =     0.00000000    0.00000000    0.00000000
     atom   14 type  3   force =     0.00000000    0.00000000    0.00000000
     atom   15 type  3   force =     0.00000000    0.00000000    0.00000000
     atom   16 type  3   force =     0.00000000    0.00000000    0.00000000
     atom   17 type  3   force =     0.00000000    0.00000000    0.00000000
     atom   18 type  4   force =     0.00000000    0.00000000    0.00000000
     atom   19 type  4   force =     0.00000000    0.00000000    0.00000000
     atom   20 type  4   force =     0.00000000    0.00000000    0.00000000
     atom   21 type  4   force =     0.00000000    0.00000000    0.00000000
     atom   22 type  4   force =     0.00000000    0.00000000    0.00000000
     atom   23 type  5   force =     0.00000000    0.00000000    0.00000000
     The SCF correction term to forces
     atom    1 type  1   force =     0.00242480    0.00728011   -0.00055965
     atom    2 type  1   force =    -0.00713750    0.00378306    0.00556108
     atom    3 type  1   force =    -0.00675758   -0.00557069    0.00745126
     atom    4 type  1   force =     0.00805010    0.00373949    0.00637325
     atom    5 type  1   force =     0.01240895   -0.01028228    0.00680587
     atom    6 type  2   force =     0.00158209    0.01103539    0.01716275
     atom    7 type  2   force =     0.00163216   -0.00349807    0.00213734
     atom    8 type  3   force =    -0.00037343    0.00004671    0.00745240
     atom    9 type  3   force =     0.00271634   -0.00349192    0.00548163
     atom   10 type  3   force =    -0.01203291   -0.00122905   -0.00122330
     atom   11 type  3   force =    -0.00648083   -0.00465532   -0.00130092
     atom   12 type  3   force =    -0.01175379   -0.00240596   -0.00313468
     atom   13 type  3   force =    -0.00487661   -0.00168564   -0.00182497
     atom   14 type  3   force =     0.00866367    0.00183389    0.00250924
     atom   15 type  3   force =     0.00457337   -0.00015554   -0.00453830
     atom   16 type  3   force =     0.00767226   -0.00418959    0.00107181
     atom   17 type  3   force =     0.00021626   -0.00218379   -0.00472631
     atom   18 type  4   force =     0.00168935   -0.00634172    0.01404581
     atom   19 type  4   force =    -0.00920771    0.00265642    0.00130031
     atom   20 type  4   force =    -0.00339526    0.00466790   -0.00603076
     atom   21 type  4   force =     0.00751267    0.00173130    0.00404864
     atom   22 type  4   force =     0.00484517    0.00171719   -0.01009187
     atom   23 type  5   force =     0.00427683    0.00140331    0.00084917

     Total force =     0.682831     Total SCF correction =     0.050131


     Computing stress (Cartesian axis) and pressure


     negative rho (up, down):  9.086E-01 9.086E-01
          total   stress  (Ry/bohr**3)                   (kbar)     P=       93.89
   0.00083541   0.00007304   0.00003697          122.89       10.74        5.44
   0.00007304   0.00068865   0.00000971           10.74      101.30        1.43
   0.00003697   0.00000971   0.00039065            5.44        1.43       57.47


     Entering Dynamics:    iteration =     3
                           time      =   0.0006 pico-seconds


ATOMIC_POSITIONS (angstrom)
Hf            2.6704604680        2.8273475152        6.6041008797
Hf            1.2534226109        1.2865105559        5.0585989063
[...]
     3.6886   3.8719   3.8789   4.0787   4.2344   4.4562   4.6288   4.6378
     4.7205   4.9648   4.9961   5.0675   5.2072   5.2352   5.2647   5.3236
     5.4913   5.5474   5.6469   5.6523   5.6646   5.7061   5.7297   5.8476
     5.9053   6.0538   6.0896   6.1828   6.1963   6.2503   6.3224   6.3484
     6.4966   6.5290   6.6287   6.7200   6.7473   6.8785   6.9713   7.0057
     7.0604   7.0948   7.2226   7.2421   7.2764   7.3852   7.4949   7.5719
     7.5929   7.7616   7.8746   7.9360   8.0478   8.0552   8.0907   8.1131
     8.2030   8.2233   8.3032   8.3194   8.3399   8.5304   8.6144   8.6443
     8.7267   8.8107   8.8743   9.0173   9.0300   9.1540   9.2140

     the Fermi energy is     7.1928 ev

!    total energy              =   -2942.93961755 Ry
     estimated scf accuracy    <       0.00055712 Ry
     smearing contrib. (-TS)   =      -0.09749912 Ry
     internal energy E=F+TS    =   -2942.84211843 Ry

     total magnetization       =     0.00 Bohr mag/cell
     absolute magnetization    =     0.00 Bohr mag/cell

     convergence has been achieved in   4 iterations

     negative rho (up, down):  9.089E-01 9.089E-01

     Forces acting on atoms (cartesian axes, Ry/au):

     atom    1 type  1   force =    -0.00778754   -0.03424851    0.02284985
     atom    2 type  1   force =    -0.11335850   -0.01746451    0.00033095
     atom    3 type  1   force =    -0.13205679    0.01068239    0.00845909
     atom    4 type  1   force =     0.11411296   -0.01715329   -0.00008869
     atom    5 type  1   force =     0.12804975    0.00838507    0.00846088
     atom    6 type  2   force =    -0.01498335   -0.02291942   -0.00486091
     atom    7 type  2   force =    -0.00115946    0.01187684   -0.00863936
     atom    8 type  3   force =    -0.13018404    0.00909909    0.00017346
     atom    9 type  3   force =     0.14991765    0.02554486    0.00788977
     atom   10 type  3   force =    -0.01833854   -0.02839085   -0.06051546
     atom   11 type  3   force =    -0.01527908   -0.03455437    0.05433454
     atom   12 type  3   force =    -0.01886084    0.03529782   -0.05502328
     atom   13 type  3   force =    -0.02594427    0.03189402    0.05765968
     atom   14 type  3   force =     0.02167204   -0.03296973   -0.06258992
     atom   15 type  3   force =     0.01632090   -0.03732165    0.05524921
     atom   16 type  3   force =     0.01972446    0.03650468   -0.05722150
     atom   17 type  3   force =     0.02672640    0.03217785    0.05858312
     atom   18 type  4   force =    -0.00410821    0.02565994   -0.01341457
     atom   19 type  4   force =    -0.12527421   -0.00584651   -0.11880026
     atom   20 type  4   force =    -0.13939529    0.00520355    0.11515012
     atom   21 type  4   force =     0.12612788   -0.00650201   -0.12135903
     atom   22 type  4   force =     0.14001615    0.00652413    0.11422306
     atom   23 type  5   force =     0.00406193   -0.00147943   -0.00085076
     The non-local contrib.  to forces
     atom    1 type  1   force =     0.00633543   -0.00947880    0.01876138
     atom    2 type  1   force =    -0.25047776   -0.16100479    0.01772181
     atom    3 type  1   force =    -0.25350321    0.15970652   -0.02234090
     atom    4 type  1   force =     0.25490800   -0.16507430    0.01680566
     atom    5 type  1   force =     0.25707656    0.15864434   -0.02382916
     atom    6 type  2   force =     0.00660573   -0.04266309   -0.05082976
     atom    7 type  2   force =     0.00503386    0.05991354    0.05892585
     atom    8 type  3   force =    -0.29096512    0.00801770    0.00423234
     atom    9 type  3   force =     0.24962848    0.00326692    0.00329202
     atom   10 type  3   force =    -0.20294134    0.00336451   -0.21037717
     atom   11 type  3   force =    -0.21022363    0.00231782    0.19914659
     atom   12 type  3   force =    -0.20670587   -0.02069816   -0.18323314
     atom   13 type  3   force =    -0.24374665   -0.00877403    0.19632515
     atom   14 type  3   force =     0.20288664    0.00191705   -0.20883821
     atom   15 type  3   force =     0.20782050    0.00128134    0.19836249
     atom   16 type  3   force =     0.20522825   -0.01912990   -0.18389562
     atom   17 type  3   force =     0.24347726   -0.00561202    0.19925463
     atom   18 type  4   force =     0.00294910    0.05257203   -0.05988276
     atom   19 type  4   force =     0.06159889    0.00838268    0.06708591
     atom   20 type  4   force =     0.05875798   -0.01305760   -0.06985778
     atom   21 type  4   force =    -0.06250365    0.00856414    0.07154256
     atom   22 type  4   force =    -0.06217774   -0.01193855   -0.07128604
     atom   23 type  5   force =     0.00136195   -0.00008034   -0.00072366
     The ionic contribution  to forces
     atom    1 type  1   force =    -0.06338561   -4.83691113   14.50013266
     atom    2 type  1   force =   -39.64472107   -6.19689964    0.74541442
     atom    3 type  1   force =   -39.31102727    6.27271513   -0.82116143
     atom    4 type  1   force =    39.73545817   -6.32471381    0.78707092
     atom    5 type  1   force =    39.51110220    5.96442489   -0.77779959
     atom    6 type  2   force =    -0.28972630   -4.02410279  -14.51157892
     atom    7 type  2   force =     0.30174873    3.69125675   14.07302431
     atom    8 type  3   force =   -52.32631899    0.01342899   -0.12018721
     atom    9 type  3   force =    51.64899740    0.59433151    0.10764440
     atom   10 type  3   force =   -36.01278981   -2.10149433  -23.10292056
     atom   11 type  3   force =   -35.02394138   -0.81928130   22.12838264
     atom   12 type  3   force =   -35.13754554    0.82192957  -22.16143303
     atom   13 type  3   force =   -35.75791320    2.25308257   23.17216639
     atom   14 type  3   force =    36.03824803   -2.12477580  -23.11565185
     atom   15 type  3   force =    35.07469027   -0.80419399   22.10901771
     atom   16 type  3   force =    35.19538469    0.78543990  -22.10902035
     atom   17 type  3   force =    35.84735142    2.17456814   23.08406314
     atom   18 type  4   force =     0.07973938    4.68190930  -14.10079092
     atom   19 type  4   force =   -35.84903194    0.94116867  -25.59115843
     atom   20 type  4   force =   -35.65195578   -1.03340785   25.60954038
     atom   21 type  4   force =    35.94479449    1.00536258  -25.60558140
     atom   22 type  4   force =    35.81235923   -0.96931655   25.38463663
     atom   23 type  5   force =    -0.12151712    0.03547921    0.31619009
     The local contribution  to forces
     atom    1 type  1   force =     0.05256803    4.80712641  -14.48473269
     atom    2 type  1   force =    39.79726239    6.33872780   -0.75540593
     atom    3 type  1   force =    39.43955481   -6.42522244    0.86443938
     atom    4 type  1   force =   -39.89140248    6.47478712   -0.79546685
     atom    5 type  1   force =   -39.66124883   -6.11365618    0.82174982
     atom    6 type  2   force =     0.27453541    4.03797060   14.55541491
     atom    7 type  2   force =    -0.30429700   -3.73243534  -14.12691872
     atom    8 type  3   force =    52.52365822   -0.01081534    0.12678296
     atom    9 type  3   force =   -51.79385752   -0.57942986   -0.09609204
     atom   10 type  3   force =    36.22797586    2.06185284   23.26182984
     atom   11 type  3   force =    35.24797054    0.77080209  -22.28491688
     atom   12 type  3   force =    35.35546678   -0.75240993   22.29854987
     atom   13 type  3   force =    36.00249093   -2.19929282  -23.32269691
     atom   14 type  3   force =   -36.24166657    2.08121070   23.26392445
     atom   15 type  3   force =   -35.28605226    0.75278120  -22.25902487
     atom   16 type  3   force =   -35.40366432   -0.71535501   22.23839946
     atom   17 type  3   force =   -36.08496398   -2.12272740  -23.23294365
     atom   18 type  4   force =    -0.08299593   -4.70489682   14.14646694
     atom   19 type  4   force =    35.67918421   -0.95865603   25.40583658
     atom   20 type  4   force =    35.46690678    1.04937285  -25.42882666
     atom   21 type  4   force =   -35.76714081   -1.02393751   25.41106786
     atom   22 type  4   force =   -35.62148480    0.98545663  -25.20012157
     atom   23 type  5   force =     0.12890834   -0.03454353   -0.31337959
     The core correction contribution to forces
     atom    1 type  1   force =     0.00061718    0.00124185   -0.00153125
     atom    2 type  1   force =    -0.01244419   -0.00169191    0.00128039
     atom    3 type  1   force =    -0.01084806    0.00492357   -0.00170754
     atom    4 type  1   force =     0.01348037   -0.00213239    0.00091040
     atom    5 type  1   force =     0.01182053    0.00511740   -0.00184902
     atom    6 type  2   force =    -0.00042624    0.00188563    0.00188848
     atom    7 type  2   force =    -0.00021923   -0.00311730   -0.00235547
     atom    8 type  3   force =    -0.03361630    0.00037464    0.00033723
     atom    9 type  3   force =     0.03123528    0.00037185    0.00057923
     atom   10 type  3   force =    -0.02234215    0.00925153   -0.01678997
     atom   11 type  3   force =    -0.02288968    0.00921958    0.01573116
     atom   12 type  3   force =    -0.02335088   -0.01026100   -0.01593455
     atom   13 type  3   force =    -0.02408269   -0.00837053    0.01510054
     atom   14 type  3   force =     0.02205842    0.00929816   -0.01621476
     atom   15 type  3   force =     0.02255832    0.00941805    0.01555008
     atom   16 type  3   force =     0.02293735   -0.01043772   -0.01573453
     atom   17 type  3   force =     0.02376356   -0.00863277    0.01511879
     atom   18 type  4   force =    -0.00012235   -0.00285144    0.00289634
     atom   19 type  4   force =    -0.00981910    0.00005868   -0.00930036
     atom   20 type  4   force =    -0.01003929    0.00042117    0.00943404
     atom   21 type  4   force =     0.00998539    0.00006711   -0.00960863
     atom   22 type  4   force =     0.01035639    0.00037144    0.00945766
     atom   23 type  5   force =     0.00000000    0.00000000    0.00000000
     The Hubbard contrib.    to forces
     atom    1 type  1   force =     0.00000000    0.00000000    0.00000000
     atom    2 type  1   force =     0.00000000    0.00000000    0.00000000
     atom    3 type  1   force =     0.00000000    0.00000000    0.00000000
     atom    4 type  1   force =     0.00000000    0.00000000    0.00000000
     atom    5 type  1   force =     0.00000000    0.00000000    0.00000000
     atom    6 type  2   force =     0.00000000    0.00000000    0.00000000
     atom    7 type  2   force =     0.00000000    0.00000000    0.00000000
     atom    8 type  3   force =     0.00000000    0.00000000    0.00000000
     atom    9 type  3   force =     0.00000000    0.00000000    0.00000000
     atom   10 type  3   force =     0.00000000    0.00000000    0.00000000
     atom   11 type  3   force =     0.00000000    0.00000000    0.00000000
     atom   12 type  3   force =     0.00000000    0.00000000    0.00000000
     atom   13 type  3   force =     0.00000000    0.00000000    0.00000000
     atom   14 type  3   force =     0.00000000    0.00000000    0.00000000
     atom   15 type  3   force =     0.00000000    0.00000000    0.00000000
     atom   16 type  3   force =     0.00000000    0.00000000    0.00000000
     atom   17 type  3   force =     0.00000000    0.00000000    0.00000000
     atom   18 type  4   force =     0.00000000    0.00000000    0.00000000
     atom   19 type  4   force =     0.00000000    0.00000000    0.00000000
     atom   20 type  4   force =     0.00000000    0.00000000    0.00000000
     atom   21 type  4   force =     0.00000000    0.00000000    0.00000000
     atom   22 type  4   force =     0.00000000    0.00000000    0.00000000
     atom   23 type  5   force =     0.00000000    0.00000000    0.00000000
     The SCF correction term to forces
     atom    1 type  1   force =    -0.00378647    0.00376566   -0.00920180
     atom    2 type  1   force =    -0.00284179    0.00339655   -0.00810128
     atom    3 type  1   force =     0.00390302   -0.00144787   -0.01019196
     atom    4 type  1   force =     0.00180499   -0.00002740   -0.00883036
     atom    5 type  1   force =     0.00943539   -0.00615287   -0.00923271
     atom    6 type  2   force =    -0.00583585    0.00398275    0.00082285
     atom    7 type  2   force =    -0.00328972   -0.00374830   -0.01073686
     atom    8 type  3   force =    -0.00280574   -0.00191440   -0.01041340
     atom    9 type  3   force =     0.01405009    0.00699696   -0.00695538
     atom   10 type  3   force =    -0.00810500   -0.00137288    0.00832085
     atom   11 type  3   force =    -0.00605884    0.00237995   -0.00343051
     atom   12 type  3   force =    -0.00658923   -0.00327014    0.00760602
     atom   13 type  3   force =    -0.00255658   -0.00475866   -0.00265702
     atom   14 type  3   force =     0.00028160   -0.00062733    0.01476891
     atom   15 type  3   force =    -0.00255985    0.00338427   -0.00807774
     atom   16 type  3   force =    -0.00002542   -0.00402009    0.01360799
     atom   17 type  3   force =    -0.00276577   -0.00542559   -0.00633133
     atom   18 type  4   force =    -0.00354233   -0.00108061   -0.00152571
     atom   19 type  4   force =    -0.00707018    0.00319200    0.00931448
     atom   20 type  4   force =    -0.00292888    0.00186749   -0.00456140
     atom   21 type  4   force =     0.00112855    0.00343418    0.01179904
     atom   22 type  4   force =     0.00109915    0.00194367   -0.00788517
     atom   23 type  5   force =    -0.00455515   -0.00234227   -0.00235913

     Total force =     0.519230     Total SCF correction =     0.050844


     Computing stress (Cartesian axis) and pressure


     negative rho (up, down):  9.089E-01 9.089E-01
          total   stress  (Ry/bohr**3)                   (kbar)     P=       82.03
   0.00063189   0.00000484   0.00000364           92.95        0.71        0.54
   0.00000484   0.00065464  -0.00001110            0.71       96.30       -1.63
   0.00000364  -0.00001110   0.00038627            0.54       -1.63       56.82


     Entering Dynamics:    iteration =    20
                           time      =   0.0041 pico-seconds


ATOMIC_POSITIONS (angstrom)
Hf            2.6731196276        2.8284111873        6.6049944908
Hf            1.2547202725        1.2876380129        5.0593330385
Hf            1.2572039956        7.3914787328        5.0889931605
Hf            4.0914512883        1.2876777864        5.0593131463
Hf            4.0890468017        7.3913554253        5.0890175755
Nb            2.6731276023        2.7981509303        3.5166444585
Nb            2.6729658136        5.8781434408        6.6355876062
Ta            1.2111084216        4.3425724980        5.0720311123
Ta            4.0584855611        4.3035434320        5.0490435258
Ta            1.3100792175        1.3153082772        2.0590034367
Ta            1.3056276917        1.3095205591        8.0961042921
Ta            1.3068761046        7.3777745093        2.0464968108
Ta            1.3105761750        7.3669709882        8.0875792621
Ta            4.0360491182        1.3153404225        2.0590083360
Ta            4.0405013712        1.3095297443        8.0961083501
Ta            4.0392817184        7.3777668193        2.0465186283
Ta            4.0355487205        7.3669940746        8.0875664724
Zr            2.6731435018        5.8683968498        3.5281415906
Zr            1.2439797609        4.3235160385        1.9982676231
Zr            1.2404502354        4.3557729552        8.1532438664
Zr            4.1021136665        4.3234542343        1.9983120793
Zr            4.1057269855        4.3557503067        8.1531920093
H             7.6267526462        6.1538678691        6.1502445216


     kinetic energy (Ekin) =          15.96648616 Ry
     temperature           =       76391.17520314 K 
     Ekin + Etot (const)   =       -2926.97313139 Ry
     Ions kinetic stress =          281.99 (kbar)
                                    618.32         322.23         191.77
                                    322.23         168.01          99.98
                                    191.77          99.98          59.63



     Linear momentum :    0.0000000000    0.0000000000    0.0000000000

     The maximum number of steps has been reached.

     End of molecular dynamics calculation

     diffusion coefficients :
     atom     1   D =       0.00000005 cm^2/s
     atom     2   D =       0.00000002 cm^2/s
     atom     3   D =       0.00000003 cm^2/s
     atom     4   D =       0.00000009 cm^2/s
     atom     5   D =       0.00000010 cm^2/s
     atom     6   D =       0.00000005 cm^2/s
     atom     7   D =       0.00000005 cm^2/s
     atom     8   D =       0.00000003 cm^2/s
     atom     9   D =       0.00002908 cm^2/s
     atom    10   D =       0.00000004 cm^2/s
     atom    11   D =       0.00000005 cm^2/s
     atom    12   D =       0.00000005 cm^2/s
     atom    13   D =       0.00000006 cm^2/s
     atom    14   D =       0.00000005 cm^2/s
     atom    15   D =       0.00000006 cm^2/s
     atom    16   D =       0.00000006 cm^2/s
     atom    17   D =       0.00000007 cm^2/s
     atom    18   D =       0.00000006 cm^2/s
     atom    19   D =       0.00000002 cm^2/s
     atom    20   D =       0.00000006 cm^2/s
     atom    21   D =       0.00000016 cm^2/s
     atom    22   D =       0.00000021 cm^2/s
     atom    23   D =       0.01781832 cm^2/s

     < D > =       0.00077603 cm^2/s

     Writing all to output data dir outdir/pwscf.save/

     init_run     :      9.52s CPU     11.44s WALL (       1 calls)
     electrons    :   2517.88s CPU   2942.83s WALL (      20 calls)
     update_pot   :     19.60s CPU     20.44s WALL (      19 calls)
     forces       :    159.21s CPU    186.86s WALL (      20 calls)
     stress       :    290.41s CPU    319.29s WALL (      20 calls)

     Called by init_run:
     wfcinit      :      7.17s CPU      8.53s WALL (       1 calls)
     potinit      :      0.45s CPU      0.51s WALL (       1 calls)
     hinit0       :      0.92s CPU      1.08s WALL (       1 calls)

     Called by electrons:
     c_bands      :   2067.93s CPU   2428.01s WALL (      98 calls)
     sum_band     :    304.16s CPU    347.26s WALL (      98 calls)
     v_of_rho     :     10.40s CPU     12.21s WALL (     118 calls)
     newd         :    164.98s CPU    188.31s WALL (     118 calls)
     mix_rho      :      0.94s CPU      1.19s WALL (      98 calls)

     Called by c_bands:
     init_us_2    :      3.94s CPU      4.03s WALL (     474 calls)
     init_us_2:cp :      3.93s CPU      4.03s WALL (     474 calls)
     regterg      :   2054.31s CPU   2411.89s WALL (     196 calls)

     Called by *egterg:
     rdiaghg      :     62.91s CPU     78.49s WALL (    1557 calls)
     h_psi        :   1076.59s CPU   1181.96s WALL (    1597 calls)
     s_psi        :    362.67s CPU    363.17s WALL (    1597 calls)
     g_psi        :      0.81s CPU      0.86s WALL (    1399 calls)

     Called by h_psi:
     h_psi:calbec :    526.75s CPU    594.72s WALL (    1597 calls)
     vloc_psi     :    102.51s CPU    138.97s WALL (    1597 calls)
     add_vuspsi   :    446.01s CPU    446.88s WALL (    1597 calls)

     General routines
     calbec       :    812.90s CPU    928.64s WALL (    1993 calls)
     fft          :      8.02s CPU     21.01s WALL (    2469 calls)
     ffts         :      0.22s CPU      0.28s WALL (      98 calls)
     fftw         :    110.38s CPU    150.96s WALL (  104480 calls)

     Parallel routines

     PWSCF        :  50m27.49s CPU  58m36.30s WALL


   This run was terminated on:  23:10:43  14Jun2023            

=------------------------------------------------------------------------------=
   JOB DONE.
=------------------------------------------------------------------------------=
