
     Program PWSCF v.7.2 starts on 11Jun2023 at 11:38:33 

     This program is part of the open-source Quantum ESPRESSO suite
     for quantum simulation of materials; please cite
         "P. Giannozzi et al., J. Phys.:Condens. Matter 21 395502 (2009);
         "P. Giannozzi et al., J. Phys.:Condens. Matter 29 465901 (2017);
         "P. Giannozzi et al., J. Chem. Phys. 152 154105 (2020);
          URL http://www.quantum-espresso.org", 
     in publications or presentations arising from this work. More details at
     http://www.quantum-espresso.org/quote

     Parallel version (MPI), running on    12 processors

     MPI processes distributed on     1 nodes
     75792 MiB available memory on the printing compute node when the environment starts

     Reading input from md_data/md_Hf5Nb2Ta10Zr5H_10steps_100eV_incident45_polar15.in
Warning: card &CELL ignored
Warning: card / ignored

     Current dimensions of program PWSCF are:
     Max number of different atomic species (ntypx) = 10
     Max number of k-points (npk) =  40000
     Max angular momentum in pseudopotentials (lmaxx) =  4

     File outdir/pwscf.md deleted, as requested

     gamma-point specific algorithms are used

     R & G space division:  proc/nbgrp/npool/nimage =      12
     Subspace diagonalization in iterative solution of the eigenvalue problem:
     one sub-group per band group will be used
     custom distributed-memory algorithm (size of sub-group:  2*  2 procs)


     Parallelization info
     --------------------
     sticks:   dense  smooth     PW     G-vecs:    dense   smooth      PW
     Min         723     723    180                64572    64572    8072
     Max         724     724    182                64584    64584    8078
     Sum        8687    8687   2177               774967   774967   96907

     Using Slab Decomposition



     bravais-lattice index     =            0
     lattice parameter (alat)  =      13.8706  a.u.
     unit-cell volume          =    4363.8306 (a.u.)^3
     number of atoms/cell      =           23
     number of atomic types    =            5
     number of electrons       =       277.00
     number of Kohn-Sham states=          167
     kinetic-energy cutoff     =     120.0000  Ry
     charge density cutoff     =     480.0000  Ry
     scf convergence threshold =      1.0E-03
     mixing beta               =       0.7000
     number of iterations used =            8  TF        mixing
     energy convergence thresh.=      0.0E+00
     force convergence thresh. =      0.0E+00
     Exchange-correlation=  SLA  PW   PBX  PBC
                           (   1   4   3   4   0   0   0)
     nstep                     =           10


     celldm(1)=  13.870589  celldm(2)=   0.000000  celldm(3)=   0.000000
     celldm(4)=   0.000000  celldm(5)=   0.000000  celldm(6)=   0.000000

     crystal axes: (cart. coord. in units of alat)
               a(1) = (   1.000000   0.000000   0.000000 )  
               a(2) = (   0.000000   1.182561   0.000000 )  
               a(3) = (   0.000000   0.000000   1.382801 )  

     reciprocal axes: (cart. coord. in units 2 pi/alat)
               b(1) = (  1.000000  0.000000  0.000000 )  
               b(2) = (  0.000000  0.845622  0.000000 )  
               b(3) = (  0.000000  0.000000  0.723170 )  


     PseudoPot. # 1 for Hf read from file:
     q-e/pseudo/hf_pbe_v1.uspp.F.UPF
     MD5 check sum: 8ee9378dfe14276e333edf04c5e4aa26
     Pseudo is Ultrasoft + core correction, Zval = 12.0
     Generated by new atomic code, or converted to UPF format
     Using radial grid of  921 points,  8 beta functions with: 
                l(1) =   0
                l(2) =   0
                l(3) =   0
                l(4) =   1
                l(5) =   1
                l(6) =   2
                l(7) =   2
                l(8) =   3
     Q(r) pseudized with  6 coefficients,  rinner =    1.200   1.200   1.200
                                                       1.200   1.200   1.200
                                                       1.200

     PseudoPot. # 2 for Nb read from file:
     q-e/pseudo/nb_pbe_v1.uspp.F.UPF
     MD5 check sum: 573aab8a2fa660278ed4a62cd769473f
     Pseudo is Ultrasoft + core correction, Zval = 13.0
     Generated by new atomic code, or converted to UPF format
     Using radial grid of  887 points,  6 beta functions with: 
                l(1) =   0
                l(2) =   0
                l(3) =   1
                l(4) =   1
                l(5) =   2
                l(6) =   2
     Q(r) pseudized with  6 coefficients,  rinner =    1.000   1.000   1.000
                                                       1.000   1.000

     PseudoPot. # 3 for Ta read from file:
     q-e/pseudo/ta_pbe_v1.uspp.F.UPF
     MD5 check sum: f8bbe9446314a3b8ea5d9f3e3836c939
     Pseudo is Ultrasoft + core correction, Zval = 13.0
     Generated by new atomic code, or converted to UPF format
     Using radial grid of  921 points,  7 beta functions with: 
                l(1) =   0
                l(2) =   0
                l(3) =   1
                l(4) =   1
                l(5) =   2
                l(6) =   2
                l(7) =   3
     Q(r) pseudized with  6 coefficients,  rinner =    1.300   1.300   1.300
                                                       1.300   1.300   1.300
                                                       1.300

     PseudoPot. # 4 for Zr read from file:
     q-e/pseudo/zr_pbe_v1.uspp.F.UPF
     MD5 check sum: 5db81b1e868ab7776c4564c113de050b
     Pseudo is Ultrasoft + core correction, Zval = 12.0
     Generated by new atomic code, or converted to UPF format
     Using radial grid of  887 points,  6 beta functions with: 
                l(1) =   0
                l(2) =   0
                l(3) =   1
                l(4) =   1
                l(5) =   2
                l(6) =   2
     Q(r) pseudized with  6 coefficients,  rinner =    1.200   1.200   1.200
                                                       1.200   1.200

     PseudoPot. # 5 for H  read from file:
     q-e/pseudo/h_pbe_v1.4.uspp.F.UPF
     MD5 check sum: 761ae9a214b05c3daf00ab9f6b793d6f
     Pseudo is Ultrasoft, Zval =  1.0
     Generated by new atomic code, or converted to UPF format
     Using radial grid of  615 points,  2 beta functions with: 
                l(1) =   0
                l(2) =   0
     Q(r) pseudized with  8 coefficients,  rinner =    0.700

     atomic species   valence    mass     pseudopotential
        Hf            12.00   178.49000     Hf( 1.00)
        Nb            13.00    92.90637     Nb( 1.00)
        Ta            13.00   180.94788     Ta( 1.00)
        Zr            12.00    91.22400     Zr( 1.00)
        H              1.00     2.01400     H ( 1.00)

     Starting magnetic structure 
     atomic species   magnetization
        Hf           0.000
        Nb           0.000
        Ta           0.000
        Zr           0.000
        H            0.000

     No symmetry found



   Cartesian axes

     site n.     atom                  positions (alat units)
         1           Hf  tau(   1) = (   0.3637602   0.3851666   0.8997227  )
         2           Hf  tau(   2) = (   0.1707072   0.1752431   0.6891644  )
         3           Hf  tau(   3) = (   0.1710473   1.0067854   0.6931973  )
         4           Hf  tau(   4) = (   0.5568133   0.1752431   0.6891644  )
         5           Hf  tau(   5) = (   0.5564732   1.0067854   0.6931973  )
         6           Nb  tau(   6) = (   0.3637602   0.3810532   0.4789623  )
         7           Nb  tau(   7) = (   0.3637602   0.8005966   0.9039507  )
         8           Ta  tau(   8) = (   0.1647647   0.5914071   0.6908891  )
         9           Ta  tau(   9) = (   0.5627557   0.5914071   0.6908891  )
        10           Ta  tau(  10) = (   0.1780998   0.1790358   0.2804876  )
        11           Ta  tau(  11) = (   0.1774916   0.1782549   1.1028038  )
        12           Ta  tau(  12) = (   0.1776580   1.0048810   0.2787789  )
        13           Ta  tau(  13) = (   0.1781622   1.0034173   1.1016352  )
        14           Ta  tau(  14) = (   0.5494206   0.1790358   0.2804876  )
        15           Ta  tau(  15) = (   0.5500289   0.1782549   1.1028038  )
        16           Ta  tau(  16) = (   0.5498625   1.0048810   0.2787789  )
        17           Ta  tau(  17) = (   0.5493582   1.0034173   1.1016352  )
        18           Zr  tau(  18) = (   0.3637602   0.7992215   0.4805700  )
        19           Zr  tau(  19) = (   0.1694598   0.5888390   0.2724796  )
        20           Zr  tau(  20) = (   0.1689898   0.5932048   1.1103210  )
        21           Zr  tau(  21) = (   0.5580607   0.5888390   0.2724796  )
        22           Zr  tau(  22) = (   0.5585306   0.5932048   1.1103210  )
        23           H   tau(  23) = (   0.6590918   0.6843342   0.7159663  )

     number of k points=     1  Gaussian smearing, width (Ry)=  0.0220
                       cart. coord. in units 2pi/alat
        k(    1) = (   0.0000000   0.0000000   0.0000000), wk =   1.0000000

     Dense  grid:   387484 G-vectors     FFT dimensions: ( 100, 120, 135)

     Estimated max dynamical RAM per process >     326.54 MB

     Estimated total dynamical RAM >       3.83 GB

     Check: negative core charge=   -0.000002
     Generating pointlists ...
     new r_m :   0.1399 (alat units)  1.9405 (a.u.) for type    1
     new r_m :   0.1397 (alat units)  1.9374 (a.u.) for type    2
     new r_m :   0.0562 (alat units)  0.7792 (a.u.) for type    3
     new r_m :   0.1415 (alat units)  1.9625 (a.u.) for type    4
     new r_m :   0.0562 (alat units)  0.7792 (a.u.) for type    5

     Initial potential from superposition of free atoms

     starting charge     266.9726, renormalised to     277.0000

     negative rho (up, down):  9.202E-01 9.202E-01
     Starting wfcs are  287 randomized atomic wfcs

     total cpu time spent up to now is       23.2 secs

     Self-consistent Calculation

     iteration #  1     ecut=   120.00 Ry     beta= 0.70
     Davidson diagonalization with overlap
     ethr =  1.00E-02,  avg # of iterations =  3.0

     negative rho (up, down):  9.517E-01 9.493E-01

     total cpu time spent up to now is       61.7 secs

     total energy              =   -2933.26547023 Ry
     estimated scf accuracy    <     320.15816202 Ry

     total magnetization       =    -0.01 Bohr mag/cell
     absolute magnetization    =     0.09 Bohr mag/cell

     iteration #  2     ecut=   120.00 Ry     beta= 0.70
     Davidson diagonalization with overlap
     ethr =  1.00E-02,  avg # of iterations =  5.0

     negative rho (up, down):  8.884E-01 8.867E-01

     total cpu time spent up to now is      103.6 secs

     total energy              =   -2941.36640190 Ry
     estimated scf accuracy    <      47.11971603 Ry

     total magnetization       =    -0.01 Bohr mag/cell
     absolute magnetization    =     0.10 Bohr mag/cell

     iteration #  3     ecut=   120.00 Ry     beta= 0.70
     Davidson diagonalization with overlap
     ethr =  1.00E-02,  avg # of iterations =  4.0

     negative rho (up, down):  9.119E-01 9.111E-01

     total cpu time spent up to now is      141.1 secs

     total energy              =   -2941.93541675 Ry
     estimated scf accuracy    <      17.12270885 Ry

     total magnetization       =    -0.01 Bohr mag/cell
     absolute magnetization    =     0.12 Bohr mag/cell

     iteration #  4     ecut=   120.00 Ry     beta= 0.70
     Davidson diagonalization with overlap
     ethr =  6.18E-03,  avg # of iterations =  2.0

     negative rho (up, down):  9.207E-01 9.204E-01

     total cpu time spent up to now is      174.9 secs

     total energy              =   -2942.12879423 Ry
     estimated scf accuracy    <       3.73181903 Ry

     total magnetization       =    -0.02 Bohr mag/cell
     absolute magnetization    =     0.15 Bohr mag/cell

     iteration #  5     ecut=   120.00 Ry     beta= 0.70
     Davidson diagonalization with overlap
     ethr =  1.35E-03,  avg # of iterations =  7.0

     negative rho (up, down):  9.133E-01 9.132E-01

     total cpu time spent up to now is      216.9 secs

     total energy              =   -2942.32913618 Ry
     estimated scf accuracy    <       1.64947000 Ry

     total magnetization       =    -0.00 Bohr mag/cell
     absolute magnetization    =     0.11 Bohr mag/cell

     iteration #  6     ecut=   120.00 Ry     beta= 0.70
     Davidson diagonalization with overlap
     ethr =  5.95E-04,  avg # of iterations =  2.0

     negative rho (up, down):  9.117E-01 9.117E-01

     total cpu time spent up to now is      251.2 secs

     total energy              =   -2942.34462557 Ry
     estimated scf accuracy    <       0.72563977 Ry

     total magnetization       =    -0.01 Bohr mag/cell
     absolute magnetization    =     0.08 Bohr mag/cell

     iteration #  7     ecut=   120.00 Ry     beta= 0.70
     Davidson diagonalization with overlap
     ethr =  2.62E-04,  avg # of iterations =  6.5

     negative rho (up, down):  9.058E-01 9.058E-01

     total cpu time spent up to now is      286.3 secs

     total energy              =   -2942.36661360 Ry
     estimated scf accuracy    <       0.13558922 Ry

     total magnetization       =    -0.01 Bohr mag/cell
     absolute magnetization    =     0.07 Bohr mag/cell

     iteration #  8     ecut=   120.00 Ry     beta= 0.70
     Davidson diagonalization with overlap
     ethr =  4.89E-05,  avg # of iterations = 11.5

     negative rho (up, down):  9.040E-01 9.040E-01

     total cpu time spent up to now is      331.2 secs

     total energy              =   -2942.37084724 Ry
     estimated scf accuracy    <       0.09130990 Ry

     total magnetization       =    -0.01 Bohr mag/cell
     absolute magnetization    =     0.05 Bohr mag/cell

     iteration #  9     ecut=   120.00 Ry     beta= 0.70
     Davidson diagonalization with overlap
     ethr =  3.30E-05,  avg # of iterations =  2.0

     negative rho (up, down):  9.053E-01 9.053E-01

     total cpu time spent up to now is      366.1 secs

     total energy              =   -2942.37715880 Ry
     estimated scf accuracy    <       0.03263691 Ry

     total magnetization       =    -0.01 Bohr mag/cell
     absolute magnetization    =     0.03 Bohr mag/cell

     iteration # 10     ecut=   120.00 Ry     beta= 0.70
     Davidson diagonalization with overlap
     ethr =  1.18E-05,  avg # of iterations =  4.5

     negative rho (up, down):  9.061E-01 9.061E-01

     total cpu time spent up to now is      400.9 secs

     total energy              =   -2942.37909465 Ry
     estimated scf accuracy    <       0.00634419 Ry

     total magnetization       =    -0.01 Bohr mag/cell
     absolute magnetization    =     0.03 Bohr mag/cell

     iteration # 11     ecut=   120.00 Ry     beta= 0.70
     Davidson diagonalization with overlap
     ethr =  2.29E-06,  avg # of iterations =  9.0

     negative rho (up, down):  9.067E-01 9.067E-01

     total cpu time spent up to now is      439.8 secs

     total energy              =   -2942.37957869 Ry
     estimated scf accuracy    <       0.00133695 Ry

     total magnetization       =    -0.01 Bohr mag/cell
     absolute magnetization    =     0.02 Bohr mag/cell

     iteration # 12     ecut=   120.00 Ry     beta= 0.70
     Davidson diagonalization with overlap
     ethr =  4.83E-07,  avg # of iterations =  5.0

     negative rho (up, down):  9.065E-01 9.065E-01

     Magnetic moment per site  (integrated on atomic sphere of radius R)
     atom   1 (R=0.140)  charge=  9.3346    0.0001
     atom   2 (R=0.140)  charge=  8.9542    0.0001
     atom   3 (R=0.140)  charge=  8.9547   -0.0002
     atom   4 (R=0.140)  charge=  8.9569   -0.0002
     atom   5 (R=0.140)  charge=  8.9459   -0.0001
     atom   6 (R=0.140)  charge= 10.3482   -0.0000
     atom   7 (R=0.140)  charge= 10.3494   -0.0000
     atom   8 (R=0.056)  charge=  1.3418   -0.0000
     atom   9 (R=0.056)  charge=  1.3580    0.0000
     atom  10 (R=0.056)  charge=  1.3389   -0.0000
     atom  11 (R=0.056)  charge=  1.3384   -0.0000
     atom  12 (R=0.056)  charge=  1.3383    0.0000
     atom  13 (R=0.056)  charge=  1.3385   -0.0000
     atom  14 (R=0.056)  charge=  1.3397    0.0000
     atom  15 (R=0.056)  charge=  1.3399    0.0000
     atom  16 (R=0.056)  charge=  1.3382    0.0000
     atom  17 (R=0.056)  charge=  1.3394   -0.0000
     atom  18 (R=0.141)  charge=  9.4569   -0.0001
     atom  19 (R=0.141)  charge=  8.9976   -0.0006
     atom  20 (R=0.141)  charge=  8.9946   -0.0007
     atom  21 (R=0.141)  charge=  8.9969   -0.0009
     atom  22 (R=0.141)  charge=  8.9983   -0.0005
     atom  23 (R=0.056)  charge=  0.7678    0.0000

     total cpu time spent up to now is      478.4 secs

     End of self-consistent calculation

 ------ SPIN UP ------------


          k = 0.0000 0.0000 0.0000 ( 48454 PWs)   bands (ev):

   -57.8420 -57.8378 -57.7973 -57.7903 -57.7665 -57.7603 -57.7228 -57.7139
   -57.6138 -57.4134 -51.4154 -51.3673 -51.2872 -51.2323 -49.7081 -43.2523
   -43.2372 -38.6309 -38.6166 -38.5331 -38.5292 -36.8132 -25.9547 -24.8577
   -24.8492 -24.7687 -24.7663 -24.6550 -24.6468 -24.5419 -24.5199 -24.3891
   -24.3682 -24.3360 -24.3057 -24.3003 -24.2813 -24.2589 -24.2373 -24.2004
   -24.1947 -24.1417 -24.0313 -24.0203 -24.0147 -24.0123 -23.9662 -23.9507
   -23.9288 -23.9167 -23.6597 -23.6187 -21.1999 -20.9892 -20.6739 -20.5935
   -20.3252 -20.1896 -20.1709 -20.0637 -19.9560 -19.8813 -19.8668 -19.6433
   -19.5109 -19.4507 -19.3930 -19.3450 -19.2818 -19.2315 -18.7863 -18.7006
   -18.6402 -17.1894 -16.8760 -16.8588 -16.8199 -16.6228 -16.6102 -16.6089
   -16.5925 -16.5650 -16.5321 -16.3125 -16.2984 -15.1661 -14.9562 -14.8312
     4.0948   5.1156   5.8005   6.1325   6.2500   6.4670   6.5642   6.5962
     6.6082   6.8181   6.9329   6.9907   7.2176   7.3274   7.5361   7.5834
     7.7094   7.7509   7.9383   8.0293   8.0993   8.1600   8.2321   8.2540
     8.3660   8.4709   8.5540   8.6248   8.6614   8.7213   8.7634   8.7675
     8.8483   9.0166   9.0578   9.1430   9.1847   9.2583   9.2906   9.3122
     9.3735   9.4724   9.6452   9.7616   9.8041   9.9586   9.9634  10.1050
    10.1667  10.1800  10.3102  10.3499  10.3947  10.4308  10.5473  10.5961
    10.6883  10.7638  10.9121  10.9227  11.0170  11.0262  11.1427  11.2217
    11.2644  11.3517  11.3958  11.5809  11.6808  11.7598  11.8018  11.8173
    11.9993  12.1228  12.1604  12.1880  12.1938  12.2128  12.2359

 ------ SPIN DOWN ----------


          k = 0.0000 0.0000 0.0000 ( 48454 PWs)   bands (ev):

   -57.8421 -57.8376 -57.7973 -57.7902 -57.7666 -57.7600 -57.7229 -57.7137
   -57.6139 -57.4131 -51.4155 -51.3674 -51.2873 -51.2324 -49.7081 -43.2523
   -43.2372 -38.6317 -38.6171 -38.5336 -38.5299 -36.8133 -25.9545 -24.8579
   -24.8488 -24.7689 -24.7660 -24.6552 -24.6466 -24.5421 -24.5195 -24.3892
   -24.3681 -24.3361 -24.3057 -24.3002 -24.2813 -24.2588 -24.2374 -24.2003
   -24.1946 -24.1420 -24.0315 -24.0205 -24.0145 -24.0120 -23.9664 -23.9505
   -23.9289 -23.9164 -23.6594 -23.6183 -21.2001 -20.9894 -20.6740 -20.5936
   -20.3253 -20.1897 -20.1711 -20.0638 -19.9561 -19.8815 -19.8670 -19.6434
   -19.5110 -19.4508 -19.3931 -19.3449 -19.2819 -19.2315 -18.7864 -18.7007
   -18.6402 -17.1900 -16.8767 -16.8594 -16.8208 -16.6230 -16.6107 -16.6096
   -16.5932 -16.5656 -16.5326 -16.3135 -16.2990 -15.1662 -14.9563 -14.8313
     4.0948   5.1155   5.8006   6.1325   6.2499   6.4670   6.5643   6.5962
     6.6081   6.8180   6.9329   6.9907   7.2174   7.3273   7.5361   7.5834
     7.7090   7.7509   7.9382   8.0292   8.0993   8.1598   8.2319   8.2540
     8.3660   8.4708   8.5536   8.6242   8.6612   8.7212   8.7635   8.7676
     8.8482   9.0166   9.0576   9.1430   9.1846   9.2581   9.2905   9.3121
     9.3732   9.4723   9.6451   9.7615   9.8040   9.9581   9.9631  10.1048
    10.1667  10.1800  10.3087  10.3490  10.3947  10.4309  10.5471  10.5959
    10.6879  10.7634  10.9118  10.9227  11.0165  11.0263  11.1425  11.2218
    11.2642  11.3518  11.3956  11.5808  11.6806  11.7595  11.8016  11.8168
    11.9990  12.1224  12.1604  12.1881  12.1933  12.2121  12.2357

     the Fermi energy is    10.2740 ev

!    total energy              =   -2942.37969284 Ry
     estimated scf accuracy    <       0.00022873 Ry
     smearing contrib. (-TS)   =      -0.09752022 Ry
     internal energy E=F+TS    =   -2942.28217261 Ry

     total magnetization       =    -0.01 Bohr mag/cell
     absolute magnetization    =     0.02 Bohr mag/cell

     convergence has been achieved in  12 iterations

     negative rho (up, down):  9.065E-01 9.065E-01

     Forces acting on atoms (cartesian axes, Ry/au):

     atom    1 type  1   force =     0.00879084   -0.01646425    0.01573223
     atom    2 type  1   force =    -0.13071288   -0.01860717   -0.00203955
     atom    3 type  1   force =    -0.12905475    0.01527466    0.00439976
     atom    4 type  1   force =     0.15000754   -0.02107506   -0.00288332
     atom    5 type  1   force =     0.13080665   -0.00864940    0.00460700
     atom    6 type  2   force =     0.01010682   -0.01335456    0.00141938
     atom    7 type  2   force =    -0.00579418    0.01499496    0.00218387
     atom    8 type  3   force =    -0.14621189    0.00970775    0.00439919
     atom    9 type  3   force =    -1.42886325   -1.53407352   -0.42732557
     atom   10 type  3   force =    -0.03586278   -0.01662353   -0.06366571
     atom   11 type  3   force =    -0.03713131   -0.02804113    0.06015313
     atom   12 type  3   force =    -0.02894434    0.02388255   -0.06008007
     atom   13 type  3   force =    -0.02510989    0.01952447    0.05934105
     atom   14 type  3   force =     0.02580034   -0.02057979   -0.05838104
     atom   15 type  3   force =     0.02755203   -0.02758378    0.05890653
     atom   16 type  3   force =     0.02762224    0.02860053   -0.05613590
     atom   17 type  3   force =     0.02375744    0.02198502    0.05816889
     atom   18 type  4   force =     0.00759720    0.01989991   -0.00977288
     atom   19 type  4   force =    -0.15193716   -0.00539876   -0.12116120
     atom   20 type  4   force =    -0.15344536    0.00492274    0.12090785
     atom   21 type  4   force =     0.14553039   -0.00704023   -0.11922660
     atom   22 type  4   force =     0.14554565    0.00522956    0.12091932
     atom   23 type  5   force =     1.56995065    1.55346903    0.40953365
     The non-local contrib.  to forces
     atom    1 type  1   force =     0.01796046    0.00615896    0.02654821
     atom    2 type  1   force =    -0.24733880   -0.16840046    0.01484630
     atom    3 type  1   force =    -0.24216067    0.15958910   -0.02722551
     atom    4 type  1   force =     0.25004630   -0.17099084    0.01541571
     atom    5 type  1   force =     0.23600633    0.14947382   -0.02849051
     atom    6 type  2   force =    -0.00042333   -0.07027578   -0.06309770
     atom    7 type  2   force =    -0.00666469    0.08871538    0.04590662
     atom    8 type  3   force =    -0.25887889   -0.00015125   -0.00424569
     atom    9 type  3   force =     0.83167070    0.56754206    0.15378910
     atom   10 type  3   force =    -0.24823411   -0.00123863   -0.23338496
     atom   11 type  3   force =    -0.24808537    0.00986512    0.21619042
     atom   12 type  3   force =    -0.22586584   -0.02540632   -0.19349707
     atom   13 type  3   force =    -0.23141722   -0.00938313    0.21647821
     atom   14 type  3   force =     0.22886584    0.00638637   -0.22149925
     atom   15 type  3   force =     0.23540426    0.01299841    0.21795484
     atom   16 type  3   force =     0.22374591   -0.02612452   -0.18921351
     atom   17 type  3   force =     0.23387426   -0.01146178    0.21937971
     atom   18 type  4   force =    -0.00588349    0.08492916   -0.04160038
     atom   19 type  4   force =     0.07881881    0.00433256    0.05525715
     atom   20 type  4   force =     0.07616388    0.00241933   -0.05079775
     atom   21 type  4   force =    -0.07083736    0.00414840    0.04802720
     atom   22 type  4   force =    -0.06469776    0.00370584   -0.03493146
     atom   23 type  5   force =    -0.13977267   -0.13622970   -0.04125253
     The ionic contribution  to forces
     atom    1 type  1   force =    -0.24574133   -4.92689215   15.01108654
     atom    2 type  1   force =   -27.82993626   -6.25284746    0.76480362
     atom    3 type  1   force =   -27.83692085    6.37871217   -0.73845705
     atom    4 type  1   force =    27.74872943   -6.37329305    0.75364364
     atom    5 type  1   force =    27.53350290    7.07107522   -0.78862566
     atom    6 type  2   force =    -0.21252798   -3.84601978  -15.01421567
     atom    7 type  2   force =    -0.60644776    3.88788892   15.27387314
     atom    8 type  3   force =   -38.67456717   -0.07014276   -0.11123481
     atom    9 type  3   force =    33.55667805   -4.87097614   -1.40734342
     atom   10 type  3   force =   -24.85000392   -2.12758595  -24.61732812
     atom   11 type  3   force =   -23.92371673   -0.86761334   23.62533297
     atom   12 type  3   force =   -24.04957030    0.86499334  -23.70254423
     atom   13 type  3   force =   -24.83646253    2.28992761   24.66175223
     atom   14 type  3   force =    24.81517668   -2.15431996  -24.66377891
     atom   15 type  3   force =    23.88234075   -0.90321341   23.68013759
     atom   16 type  3   force =    23.98545903    0.94619453  -23.81742304
     atom   17 type  3   force =    24.75053077    2.40891338   24.81273687
     atom   18 type  4   force =    -0.43537021    4.58807943  -15.10835084
     atom   19 type  4   force =   -25.11038439    0.92775521  -27.13529724
     atom   20 type  4   force =   -25.06905049   -1.02350362   27.14559801
     atom   21 type  4   force =    25.01164506    0.87256206  -27.38596200
     atom   22 type  4   force =    24.92501332   -1.10864574   27.51214553
     atom   23 type  5   force =     7.47162392    4.28895146    1.24945083
     The local contribution  to forces
     atom    1 type  1   force =     0.23340555    4.90657054  -15.01478683
     atom    2 type  1   force =    27.95705821    6.40602829   -0.78120548
     atom    3 type  1   force =    27.96145809   -6.52800438    0.77453537
     atom    4 type  1   force =   -27.86013587    6.52539209   -0.77216835
     atom    5 type  1   force =   -27.64391459   -7.23750360    0.82627062
     atom    6 type  2   force =     0.22096422    3.91182569   15.06901814
     atom    7 type  2   force =     0.60714566   -3.96570977  -15.30748256
     atom    8 type  3   force =    38.81266527    0.08146545    0.11771125
     atom    9 type  3   force =   -35.86085111    2.74989342    0.81729341
     atom   10 type  3   force =    25.08833134    2.11388623   24.79846774
     atom   11 type  3   force =    24.16174396    0.82340871  -23.79344408
     atom   12 type  3   force =    24.27228024   -0.81671495   23.84078698
     atom   13 type  3   force =    25.06881149   -2.26170730  -24.82515383
     atom   14 type  3   force =   -25.04201272    2.12787350   24.83732665
     atom   15 type  3   force =   -24.11577343    0.85560615  -23.85034158
     atom   16 type  3   force =   -24.20560655   -0.89181252   23.95486005
     atom   17 type  3   force =   -24.98512771   -2.37807095  -24.98068860
     atom   18 type  4   force =     0.44823891   -4.65997522   15.13311969
     atom   19 type  4   force =    24.89283368   -0.93619755   26.95962140
     atom   20 type  4   force =    24.85274064    1.03120192  -26.97312214
     atom   21 type  4   force =   -24.80760599   -0.88263591   27.21756628
     atom   22 type  4   force =   -24.72719442    1.11571242  -27.35289382
     atom   23 type  5   force =    -5.76128197   -2.59927178   -0.79850413
     The core correction contribution to forces
     atom    1 type  1   force =     0.00169020    0.00493622   -0.00239777
     atom    2 type  1   force =    -0.01130693   -0.00182905    0.00096204
     atom    3 type  1   force =    -0.01146637    0.00223609   -0.00186887
     atom    4 type  1   force =     0.01198233   -0.00257090    0.00099722
     atom    5 type  1   force =     0.00676248    0.00523643   -0.00212571
     atom    6 type  2   force =     0.00075247    0.00419265    0.00346665
     atom    7 type  2   force =     0.00041528   -0.00443149   -0.00156319
     atom    8 type  3   force =    -0.03059656    0.00065798    0.00042726
     atom    9 type  3   force =     0.04829420    0.02327294    0.00717158
     atom   10 type  3   force =    -0.02668145    0.00516628   -0.01747056
     atom   11 type  3   force =    -0.02791594    0.00705326    0.01713220
     atom   12 type  3   force =    -0.02514778   -0.00745774   -0.01476851
     atom   13 type  3   force =    -0.02523628   -0.00579262    0.01572252
     atom   14 type  3   force =     0.02547108    0.00555391   -0.01737736
     atom   15 type  3   force =     0.02666507    0.00769027    0.01773415
     atom   16 type  3   force =     0.02452242   -0.00710899   -0.01394561
     atom   17 type  3   force =     0.02446022   -0.00456404    0.01553878
     atom   18 type  4   force =     0.00052719   -0.00482931    0.00195753
     atom   19 type  4   force =    -0.01055102    0.00034195   -0.00859631
     atom   20 type  4   force =    -0.01045720   -0.00049303    0.00845687
     atom   21 type  4   force =     0.01003713    0.00029058   -0.00804589
     atom   22 type  4   force =     0.00977433   -0.00068252    0.00735674
     atom   23 type  5   force =     0.00000000    0.00000000    0.00000000
     The Hubbard contrib.    to forces
     atom    1 type  1   force =     0.00000000    0.00000000    0.00000000
     atom    2 type  1   force =     0.00000000    0.00000000    0.00000000
     atom    3 type  1   force =     0.00000000    0.00000000    0.00000000
     atom    4 type  1   force =     0.00000000    0.00000000    0.00000000
     atom    5 type  1   force =     0.00000000    0.00000000    0.00000000
     atom    6 type  2   force =     0.00000000    0.00000000    0.00000000
     atom    7 type  2   force =     0.00000000    0.00000000    0.00000000
     atom    8 type  3   force =     0.00000000    0.00000000    0.00000000
     atom    9 type  3   force =     0.00000000    0.00000000    0.00000000
     atom   10 type  3   force =     0.00000000    0.00000000    0.00000000
     atom   11 type  3   force =     0.00000000    0.00000000    0.00000000
     atom   12 type  3   force =     0.00000000    0.00000000    0.00000000
     atom   13 type  3   force =     0.00000000    0.00000000    0.00000000
     atom   14 type  3   force =     0.00000000    0.00000000    0.00000000
     atom   15 type  3   force =     0.00000000    0.00000000    0.00000000
     atom   16 type  3   force =     0.00000000    0.00000000    0.00000000
     atom   17 type  3   force =     0.00000000    0.00000000    0.00000000
     atom   18 type  4   force =     0.00000000    0.00000000    0.00000000
     atom   19 type  4   force =     0.00000000    0.00000000    0.00000000
     atom   20 type  4   force =     0.00000000    0.00000000    0.00000000
     atom   21 type  4   force =     0.00000000    0.00000000    0.00000000
     atom   22 type  4   force =     0.00000000    0.00000000    0.00000000
     atom   23 type  5   force =     0.00000000    0.00000000    0.00000000
     The SCF correction term to forces
     atom    1 type  1   force =     0.00000000   -0.00000000   -0.00000000
     atom    2 type  1   force =     0.00000000   -0.00000000   -0.00000000
     atom    3 type  1   force =     0.00000000    0.00000000   -0.00000000
     atom    4 type  1   force =    -0.00000000    0.00000000   -0.00000000
     atom    5 type  1   force =    -0.00000000    0.00000000   -0.00000000
     atom    6 type  2   force =     0.00000000   -0.00000000    0.00000000
     atom    7 type  2   force =    -0.00000000    0.00000000   -0.00000000
     atom    8 type  3   force =     0.00000000   -0.00000000    0.00000000
     atom    9 type  3   force =    -0.00000000   -0.00000000    0.00000000
     atom   10 type  3   force =     0.00074080   -0.00685479    0.00616055
     atom   11 type  3   force =     0.00085822   -0.00075820   -0.00494802
     atom   12 type  3   force =    -0.00062521    0.00846489    0.01005313
     atom   13 type  3   force =    -0.00078989    0.00647657   -0.00934772
     atom   14 type  3   force =    -0.00168509   -0.00607694    0.00705819
     atom   15 type  3   force =    -0.00106918   -0.00066853   -0.00646811
     atom   16 type  3   force =    -0.00048313    0.00744869    0.00969657
     atom   17 type  3   force =     0.00003534    0.00716509   -0.00868750
     atom   18 type  4   force =     0.00010024    0.01169253    0.00521147
     atom   19 type  4   force =    -0.00263879   -0.00163426    0.00796417
     atom   20 type  4   force =    -0.00282674   -0.00470518   -0.00911677
     atom   21 type  4   force =     0.00230700   -0.00140870    0.00929818
     atom   22 type  4   force =     0.00266562   -0.00486375   -0.01064732
     atom   23 type  5   force =    -0.00060318    0.00001573   -0.00005015

     Total force =     2.287605     Total SCF correction =     0.037581

     Molecular Dynamics Calculation

     Starting temperature  =   300.00 K

     temperature is set once at start

     mass Hf               =   178.49
     mass Nb               =    92.91
     mass Ta               =   180.95
     mass Zr               =    91.22
     mass H                =     2.01
     Time step             =     4.20 a.u.,  0.2032 femto-seconds

     Entering Dynamics:    iteration =     1
                           time      =   0.0002 pico-seconds


ATOMIC_POSITIONS (angstrom)
Hf            2.6699999570        2.8271230292        6.6039642186    0   0   0
Hf            1.2529906802        1.2862841814        5.0584662261    0   0   0
Hf            1.2554868986        7.3898042948        5.0880677674    0   0   0
Hf            4.0870092338        1.2862841814        5.0584662261    0   0   0
Hf            4.0845130154        7.3898042948        5.0880677674    0   0   0
Nb            2.6699999570        2.7969306055        3.5155832167    0   0   0
Nb            2.6699999570        5.8763786763        6.6349979432    0   0   0
Ta            1.2093730560        4.3409278516        5.0711258323    0   0   0
Ta            4.1306268580        4.3409278516        5.0711258323    0   0   0
Ta            1.3072516692        1.3141221190        2.0587773084
Ta            1.3027872634        1.3083903424        8.0945809047
Ta            1.3040088030        7.3758268000        2.0462354795
Ta            1.3077100878        7.3650835009        8.0860039002
Ta            4.0327479600        1.3141220070        2.0587774579
Ta            4.0372123795        1.3083903554        8.0945808695
Ta            4.0359910736        7.3758269335        2.0462355912
Ta            4.0322897879        7.3650835706        8.0860038670
Zr            2.6700003835        5.8662869605        3.5273833818
Zr            1.2438260901        4.3220776614        1.9999931987
Zr            1.2403767991        4.3541235608        8.1497623364
Zr            4.0961734643        4.3220775693        1.9999933073
Zr            4.0996226714        4.3541235781        8.1497623371
H             4.7714041139        5.0948834750        5.2744364197


     kinetic energy (Ekin) =           1.83755714 Ry
     temperature           =       13815.58692302 K 
     Ekin + Etot (const)   =       -2940.54213570 Ry

     File outdir/pwscf.msd.dat deleted, as requested

     Writing config-only to output data dir outdir/pwscf.save/
     NEW-OLD atomic charge density approx. for the potential

     Check: negative core charge=   -0.000002

     negative rho (up, down):  9.065E-01 9.065E-01
     Generating pointlists ...
     new r_m :   0.1350 (alat units)  1.8730 (a.u.) for type    1

     total cpu time spent up to now is      499.0 secs

     Self-consistent Calculation

     iteration #  1     ecut=   120.00 Ry     beta= 0.70
     Davidson diagonalization with overlap
     ethr =  1.00E-06,  avg # of iterations =  8.5

     negative rho (up, down):  9.067E-01 9.067E-01

     total cpu time spent up to now is      564.2 secs

     total energy              =   -2942.42521017 Ry
     estimated scf accuracy    <       0.02448424 Ry

     total magnetization       =    -0.01 Bohr mag/cell
     absolute magnetization    =     0.01 Bohr mag/cell

     iteration #  2     ecut=   120.00 Ry     beta= 0.70
     Davidson diagonalization with overlap
     ethr =  8.84E-06,  avg # of iterations =  2.0

     negative rho (up, down):  9.066E-01 9.066E-01

     total cpu time spent up to now is      598.9 secs

     total energy              =   -2942.42651316 Ry
     estimated scf accuracy    <       0.00395529 Ry

     total magnetization       =    -0.01 Bohr mag/cell
     absolute magnetization    =     0.01 Bohr mag/cell

     iteration #  3     ecut=   120.00 Ry     beta= 0.70
     Davidson diagonalization with overlap
     ethr =  1.43E-06,  avg # of iterations =  2.0

     negative rho (up, down):  9.066E-01 9.066E-01

     Magnetic moment per site  (integrated on atomic sphere of radius R)
     atom   1 (R=0.135)  charge=  9.0555   -0.0000
     atom   2 (R=0.135)  charge=  8.7262    0.0000
     atom   3 (R=0.135)  charge=  8.7274   -0.0001
     atom   4 (R=0.135)  charge=  8.7304   -0.0001
     atom   5 (R=0.135)  charge=  8.7166   -0.0000
     atom   6 (R=0.140)  charge= 10.3481   -0.0000
     atom   7 (R=0.140)  charge= 10.3502   -0.0000
     atom   8 (R=0.056)  charge=  1.3414   -0.0000
     atom   9 (R=0.056)  charge=  1.3577   -0.0000
     atom  10 (R=0.056)  charge=  1.3392   -0.0000
     atom  11 (R=0.056)  charge=  1.3383   -0.0000
     atom  12 (R=0.056)  charge=  1.3388   -0.0000
     atom  13 (R=0.056)  charge=  1.3385   -0.0000
     atom  14 (R=0.056)  charge=  1.3399    0.0000
     atom  15 (R=0.056)  charge=  1.3399    0.0000
     atom  16 (R=0.056)  charge=  1.3385    0.0000
     atom  17 (R=0.056)  charge=  1.3394   -0.0000
     atom  18 (R=0.141)  charge=  9.4561   -0.0000
     atom  19 (R=0.141)  charge=  8.9946   -0.0005
     atom  20 (R=0.141)  charge=  8.9894   -0.0004
     atom  21 (R=0.141)  charge=  8.9941   -0.0005
     atom  22 (R=0.141)  charge=  8.9929   -0.0002
     atom  23 (R=0.056)  charge=  0.7532   -0.0000

     total cpu time spent up to now is      634.1 secs

     End of self-consistent calculation

 ------ SPIN UP ------------


          k = 0.0000 0.0000 0.0000 ( 48454 PWs)   bands (ev):

   -57.8504 -57.8475 -57.8040 -57.8022 -57.7762 -57.7686 -57.7310 -57.7256
   -57.5926 -57.3878 -51.4068 -51.3578 -51.2773 -51.2139 -49.7048 -43.2575
   -43.2432 -38.6361 -38.6181 -38.5348 -38.5338 -36.8111 -25.8639 -24.8646
   -24.8625 -24.7818 -24.7746 -24.6601 -24.6569 -24.5446 -24.5355 -24.3904
   -24.3781 -24.3283 -24.3154 -24.3067 -24.2832 -24.2686 -24.2357 -24.2142
   -24.1975 -24.1254 -24.0363 -24.0274 -24.0265 -24.0241 -23.9715 -23.9662
   -23.9328 -23.9316 -23.6650 -23.6296 -21.1928 -20.9803 -20.6697 -20.5880
   -20.3176 -20.1860 -20.1651 -20.0574 -19.9483 -19.8760 -19.8590 -19.6353
   -19.5145 -19.4553 -19.3943 -19.3470 -19.2804 -19.2302 -18.7819 -18.6972
   -18.6374 -17.1918 -16.8772 -16.8623 -16.8236 -16.6259 -16.6151 -16.6131
   -16.5964 -16.5661 -16.5314 -16.3165 -16.2991 -15.1662 -14.9548 -14.8297
     4.0471   5.0602   5.7932   6.1291   6.2461   6.4659   6.5540   6.5937
     6.6037   6.8074   6.9287   7.0041   7.2150   7.3267   7.5401   7.5793
     7.7169   7.7563   7.9366   8.0236   8.0989   8.1523   8.2280   8.2514
     8.3649   8.4684   8.5544   8.6172   8.6606   8.7028   8.7434   8.7842
     8.8433   9.0114   9.0459   9.1336   9.1812   9.2542   9.2975   9.3062
     9.3707   9.4746   9.6569   9.7510   9.8007   9.9434   9.9640  10.1113
    10.1622  10.1754  10.3052  10.3517  10.3904  10.4240  10.5426  10.5922
    10.6860  10.7613  10.9112  10.9230  11.0163  11.0299  11.1397  11.2162
    11.2628  11.3596  11.3972  11.5768  11.6837  11.7664  11.7995  11.8152
    11.9978  12.1034  12.1503  12.1840  12.1869  12.2074  12.2348

 ------ SPIN DOWN ----------


          k = 0.0000 0.0000 0.0000 ( 48454 PWs)   bands (ev):

   -57.8503 -57.8476 -57.8040 -57.8022 -57.7761 -57.7687 -57.7309 -57.7257
   -57.5927 -57.3878 -51.4069 -51.3578 -51.2773 -51.2139 -49.7048 -43.2575
   -43.2432 -38.6366 -38.6185 -38.5352 -38.5342 -36.8111 -25.8639 -24.8646
   -24.8625 -24.7816 -24.7747 -24.6602 -24.6568 -24.5447 -24.5354 -24.3904
   -24.3781 -24.3284 -24.3154 -24.3068 -24.2832 -24.2687 -24.2358 -24.2141
   -24.1975 -24.1255 -24.0364 -24.0273 -24.0263 -24.0242 -23.9716 -23.9661
   -23.9327 -23.9317 -23.6649 -23.6295 -21.1929 -20.9804 -20.6697 -20.5880
   -20.3176 -20.1860 -20.1652 -20.0574 -19.9483 -19.8760 -19.8591 -19.6354
   -19.5145 -19.4553 -19.3944 -19.3470 -19.2804 -19.2302 -18.7820 -18.6972
   -18.6374 -17.1923 -16.8777 -16.8627 -16.8243 -16.6261 -16.6155 -16.6134
   -16.5968 -16.5665 -16.5317 -16.3172 -16.2995 -15.1663 -14.9548 -14.8298
     4.0471   5.0602   5.7932   6.1290   6.2460   6.4658   6.5540   6.5937
     6.6036   6.8074   6.9287   7.0041   7.2149   7.3266   7.5400   7.5792
     7.7166   7.7563   7.9365   8.0235   8.0989   8.1521   8.2278   8.2514
     8.3649   8.4682   8.5540   8.6168   8.6605   8.7027   8.7434   8.7841
     8.8432   9.0113   9.0458   9.1336   9.1811   9.2540   9.2974   9.3062
     9.3705   9.4745   9.6568   9.7509   9.8006   9.9431   9.9638  10.1112
    10.1621  10.1753  10.3040  10.3510  10.3903  10.4240  10.5425  10.5920
    10.6857  10.7611  10.9110  10.9230  11.0161  11.0298  11.1396  11.2162
    11.2626  11.3596  11.3971  11.5767  11.6836  11.7661  11.7993  11.8149
    11.9976  12.1033  12.1502  12.1839  12.1868  12.2070  12.2347

     the Fermi energy is    10.2709 ev

!    total energy              =   -2942.42637330 Ry
     estimated scf accuracy    <       0.00076296 Ry
     smearing contrib. (-TS)   =      -0.09762604 Ry
     internal energy E=F+TS    =   -2942.32874726 Ry

     total magnetization       =    -0.00 Bohr mag/cell
     absolute magnetization    =     0.01 Bohr mag/cell

     convergence has been achieved in   3 iterations

     negative rho (up, down):  9.066E-01 9.066E-01

     Forces acting on atoms (cartesian axes, Ry/au):

     atom    1 type  1   force =     0.00915237   -0.02539196    0.01121654
     atom    2 type  1   force =    -0.13039745   -0.02486517   -0.00620797
     atom    3 type  1   force =    -0.12939855    0.02279897   -0.00172158
     atom    4 type  1   force =     0.15383427   -0.02543335   -0.00638018
     atom    5 type  1   force =     0.12770105   -0.00816946   -0.00125039
     atom    6 type  2   force =     0.01102873   -0.01472972    0.00374656
     atom    7 type  2   force =    -0.00825623    0.01532149    0.00328110
     atom    8 type  3   force =    -0.14259051    0.00744985    0.00453292
     atom    9 type  3   force =    -1.21367395   -1.57675869   -0.44501292
     atom   10 type  3   force =    -0.03680217   -0.02213074   -0.06072729
     atom   11 type  3   force =    -0.03794134   -0.02984522    0.05988071
     atom   12 type  3   force =    -0.02724829    0.03057584   -0.05466092
     atom   13 type  3   force =    -0.02365787    0.02471763    0.05867153
     atom   14 type  3   force =     0.02597644   -0.02625896   -0.05532315
     atom   15 type  3   force =     0.02783167   -0.03022890    0.05947645
     atom   16 type  3   force =     0.02632472    0.03447173   -0.05091520
     atom   17 type  3   force =     0.02415317    0.02647450    0.05721477
     atom   18 type  4   force =     0.00735969    0.02485533   -0.00973009
     atom   19 type  4   force =    -0.15222226   -0.00703911   -0.11606853
     atom   20 type  4   force =    -0.15376579    0.00272836    0.11869131
     atom   21 type  4   force =     0.14651275   -0.00777802   -0.11325076
     atom   22 type  4   force =     0.14586492    0.00276688    0.11834300
     atom   23 type  5   force =     1.35021462    1.60646872    0.42619410
     The non-local contrib.  to forces
     atom    1 type  1   force =     0.01818422    0.00008228    0.02428165
     atom    2 type  1   force =    -0.24867679   -0.17128404    0.01227416
     atom    3 type  1   force =    -0.24430067    0.16322321   -0.03044196
     atom    4 type  1   force =     0.25223371   -0.17087703    0.01309192
     atom    5 type  1   force =     0.23451312    0.14496552   -0.03069404
     atom    6 type  2   force =    -0.00172279   -0.06805912   -0.05957010
     atom    7 type  2   force =    -0.00289221    0.08916351    0.04945131
     atom    8 type  3   force =    -0.25902226   -0.00099974   -0.00464054
     atom    9 type  3   force =     0.73210517    0.61795068    0.16448766
     atom   10 type  3   force =    -0.24832952   -0.00388908   -0.23103312
     atom   11 type  3   force =    -0.24908951    0.01071133    0.21431547
     atom   12 type  3   force =    -0.22518687   -0.02178250   -0.19092114
     atom   13 type  3   force =    -0.23121060   -0.00735296    0.21525746
     atom   14 type  3   force =     0.23016939    0.00222345   -0.21951117
     atom   15 type  3   force =     0.23621030    0.01157559    0.21794428
     atom   16 type  3   force =     0.22289295   -0.02248885   -0.18525444
     atom   17 type  3   force =     0.23392127   -0.00913857    0.21726371
     atom   18 type  4   force =    -0.00381010    0.08844658   -0.04166147
     atom   19 type  4   force =     0.07725827    0.00331657    0.05915149
     atom   20 type  4   force =     0.07460751   -0.00002556   -0.05363991
     atom   21 type  4   force =    -0.07062201    0.00311509    0.05236597
     atom   22 type  4   force =    -0.06355501    0.00204322   -0.03795229
     atom   23 type  5   force =    -0.12169499   -0.15026709   -0.04519770
     The ionic contribution  to forces
     atom    1 type  1   force =    -0.24205459   -4.93389300   15.00738685
     atom    2 type  1   force =   -27.83533589   -6.24340887    0.76326173
     atom    3 type  1   force =   -27.85255922    6.38341771   -0.74182806
     atom    4 type  1   force =    27.75695914   -6.35004258    0.75147241
     atom    5 type  1   force =    27.52578440    7.15604759   -0.80593818
     atom    6 type  2   force =    -0.20552182   -3.84663112  -15.01248779
     atom    7 type  2   force =    -0.66497904    3.89062372   15.31512890
     atom    8 type  3   force =   -38.71037988   -0.08358038   -0.11545690
     atom    9 type  3   force =    34.17919183   -5.22058641   -1.50133377
     atom   10 type  3   force =   -24.85218657   -2.12278583  -24.61548818
     atom   11 type  3   force =   -23.92646490   -0.86273144   23.62461196
     atom   12 type  3   force =   -24.05398492    0.86539600  -23.70474990
     atom   13 type  3   force =   -24.84258436    2.29253090   24.66672847
     atom   14 type  3   force =    24.81799447   -2.14647996  -24.66071610
     atom   15 type  3   force =    23.88519168   -0.89521690   23.67878641
     atom   16 type  3   force =    23.98793010    0.94880629  -23.82612807
     atom   17 type  3   force =    24.75118164    2.42039620   24.83185493
     atom   18 type  4   force =    -0.45901799    4.58187430  -15.14136515
     atom   19 type  4   force =   -25.11633601    0.92380403  -27.13211731
     atom   20 type  4   force =   -25.07756289   -1.02938185   27.14544475
     atom   21 type  4   force =    25.02116141    0.86442152  -27.37791665
     atom   22 type  4   force =    24.93420208   -1.12612289   27.51934853
     atom   23 type  5   force =     6.97937133    4.53354297    1.33150112
     The local contribution  to forces
     atom    1 type  1   force =     0.23323219    4.89070252  -15.02955071
     atom    2 type  1   force =    27.96241591    6.37864959   -0.79948127
     atom    3 type  1   force =    27.97591802   -6.51080959    0.75351278
     atom    4 type  1   force =   -27.86531946    6.48639732   -0.78647784
     atom    5 type  1   force =   -27.63458788   -7.30634758    0.82006507
     atom    6 type  2   force =     0.21846175    3.87194610   15.06083085
     atom    7 type  2   force =     0.66231089   -3.94726992  -15.37935690
     atom    8 type  3   force =    38.86150579    0.08828420    0.10882291
     atom    9 type  3   force =   -36.18918642    3.01004473    0.87099923
     atom   10 type  3   force =    25.09199694    2.06931101   24.81111746
     atom   11 type  3   force =    24.16192442    0.79935090  -23.79630798
     atom   12 type  3   force =    24.27983230   -0.77360703   23.86910869
     atom   13 type  3   force =    25.07084784   -2.23033029  -24.84457904
     atom   14 type  3   force =   -25.05292971    2.08590589   24.85037816
     atom   15 type  3   force =   -24.11734771    0.83104692  -23.85712863
     atom   16 type  3   force =   -24.21486649   -0.85547182   23.98677998
     atom   17 type  3   force =   -24.98220063   -2.35496092  -25.01311082
     atom   18 type  4   force =     0.47182874   -4.61756275   15.16150050
     atom   19 type  4   force =    24.89460787   -0.93773680   26.97734368
     atom   20 type  4   force =    24.85353260    1.02606024  -26.98793072
     atom   21 type  4   force =   -24.81222166   -0.87893375   27.23540891
     atom   22 type  4   force =   -24.72938896    1.11972088  -27.37981419
     atom   23 type  5   force =    -5.51160429   -2.77316208   -0.86183290
     The core correction contribution to forces
     atom    1 type  1   force =     0.00171504    0.00471588   -0.00192247
     atom    2 type  1   force =    -0.01137926   -0.00189584    0.00108470
     atom    3 type  1   force =    -0.01148624    0.00263131   -0.00187150
     atom    4 type  1   force =     0.01244419   -0.00245380    0.00084812
     atom    5 type  1   force =     0.00572953    0.00593277   -0.00211109
     atom    6 type  2   force =     0.00082060    0.00401101    0.00333404
     atom    7 type  2   force =     0.00022796   -0.00439352   -0.00166480
     atom    8 type  3   force =    -0.03048422    0.00055529    0.00037141
     atom    9 type  3   force =     0.04189620    0.02522461    0.00743833
     atom   10 type  3   force =    -0.02685674    0.00543018   -0.01735798
     atom   11 type  3   force =    -0.02801197    0.00733779    0.01683792
     atom   12 type  3   force =    -0.02507500   -0.00744695   -0.01472784
     atom   13 type  3   force =    -0.02500741   -0.00609101    0.01569986
     atom   14 type  3   force =     0.02553277    0.00556620   -0.01736792
     atom   15 type  3   force =     0.02656430    0.00781692    0.01781873
     atom   16 type  3   force =     0.02459389   -0.00711195   -0.01377404
     atom   17 type  3   force =     0.02458290   -0.00470465    0.01547412
     atom   18 type  4   force =     0.00040501   -0.00477313    0.00190565
     atom   19 type  4   force =    -0.01049123    0.00037912   -0.00867206
     atom   20 type  4   force =    -0.01041957   -0.00044144    0.00850279
     atom   21 type  4   force =     0.01005317    0.00033533   -0.00811512
     atom   22 type  4   force =     0.00975729   -0.00066214    0.00737808
     atom   23 type  5   force =     0.00000000    0.00000000    0.00000000
     The Hubbard contrib.    to forces
     atom    1 type  1   force =     0.00000000    0.00000000    0.00000000
     atom    2 type  1   force =     0.00000000    0.00000000    0.00000000
     atom    3 type  1   force =     0.00000000    0.00000000    0.00000000
     atom    4 type  1   force =     0.00000000    0.00000000    0.00000000
     atom    5 type  1   force =     0.00000000    0.00000000    0.00000000
     atom    6 type  2   force =     0.00000000    0.00000000    0.00000000
     atom    7 type  2   force =     0.00000000    0.00000000    0.00000000
     atom    8 type  3   force =     0.00000000    0.00000000    0.00000000
     atom    9 type  3   force =     0.00000000    0.00000000    0.00000000
     atom   10 type  3   force =     0.00000000    0.00000000    0.00000000
     atom   11 type  3   force =     0.00000000    0.00000000    0.00000000
     atom   12 type  3   force =     0.00000000    0.00000000    0.00000000
     atom   13 type  3   force =     0.00000000    0.00000000    0.00000000
     atom   14 type  3   force =     0.00000000    0.00000000    0.00000000
     atom   15 type  3   force =     0.00000000    0.00000000    0.00000000
     atom   16 type  3   force =     0.00000000    0.00000000    0.00000000
     atom   17 type  3   force =     0.00000000    0.00000000    0.00000000
     atom   18 type  4   force =     0.00000000    0.00000000    0.00000000
     atom   19 type  4   force =     0.00000000    0.00000000    0.00000000
     atom   20 type  4   force =     0.00000000    0.00000000    0.00000000
     atom   21 type  4   force =     0.00000000    0.00000000    0.00000000
     atom   22 type  4   force =     0.00000000    0.00000000    0.00000000
     atom   23 type  5   force =     0.00000000    0.00000000    0.00000000
     The SCF correction term to forces
     atom    1 type  1   force =    -0.00000000    0.00000000    0.00000000
     atom    2 type  1   force =     0.00000000    0.00000000    0.00000000
     atom    3 type  1   force =     0.00000000   -0.00000000    0.00000000
     atom    4 type  1   force =    -0.00000000    0.00000000    0.00000000
     atom    5 type  1   force =    -0.00000000   -0.00000000    0.00000000
     atom    6 type  2   force =    -0.00000000    0.00000000    0.00000000
     atom    7 type  2   force =    -0.00000000   -0.00000000    0.00000000
     atom    8 type  3   force =    -0.00000000    0.00000000    0.00000000
     atom    9 type  3   force =     0.00000000   -0.00000000    0.00000000
     atom   10 type  3   force =    -0.00164829    0.02988316   -0.00907736
     atom   11 type  3   force =     0.00347861    0.01556639   -0.00068856
     atom   12 type  3   force =    -0.00305582   -0.03190350   -0.01448261
     atom   13 type  3   force =     0.00407466   -0.02395882    0.00445289
     atom   14 type  3   force =     0.00498751    0.02660566   -0.00921801
     atom   15 type  3   force =    -0.00300891    0.01462875    0.00094377
     atom   16 type  3   force =     0.00555227   -0.02918175   -0.01365051
     atom   17 type  3   force =    -0.00355402   -0.02503737    0.00462094
     atom   18 type  4   force =    -0.00226798   -0.02304948    0.00877850
     atom   19 type  4   force =     0.00251682    0.00327815   -0.01288622
     atom   20 type  4   force =     0.00585454    0.00659717    0.00520252
     atom   21 type  4   force =    -0.00208018    0.00336398   -0.01610576
     atom   22 type  4   force =    -0.00537249    0.00786799    0.00827098
     atom   23 type  5   force =     0.00392056   -0.00356490    0.00061170

     Total force =     2.183967     Total SCF correction =     0.084946

     Entering Dynamics:    iteration =     2
                           time      =   0.0004 pico-seconds


ATOMIC_POSITIONS (angstrom)
Hf            2.6699999570        2.8271230292        6.6039642186    0   0   0
Hf            1.2529906802        1.2862841814        5.0584662261    0   0   0
Hf            1.2554868986        7.3898042948        5.0880677674    0   0   0
Hf            4.0870092338        1.2862841814        5.0584662261    0   0   0
Hf            4.0845130154        7.3898042948        5.0880677674    0   0   0
Nb            2.6699999570        2.7969306055        3.5155832167    0   0   0
Nb            2.6699999570        5.8763786763        6.6349979432    0   0   0
Ta            1.2093730560        4.3409278516        5.0711258323    0   0   0
Ta            4.1306268580        4.3409278516        5.0711258323    0   0   0
Ta            1.3072485713        1.3141203959        2.0587720695
Ta            1.3027840651        1.3083878596        8.0945859963
Ta            1.3040064416        7.3758292064        2.0462306855
Ta            1.3077080381        7.3650854525        8.0860089003
Ta            4.0327501605        1.3141199383        2.0587726744
Ta            4.0372147345        1.3083878638        8.0945859029
Ta            4.0359933453        7.3758296940        2.0462311207
Ta            4.0322918273        7.3650856912        8.0860087515
Zr            2.6700016362        5.8662908680        3.5273817408
Zr            1.2438004713        4.3220765681        1.9999733664
Zr            1.2403509224        4.3541241435        8.1497824489
Zr            4.0961980824        4.3220763009        1.9999739000
Zr            4.0996472177        4.3541241823        8.1497824111
H             4.7119407332        5.1749235521        5.2958476354


     kinetic energy (Ekin) =           1.88378962 Ry
     temperature           =       14163.18363345 K 
     Ekin + Etot (const)   =       -2940.54258368 Ry

     Writing config-only to output data dir outdir/pwscf.save/
     NEW-OLD atomic charge density approx. for the potential

     Check: negative core charge=   -0.000002

     negative rho (up, down):  9.067E-01 9.067E-01
     Generating pointlists ...
     new r_m :   0.1299 (alat units)  1.8018 (a.u.) for type    1

     total cpu time spent up to now is      655.2 secs

     Self-consistent Calculation

     iteration #  1     ecut=   120.00 Ry     beta= 0.70
     Davidson diagonalization with overlap
     ethr =  1.00E-06,  avg # of iterations = 13.5

     negative rho (up, down):  9.062E-01 9.062E-01

     total cpu time spent up to now is      728.1 secs

     total energy              =   -2942.52832146 Ry
     estimated scf accuracy    <       0.17155555 Ry

     total magnetization       =    -0.00 Bohr mag/cell
     absolute magnetization    =     0.01 Bohr mag/cell

     iteration #  2     ecut=   120.00 Ry     beta= 0.70
     Davidson diagonalization with overlap
     ethr =  6.19E-05,  avg # of iterations =  2.0

     negative rho (up, down):  9.065E-01 9.065E-01

     total cpu time spent up to now is      762.3 secs

     total energy              =   -2942.53959267 Ry
     estimated scf accuracy    <       0.06377491 Ry

     total magnetization       =    -0.00 Bohr mag/cell
     absolute magnetization    =     0.01 Bohr mag/cell

     iteration #  3     ecut=   120.00 Ry     beta= 0.70
     Davidson diagonalization with overlap
     ethr =  2.30E-05,  avg # of iterations =  1.0

     negative rho (up, down):  9.066E-01 9.066E-01

     total cpu time spent up to now is      792.2 secs

     total energy              =   -2942.54347312 Ry
     estimated scf accuracy    <       0.00271556 Ry

     total magnetization       =    -0.00 Bohr mag/cell
     absolute magnetization    =     0.01 Bohr mag/cell

     iteration #  4     ecut=   120.00 Ry     beta= 0.70
     Davidson diagonalization with overlap
     ethr =  9.80E-07,  avg # of iterations =  8.0

     negative rho (up, down):  9.067E-01 9.067E-01

     total cpu time spent up to now is      831.6 secs

     total energy              =   -2942.54359384 Ry
     estimated scf accuracy    <       0.00128580 Ry

     total magnetization       =    -0.00 Bohr mag/cell
     absolute magnetization    =     0.01 Bohr mag/cell

     iteration #  5     ecut=   120.00 Ry     beta= 0.70
     Davidson diagonalization with overlap
     ethr =  4.64E-07,  avg # of iterations =  2.0

     negative rho (up, down):  9.067E-01 9.067E-01

     Magnetic moment per site  (integrated on atomic sphere of radius R)
     atom   1 (R=0.130)  charge=  8.7515   -0.0000
     atom   2 (R=0.130)  charge=  8.4715   -0.0000
     atom   3 (R=0.130)  charge=  8.4729   -0.0000
     atom   4 (R=0.130)  charge=  8.4768   -0.0000
     atom   5 (R=0.130)  charge=  8.4634   -0.0000
     atom   6 (R=0.140)  charge= 10.3488   -0.0000
     atom   7 (R=0.140)  charge= 10.3526   -0.0000
     atom   8 (R=0.056)  charge=  1.3417   -0.0000
     atom   9 (R=0.056)  charge=  1.3565   -0.0000
     atom  10 (R=0.056)  charge=  1.3388   -0.0000
     atom  11 (R=0.056)  charge=  1.3384   -0.0000
     atom  12 (R=0.056)  charge=  1.3382   -0.0000
     atom  13 (R=0.056)  charge=  1.3385   -0.0000
     atom  14 (R=0.056)  charge=  1.3395    0.0000
     atom  15 (R=0.056)  charge=  1.3400    0.0000
     atom  16 (R=0.056)  charge=  1.3380    0.0000
     atom  17 (R=0.056)  charge=  1.3395   -0.0000
     atom  18 (R=0.141)  charge=  9.4576   -0.0000
     atom  19 (R=0.141)  charge=  8.9965   -0.0003
     atom  20 (R=0.141)  charge=  8.9941   -0.0002
     atom  21 (R=0.141)  charge=  8.9955   -0.0003
     atom  22 (R=0.141)  charge=  8.9992   -0.0001
     atom  23 (R=0.056)  charge=  0.7125    0.0000

     total cpu time spent up to now is      865.4 secs

     End of self-consistent calculation

 ------ SPIN UP ------------


          k = 0.0000 0.0000 0.0000 ( 48454 PWs)   bands (ev):

   -57.8503 -57.8329 -57.8029 -57.7865 -57.7674 -57.7580 -57.7243 -57.7124
   -57.5909 -57.2856 -51.4156 -51.3682 -51.2842 -51.2144 -49.7009 -43.2541
   -43.2486 -38.6335 -38.6239 -38.5403 -38.5320 -36.8138 -25.5974 -24.8650
   -24.8473 -24.7760 -24.7654 -24.6615 -24.6403 -24.5406 -24.5189 -24.3876
   -24.3677 -24.3247 -24.3082 -24.2967 -24.2763 -24.2594 -24.2316 -24.2000
   -24.1923 -24.1254 -24.0371 -24.0249 -24.0113 -24.0098 -23.9721 -23.9497
   -23.9296 -23.9160 -23.6489 -23.6189 -21.1960 -20.9838 -20.6728 -20.5924
   -20.3216 -20.1954 -20.1704 -20.0619 -19.9512 -19.8823 -19.8615 -19.6393
   -19.5098 -19.4570 -19.3986 -19.3524 -19.2818 -19.2315 -18.7781 -18.6954
   -18.6335 -17.1906 -16.8824 -16.8612 -16.8227 -16.6320 -16.6198 -16.6130
   -16.5966 -16.5720 -16.5377 -16.3143 -16.3041 -15.1676 -14.9564 -14.8321
     3.9630   4.9823   5.7999   6.1308   6.2509   6.4700   6.5502   6.5971
     6.6086   6.8024   6.9335   7.0296   7.2128   7.3421   7.5480   7.5838
     7.7217   7.7825   7.9433   8.0254   8.1056   8.1537   8.2280   8.2581
     8.3691   8.4715   8.5554   8.6043   8.6613   8.6884   8.7335   8.8016
     8.8444   9.0171   9.0430   9.1350   9.1848   9.2578   9.3100   9.3137
     9.3692   9.4823   9.6672   9.7415   9.8038   9.9298   9.9652  10.1189
    10.1633  10.1817  10.3004  10.3498  10.3934  10.4308  10.5457  10.5917
    10.6854  10.7647  10.9139  10.9236  11.0162  11.0398  11.1430  11.2196
    11.2625  11.3718  11.4027  11.5736  11.6805  11.7689  11.8039  11.8155
    11.9986  12.0860  12.1481  12.1853  12.1899  12.2095  12.2376

 ------ SPIN DOWN ----------


          k = 0.0000 0.0000 0.0000 ( 48454 PWs)   bands (ev):

   -57.8503 -57.8329 -57.8029 -57.7865 -57.7674 -57.7580 -57.7244 -57.7124
   -57.5909 -57.2856 -51.4157 -51.3682 -51.2842 -51.2144 -49.7009 -43.2541
   -43.2486 -38.6338 -38.6241 -38.5404 -38.5322 -36.8138 -25.5974 -24.8650
   -24.8473 -24.7760 -24.7654 -24.6616 -24.6403 -24.5406 -24.5189 -24.3877
   -24.3677 -24.3247 -24.3083 -24.2967 -24.2763 -24.2594 -24.2316 -24.2000
   -24.1923 -24.1254 -24.0371 -24.0250 -24.0113 -24.0098 -23.9722 -23.9497
   -23.9296 -23.9160 -23.6489 -23.6189 -21.1960 -20.9838 -20.6728 -20.5924
   -20.3217 -20.1954 -20.1704 -20.0619 -19.9513 -19.8824 -19.8615 -19.6393
   -19.5099 -19.4570 -19.3986 -19.3524 -19.2818 -19.2315 -18.7781 -18.6954
   -18.6336 -17.1909 -16.8828 -16.8614 -16.8232 -16.6321 -16.6199 -16.6132
   -16.5969 -16.5722 -16.5379 -16.3147 -16.3043 -15.1677 -14.9564 -14.8322
     3.9630   4.9823   5.7999   6.1308   6.2508   6.4699   6.5502   6.5971
     6.6086   6.8023   6.9334   7.0295   7.2127   7.3420   7.5479   7.5837
     7.7215   7.7824   7.9432   8.0253   8.1055   8.1536   8.2278   8.2580
     8.3690   8.4714   8.5552   8.6041   8.6612   8.6883   8.7335   8.8015
     8.8443   9.0170   9.0430   9.1350   9.1847   9.2577   9.3099   9.3137
     9.3691   9.4822   9.6671   9.7414   9.8037   9.9296   9.9651  10.1188
    10.1632  10.1816  10.2997  10.3493  10.3933  10.4307  10.5456  10.5915
    10.6852  10.7645  10.9137  10.9235  11.0161  11.0398  11.1429  11.2196
    11.2623  11.3717  11.4027  11.5735  11.6804  11.7687  11.8038  11.8154
    11.9984  12.0860  12.1480  12.1851  12.1898  12.2094  12.2375

     the Fermi energy is    10.2724 ev

!    total energy              =   -2942.54340799 Ry
     estimated scf accuracy    <       0.00026969 Ry
     smearing contrib. (-TS)   =      -0.09741284 Ry
     internal energy E=F+TS    =   -2942.44599515 Ry

     total magnetization       =    -0.00 Bohr mag/cell
     absolute magnetization    =     0.00 Bohr mag/cell

     convergence has been achieved in   5 iterations

     negative rho (up, down):  9.067E-01 9.067E-01

     Forces acting on atoms (cartesian axes, Ry/au):

     atom    1 type  1   force =     0.00534355   -0.01924589    0.01621728
     atom    2 type  1   force =    -0.12980827   -0.01797326    0.00172101
     atom    3 type  1   force =    -0.12846576    0.01429331    0.00739188
     atom    4 type  1   force =     0.15525815   -0.01974083    0.00073150
     atom    5 type  1   force =     0.12348088   -0.01754927    0.00642002
     atom    6 type  2   force =     0.00876616   -0.01335343    0.00163024
     atom    7 type  2   force =    -0.01286411    0.01424710    0.00459269
     atom    8 type  3   force =    -0.14122471    0.00776200    0.00485650
     atom    9 type  3   force =    -0.90211353   -1.45641359   -0.41767471
     atom   10 type  3   force =    -0.03799264   -0.01428873   -0.06444027
     atom   11 type  3   force =    -0.03882259   -0.02617796    0.05731843
     atom   12 type  3   force =    -0.02792592    0.02259535   -0.06007975
     atom   13 type  3   force =    -0.02175287    0.02131530    0.05857735
     atom   14 type  3   force =     0.02809159   -0.02009294   -0.06000632
     atom   15 type  3   force =     0.02789535   -0.02806458    0.05888818
     atom   16 type  3   force =     0.02769358    0.02725341   -0.05631667
     atom   17 type  3   force =     0.02320902    0.02162778    0.05679259
     atom   18 type  4   force =     0.00391925    0.01782386   -0.01134857
     atom   19 type  4   force =    -0.15068692   -0.00656099   -0.12075900
     atom   20 type  4   force =    -0.15264364    0.00461130    0.11915665
     atom   21 type  4   force =     0.14541753   -0.00647300   -0.11976030
     atom   22 type  4   force =     0.14467391    0.00490324    0.12129352
     atom   23 type  5   force =     1.05055201    1.48950181    0.39479774
     The non-local contrib.  to forces
     atom    1 type  1   force =     0.01566629    0.00186523    0.02937406
     atom    2 type  1   force =    -0.24779025   -0.16813606    0.01684382
     atom    3 type  1   force =    -0.24358549    0.15877764   -0.02442888
     atom    4 type  1   force =     0.25099929   -0.16571305    0.01699723
     atom    5 type  1   force =     0.23020683    0.13283126   -0.02423167
     atom    6 type  2   force =    -0.00253352   -0.06571357   -0.05598420
     atom    7 type  2   force =     0.00060681    0.08824130    0.05351050
     atom    8 type  3   force =    -0.25982231    0.00106787   -0.00132259
     atom    9 type  3   force =     0.60907285    0.58283814    0.15538744
     atom   10 type  3   force =    -0.24978592    0.00250373   -0.23173968
     atom   11 type  3   force =    -0.24981034    0.01475801    0.21293172
     atom   12 type  3   force =    -0.22710129   -0.02829699   -0.19490484
     atom   13 type  3   force =    -0.23014165   -0.01098973    0.21662722
     atom   14 type  3   force =     0.23530672    0.00560451   -0.22088076
     atom   15 type  3   force =     0.23754909    0.01261615    0.21880254
     atom   16 type  3   force =     0.22522745   -0.02697496   -0.18777858
     atom   17 type  3   force =     0.23332945   -0.01269366    0.21788589
     atom   18 type  4   force =    -0.00312189    0.08346030   -0.03999905
     atom   19 type  4   force =     0.07609426    0.00416956    0.05548902
     atom   20 type  4   force =     0.07404453    0.00027758   -0.05108301
     atom   21 type  4   force =    -0.07108999    0.00387718    0.04795083
     atom   22 type  4   force =    -0.06395037    0.00384449   -0.03438222
     atom   23 type  5   force =    -0.10231011   -0.15895928   -0.04812040
     The ionic contribution  to forces
     atom    1 type  1   force =    -0.23530505   -4.93739325   15.00130594
     atom    2 type  1   force =   -27.83974321   -6.23271200    0.76155281
     atom    3 type  1   force =   -27.86829841    6.38836952   -0.74581711
     atom    4 type  1   force =    27.76425469   -6.32327031    0.74915051
     atom    5 type  1   force =    27.51431942    7.25438407   -0.82849272
     atom    6 type  2   force =    -0.19603204   -3.84373609  -15.00855674
     atom    7 type  2   force =    -0.72787858    3.88709288   15.35904288
     atom    8 type  3   force =   -38.74039164   -0.09831141   -0.12013180
     atom    9 type  3   force =    34.94940399   -5.27132932   -1.51473166
     atom   10 type  3   force =   -24.85383117   -2.11730538  -24.61339481
     atom   11 type  3   force =   -23.92869884   -0.85696791   23.62375536
     atom   12 type  3   force =   -24.05799248    0.86545747  -23.70706261
     atom   13 type  3   force =   -24.84860808    2.29510033   24.67231887
     atom   14 type  3   force =    24.82040796   -2.13747872  -24.65718951
     atom   15 type  3   force =    23.88764228   -0.88552305   23.67707968
     atom   16 type  3   force =    23.99010857    0.95051268  -23.83506212
     atom   17 type  3   force =    24.75119410    2.43239041   24.85352499
     atom   18 type  4   force =    -0.48026429    4.57023178  -15.17461755
     atom   19 type  4   force =   -25.12077357    0.91962643  -27.12807108
     atom   20 type  4   force =   -25.08470547   -1.03589363   27.14473211
     atom   21 type  4   force =    25.02975797    0.85646560  -27.36622848
     atom   22 type  4   force =    24.94282742   -1.14496637   27.52273844
     atom   23 type  5   force =     6.33260641    4.46525628    1.33415459
     The local contribution  to forces
     atom    1 type  1   force =     0.22079687    4.91978614  -15.00287984
     atom    2 type  1   force =    27.96934580    6.39019711   -0.76573954
     atom    3 type  1   force =    27.99548362   -6.54389043    0.79235138
     atom    4 type  1   force =   -27.87354740    6.47318588   -0.75444550
     atom    5 type  1   force =   -27.62599678   -7.41556776    0.87411123
     atom    6 type  2   force =     0.20289281    3.90851481   15.07100782
     atom    7 type  2   force =     0.71148457   -3.96337005  -15.39134554
     atom    8 type  3   force =    38.88395188    0.10737578    0.13615811
     atom    9 type  3   force =   -36.49138923    3.21198270    0.94577092
     atom   10 type  3   force =    25.09325174    2.11157897   24.79555812
     atom   11 type  3   force =    24.16668701    0.81475153  -23.79716891
     atom   12 type  3   force =    24.28320664   -0.82509881   23.85341119
     atom   13 type  3   force =    25.08147605   -2.26706094  -24.84731939
     atom   14 type  3   force =   -25.05313283    2.12073051   24.83260515
     atom   15 type  3   force =   -24.12278792    0.84207388  -23.85528713
     atom   16 type  3   force =   -24.21216017   -0.90550590   23.97671627
     atom   17 type  3   force =   -24.98492603   -2.40372915  -25.03072483
     atom   18 type  4   force =     0.48393002   -4.64440725   15.20992223
     atom   19 type  4   force =    24.90539468   -0.92922108   26.95509482
     atom   20 type  4   force =    24.86658077    1.04384022  -26.97979499
     atom   21 type  4   force =   -24.82480976   -0.86545521   27.19780115
     atom   22 type  4   force =   -24.74210889    1.15052972  -27.36773861
     atom   23 type  5   force =    -5.17899208   -2.81684872   -0.88921377
     The core correction contribution to forces
     atom    1 type  1   force =     0.00149173    0.00459084   -0.00139645
     atom    2 type  1   force =    -0.01125954   -0.00170705    0.00106566
     atom    3 type  1   force =    -0.01137176    0.00274675   -0.00178644
     atom    4 type  1   force =     0.01265026   -0.00222542    0.00048624
     atom    5 type  1   force =     0.00462126    0.00615859   -0.00210213
     atom    6 type  2   force =     0.00080063    0.00385763    0.00310703
     atom    7 type  2   force =     0.00008282   -0.00434506   -0.00179015
     atom    8 type  3   force =    -0.03028833    0.00055331    0.00028295
     atom    9 type  3   force =     0.03354085    0.02140203    0.00600843
     atom   10 type  3   force =    -0.02715824    0.00551209   -0.01736012
     atom   11 type  3   force =    -0.02821966    0.00746255    0.01667916
     atom   12 type  3   force =    -0.02520107   -0.00731900   -0.01489502
     atom   13 type  3   force =    -0.02479738   -0.00620365    0.01570128
     atom   14 type  3   force =     0.02583841    0.00547638   -0.01749718
     atom   15 type  3   force =     0.02659555    0.00776907    0.01793676
     atom   16 type  3   force =     0.02484355   -0.00699580   -0.01388841
     atom   17 type  3   force =     0.02467107   -0.00466355    0.01536060
     atom   18 type  4   force =     0.00029455   -0.00476335    0.00187492
     atom   19 type  4   force =    -0.01038377    0.00036610   -0.00858910
     atom   20 type  4   force =    -0.01038393   -0.00040249    0.00842296
     atom   21 type  4   force =     0.01004555    0.00033322   -0.00805548
     atom   22 type  4   force =     0.00980632   -0.00066531    0.00731844
     atom   23 type  5   force =     0.00000000    0.00000000    0.00000000
     The Hubbard contrib.    to forces
     atom    1 type  1   force =     0.00000000    0.00000000    0.00000000
     atom    2 type  1   force =     0.00000000    0.00000000    0.00000000
     atom    3 type  1   force =     0.00000000    0.00000000    0.00000000
     atom    4 type  1   force =     0.00000000    0.00000000    0.00000000
     atom    5 type  1   force =     0.00000000    0.00000000    0.00000000
     atom    6 type  2   force =     0.00000000    0.00000000    0.00000000
     atom    7 type  2   force =     0.00000000    0.00000000    0.00000000
     atom    8 type  3   force =     0.00000000    0.00000000    0.00000000
     atom    9 type  3   force =     0.00000000    0.00000000    0.00000000
     atom   10 type  3   force =     0.00000000    0.00000000    0.00000000
     atom   11 type  3   force =     0.00000000    0.00000000    0.00000000
     atom   12 type  3   force =     0.00000000    0.00000000    0.00000000
     atom   13 type  3   force =     0.00000000    0.00000000    0.00000000
     atom   14 type  3   force =     0.00000000    0.00000000    0.00000000
     atom   15 type  3   force =     0.00000000    0.00000000    0.00000000
     atom   16 type  3   force =     0.00000000    0.00000000    0.00000000
     atom   17 type  3   force =     0.00000000    0.00000000    0.00000000
     atom   18 type  4   force =     0.00000000    0.00000000    0.00000000
     atom   19 type  4   force =     0.00000000    0.00000000    0.00000000
     atom   20 type  4   force =     0.00000000    0.00000000    0.00000000
     atom   21 type  4   force =     0.00000000    0.00000000    0.00000000
     atom   22 type  4   force =     0.00000000    0.00000000    0.00000000
     atom   23 type  5   force =     0.00000000    0.00000000    0.00000000
     The SCF correction term to forces
     atom    1 type  1   force =     0.00000000   -0.00000000   -0.00000000
     atom    2 type  1   force =    -0.00000000   -0.00000000   -0.00000000
     atom    3 type  1   force =    -0.00000000    0.00000000   -0.00000000
     atom    4 type  1   force =     0.00000000   -0.00000000   -0.00000000
     atom    5 type  1   force =     0.00000000    0.00000000   -0.00000000
     atom    6 type  2   force =     0.00000000   -0.00000000   -0.00000000
     atom    7 type  2   force =     0.00000000    0.00000000   -0.00000000
     atom    8 type  3   force =     0.00000000   -0.00000000   -0.00000000
     atom    9 type  3   force =    -0.00000000   -0.00000000   -0.00000000
     atom   10 type  3   force =    -0.00052936   -0.01659796    0.00340138
     atom   11 type  3   force =     0.00115893   -0.00620197    0.00202628
     atom   12 type  3   force =    -0.00089803    0.01783286    0.00427671
     atom   13 type  3   force =     0.00025789    0.01044947    0.00215454
     atom   14 type  3   force =    -0.00038898   -0.01444544    0.00386117
     atom   15 type  3   force =    -0.00116396   -0.00502046    0.00126151
     atom   16 type  3   force =    -0.00038614    0.01619758    0.00460134
     atom   17 type  3   force =    -0.00111989    0.01030391    0.00165113
     atom   18 type  4   force =     0.00302055    0.01328257   -0.00762394
     atom   19 type  4   force =    -0.00107884   -0.00152182    0.00622252
     atom   20 type  4   force =     0.00176014   -0.00323020   -0.00221523
     atom   21 type  4   force =     0.00145346   -0.00171361    0.00967686
     atom   22 type  4   force =    -0.00196089   -0.00385911   -0.00573735
     atom   23 type  5   force =    -0.00081251    0.00003372   -0.00111749

     Total force =     1.914139     Total SCF correction =     0.043411

     Entering Dynamics:    iteration =     3
                           time      =   0.0006 pico-seconds


ATOMIC_POSITIONS (angstrom)
Hf            2.6699999570        2.8271230292        6.6039642186    0   0   0
Hf            1.2529906802        1.2862841814        5.0584662261    0   0   0
Hf            1.2554868986        7.3898042948        5.0880677674    0   0   0
Hf            4.0870092338        1.2862841814        5.0584662261    0   0   0
Hf            4.0845130154        7.3898042948        5.0880677674    0   0   0
Nb            2.6699999570        2.7969306055        3.5155832167    0   0   0
Nb            2.6699999570        5.8763786763        6.6349979432    0   0   0
Ta            1.2093730560        4.3409278516        5.0711258323    0   0   0
Ta            4.1306268580        4.3409278516        5.0711258323    0   0   0
Ta            1.3072433230        1.3141178641        2.0587631832
Ta            1.3027786694        1.3083838952        8.0945943321
Ta            1.3040024996        7.3758328918        2.0462224909
Ta            1.3077047573        7.3650886105        8.0860172159
Ta            4.0327539509        1.3141167324        2.0587644946
Ta            4.0372186684        1.3083837838        8.0945942694
Ta            4.0359971844        7.3758339970        2.0462234627
Ta            4.0322951804        7.3650890360        8.0860168505
Zr            2.6700033289        5.8662967767        3.5273788257
Zr            1.2437579350        4.3220747382        1.9999399767
Zr            1.2403079084        4.3541252438        8.1498159390
Zr            4.0962390265        4.3220743057        1.9999410473
Zr            4.0996880064        4.3541253369        8.1498161026
H             4.6578196454        5.2625380806        5.3192664864


     kinetic energy (Ekin) =           1.99837364 Ry
     temperature           =       15024.67821803 K 
     Ekin + Etot (const)   =       -2940.54503436 Ry

     Writing config-only to output data dir outdir/pwscf.save/
     NEW-OLD atomic charge density approx. for the potential

     Check: negative core charge=   -0.000002

     negative rho (up, down):  9.068E-01 9.068E-01
     Generating pointlists ...
     new r_m :   0.1245 (alat units)  1.7268 (a.u.) for type    1

     total cpu time spent up to now is      886.4 secs

     Self-consistent Calculation

     iteration #  1     ecut=   120.00 Ry     beta= 0.70
     Davidson diagonalization with overlap
     ethr =  1.00E-06,  avg # of iterations = 18.0

     negative rho (up, down):  9.069E-01 9.069E-01

     total cpu time spent up to now is      957.0 secs

     total energy              =   -2942.68714801 Ry
     estimated scf accuracy    <       0.11062657 Ry

     total magnetization       =    -0.00 Bohr mag/cell
     absolute magnetization    =     0.00 Bohr mag/cell

[...]
   -24.7712 -24.7610 -24.6688 -24.6433 -24.5263 -24.5170 -24.4476 -24.3809
   -24.3568 -24.3219 -24.3045 -24.2833 -24.2550 -24.2283 -24.2190 -24.1978
   -24.1708 -24.1385 -24.0352 -24.0290 -24.0196 -24.0150 -24.0038 -24.0029
   -23.9623 -23.9446 -23.9183 -23.9107 -21.2180 -21.0222 -20.6694 -20.5696
   -20.3049 -20.1948 -20.1279 -20.0752 -19.9307 -19.8623 -19.8053 -19.6193
   -19.5648 -19.4288 -19.4030 -19.3686 -19.2645 -19.2276 -18.7535 -18.6782
   -18.6100 -17.1619 -16.8780 -16.8387 -16.7981 -16.6802 -16.6118 -16.6094
   -16.5941 -16.5759 -16.5307 -16.2955 -16.2912 -15.1475 -14.9296 -14.7955
     2.8137   4.6890   5.8052   6.1159   6.2572   6.4219   6.5266   6.5911
     6.6027   6.7732   6.9302   7.0759   7.1883   7.4006   7.5483   7.5878
     7.6595   7.8716   8.0049   8.0257   8.1420   8.1773   8.2348   8.2886
     8.3856   8.4490   8.5312   8.5824   8.6488   8.6772   8.6943   8.7894
     8.8552   9.0150   9.0530   9.1273   9.1976   9.2521   9.2905   9.3497
     9.4076   9.4921   9.6547   9.7056   9.8549   9.8623   9.9755  10.1517
    10.1648  10.2579  10.3579  10.3880  10.4058  10.4594  10.5411  10.5924
    10.7421  10.7596  10.9225  10.9639  11.0230  11.0378  11.1947  11.2240
    11.2618  11.3705  11.3886  11.5566  11.6905  11.7859  11.7997  11.8090
    11.9866  12.0133  12.1302  12.1605  12.1813  12.1964  12.2165

     the Fermi energy is    10.3010 ev

!    total energy              =   -2943.21847559 Ry
     estimated scf accuracy    <       0.00079930 Ry
     smearing contrib. (-TS)   =      -0.09689611 Ry
     internal energy E=F+TS    =   -2943.12157948 Ry

     total magnetization       =    -0.00 Bohr mag/cell
     absolute magnetization    =     0.00 Bohr mag/cell

     convergence has been achieved in   4 iterations

     negative rho (up, down):  9.080E-01 9.080E-01

     Forces acting on atoms (cartesian axes, Ry/au):

     atom    1 type  1   force =     0.00300679   -0.02632421    0.00678387
     atom    2 type  1   force =    -0.13388349   -0.01554930   -0.01264044
     atom    3 type  1   force =    -0.12601721    0.01191877   -0.00387488
     atom    4 type  1   force =     0.14448560   -0.01121694   -0.00760301
     atom    5 type  1   force =     0.09054554    0.16628257   -0.06951677
     atom    6 type  2   force =     0.00402991   -0.01860424    0.00464054
     atom    7 type  2   force =    -0.01288348    0.01144941    0.00253123
     atom    8 type  3   force =    -0.12519322    0.00024285   -0.00379995
     atom    9 type  3   force =     0.09755369   -0.11741803   -0.06223545
     atom   10 type  3   force =    -0.03751643   -0.02322433   -0.05600615
     atom   11 type  3   force =    -0.04083931   -0.02781983    0.05775925
     atom   12 type  3   force =    -0.02539475    0.02794713   -0.05161108
     atom   13 type  3   force =    -0.01528106    0.02774032    0.07079628
     atom   14 type  3   force =     0.03238653   -0.02681068   -0.05452972
     atom   15 type  3   force =     0.03191910   -0.03249512    0.06392629
     atom   16 type  3   force =     0.02930720    0.03526107   -0.05241979
     atom   17 type  3   force =     0.01911721    0.03738627    0.07073656
     atom   18 type  4   force =    -0.01183028    0.02010287   -0.03073591
     atom   19 type  4   force =    -0.14625950   -0.00458462   -0.11648280
     atom   20 type  4   force =    -0.14174260    0.00638863    0.12906694
     atom   21 type  4   force =     0.14643824   -0.00620732   -0.11489572
     atom   22 type  4   force =     0.13885984   -0.00081573    0.13219284
     atom   23 type  5   force =     0.07919167   -0.03364954    0.09791790
     The non-local contrib.  to forces
     atom    1 type  1   force =     0.00218417   -0.00362314    0.03642331
     atom    2 type  1   force =    -0.24835561   -0.16631883    0.00910679
     atom    3 type  1   force =    -0.24174764    0.15515299   -0.02360984
     atom    4 type  1   force =     0.24528103   -0.21960124    0.01285510
     atom    5 type  1   force =     0.20334094    0.17981853   -0.03539165
     atom    6 type  2   force =    -0.00227600   -0.06026569   -0.04724325
     atom    7 type  2   force =     0.01362467    0.06869096    0.08971775
     atom    8 type  3   force =    -0.25899843    0.00495397   -0.00130467
     atom    9 type  3   force =     0.19586235    0.02336946   -0.00084487
     atom   10 type  3   force =    -0.23997231    0.01500188   -0.22276682
     atom   11 type  3   force =    -0.24514904    0.01796464    0.21481370
     atom   12 type  3   force =    -0.21796441   -0.03561691   -0.19554584
     atom   13 type  3   force =    -0.22014292   -0.00861080    0.22624137
     atom   14 type  3   force =     0.23954283    0.00467179   -0.21510546
     atom   15 type  3   force =     0.24191628    0.01396027    0.21275406
     atom   16 type  3   force =     0.22141390   -0.02413434   -0.19143973
     atom   17 type  3   force =     0.24073321   -0.01907845    0.20897202
     atom   18 type  4   force =    -0.00151273    0.07706835   -0.05728681
     atom   19 type  4   force =     0.07202094    0.00553118    0.06058716
     atom   20 type  4   force =     0.06941487   -0.00297488   -0.05447365
     atom   21 type  4   force =    -0.07447457    0.00315931    0.05329573
     atom   22 type  4   force =    -0.07336941   -0.00546504   -0.03344645
     atom   23 type  5   force =    -0.03244406   -0.00250168   -0.02394377
     The ionic contribution  to forces
     atom    1 type  1   force =    -0.15451422   -4.87101497   14.93207046
     atom    2 type  1   force =   -27.86050599   -6.13101637    0.74506973
     atom    3 type  1   force =   -28.01277632    6.40533495   -0.79430173
     atom    4 type  1   force =    27.79343080   -6.08097798    0.72495013
     atom    5 type  1   force =    27.34180778    8.61223638   -1.37584183
     atom    6 type  2   force =    -0.11465809   -3.75074562  -14.95683131
     atom    7 type  2   force =    -1.27010614    3.57835095   15.71784956
     atom    8 type  3   force =   -38.83526168   -0.19540127   -0.15445372
     atom    9 type  3   force =    38.22821508   -2.52643068   -0.78396921
     atom   10 type  3   force =   -24.85673868   -2.06694335  -24.59583004
     atom   11 type  3   force =   -23.93776107   -0.79443493   23.61813545
     atom   12 type  3   force =   -24.08005667    0.84977077  -23.72059159
     atom   13 type  3   force =   -24.90097380    2.30015648   24.72548698
     atom   14 type  3   force =    24.82744076   -2.05852993  -24.63320284
     atom   15 type  3   force =    23.89527750   -0.77799714   23.67155891
     atom   16 type  3   force =    24.00381890    0.92667114  -23.89240326
     atom   17 type  3   force =    24.74624935    2.51123529   25.09795555
     atom   18 type  4   force =    -0.53188127    4.35340553  -15.36399783
     atom   19 type  4   force =   -25.12071497    0.89494876  -27.07486888
     atom   20 type  4   force =   -25.10580816   -1.08628766   27.11579259
     atom   21 type  4   force =    25.06280316    0.82563386  -27.22489699
     atom   22 type  4   force =    24.99214764   -1.27008786   27.44003708
     atom   23 type  5   force =     3.89056609    0.35212364    0.78228279
     The local contribution  to forces
     atom    1 type  1   force =     0.15100225    4.84730921  -14.98535256
     atom    2 type  1   force =    27.98550047    6.28667968   -0.80315298
     atom    3 type  1   force =    28.13364440   -6.55527601    0.78050470
     atom    4 type  1   force =   -27.90917120    6.30495097   -0.78093257
     atom    5 type  1   force =   -27.46048100   -8.62814575    1.31204919
     atom    6 type  2   force =     0.11666161    3.78606061   14.98348986
     atom    7 type  2   force =     1.23011062   -3.63976258  -15.82258297
     atom    8 type  3   force =    38.99939227    0.18943965    0.11426244
     atom    9 type  3   force =   -38.35684676    2.36759681    0.68346103
     atom   10 type  3   force =    25.07995399    2.01389340   24.78407312
     atom   11 type  3   force =    24.16990959    0.74234145  -23.77819846
     atom   12 type  3   force =    24.29168894   -0.77118372   23.88457864
     atom   13 type  3   force =    25.12962146   -2.25953137  -24.88430190
     atom   14 type  3   force =   -25.05912998    2.01609174   24.81661347
     atom   15 type  3   force =   -24.13822046    0.73136549  -23.82613164
     atom   16 type  3   force =   -24.22141667   -0.85452594   24.04850268
     atom   17 type  3   force =   -25.00282548   -2.45056285  -25.23341593
     atom   18 type  4   force =     0.51066102   -4.40574809   15.35929662
     atom   19 type  4   force =    24.90706778   -0.90525477   26.91409954
     atom   20 type  4   force =    24.90754770    1.09641050  -26.93398833
     atom   21 type  4   force =   -24.84978058   -0.83656831   27.06979550
     atom   22 type  4   force =   -24.79783869    1.27119177  -27.27103347
     atom   23 type  5   force =    -3.78068737   -0.38208254   -0.66472886
     The core correction contribution to forces
     atom    1 type  1   force =    -0.00013076    0.00436412    0.00166285
     atom    2 type  1   force =    -0.01195947   -0.00163642    0.00089815
     atom    3 type  1   force =    -0.00946794    0.00436403   -0.00157116
     atom    4 type  1   force =     0.01342641   -0.00673382   -0.00022013
     atom    5 type  1   force =     0.00365642   -0.00079599   -0.00356649
     atom    6 type  2   force =    -0.00003978    0.00303275    0.00160535
     atom    7 type  2   force =     0.00024446   -0.00352315   -0.00399170
     atom    8 type  3   force =    -0.03028317   -0.00053082    0.00091453
     atom    9 type  3   force =     0.01965216   -0.00348722   -0.00176016
     atom   10 type  3   force =    -0.02647807    0.00638179   -0.01617199
     atom   11 type  3   force =    -0.02751982    0.00787223    0.01606375
     atom   12 type  3   force =    -0.02414816   -0.00706079   -0.01529307
     atom   13 type  3   force =    -0.02360059   -0.00693531    0.01662147
     atom   14 type  3   force =     0.02593633    0.00573500   -0.01586304
     atom   15 type  3   force =     0.02677771    0.00781036    0.01716622
     atom   16 type  3   force =     0.02488476   -0.00645770   -0.01460804
     atom   17 type  3   force =     0.02546902   -0.00727294    0.01377998
     atom   18 type  4   force =     0.00011718   -0.00424596    0.00247558
     atom   19 type  4   force =    -0.01018277    0.00025056   -0.00882943
     atom   20 type  4   force =    -0.01001570   -0.00029409    0.00872594
     atom   21 type  4   force =     0.01031354    0.00041544   -0.00832846
     atom   22 type  4   force =     0.01037318   -0.00001067    0.00727660
     atom   23 type  5   force =     0.00000000    0.00000000    0.00000000
     The Hubbard contrib.    to forces
     atom    1 type  1   force =     0.00000000    0.00000000    0.00000000
     atom    2 type  1   force =     0.00000000    0.00000000    0.00000000
     atom    3 type  1   force =     0.00000000    0.00000000    0.00000000
     atom    4 type  1   force =     0.00000000    0.00000000    0.00000000
     atom    5 type  1   force =     0.00000000    0.00000000    0.00000000
     atom    6 type  2   force =     0.00000000    0.00000000    0.00000000
     atom    7 type  2   force =     0.00000000    0.00000000    0.00000000
     atom    8 type  3   force =     0.00000000    0.00000000    0.00000000
     atom    9 type  3   force =     0.00000000    0.00000000    0.00000000
     atom   10 type  3   force =     0.00000000    0.00000000    0.00000000
     atom   11 type  3   force =     0.00000000    0.00000000    0.00000000
     atom   12 type  3   force =     0.00000000    0.00000000    0.00000000
     atom   13 type  3   force =     0.00000000    0.00000000    0.00000000
     atom   14 type  3   force =     0.00000000    0.00000000    0.00000000
     atom   15 type  3   force =     0.00000000    0.00000000    0.00000000
     atom   16 type  3   force =     0.00000000    0.00000000    0.00000000
     atom   17 type  3   force =     0.00000000    0.00000000    0.00000000
     atom   18 type  4   force =     0.00000000    0.00000000    0.00000000
     atom   19 type  4   force =     0.00000000    0.00000000    0.00000000
     atom   20 type  4   force =     0.00000000    0.00000000    0.00000000
     atom   21 type  4   force =     0.00000000    0.00000000    0.00000000
     atom   22 type  4   force =     0.00000000    0.00000000    0.00000000
     atom   23 type  5   force =     0.00000000    0.00000000    0.00000000
     The SCF correction term to forces
     atom    1 type  1   force =     0.00000000   -0.00000000    0.00000000
     atom    2 type  1   force =     0.00000000   -0.00000000    0.00000000
     atom    3 type  1   force =     0.00000000    0.00000000    0.00000000
     atom    4 type  1   force =     0.00000000   -0.00000000    0.00000000
     atom    5 type  1   force =     0.00000000    0.00000000    0.00000000
     atom    6 type  2   force =     0.00000000    0.00000000    0.00000000
     atom    7 type  2   force =     0.00000000    0.00000000    0.00000000
     atom    8 type  3   force =    -0.00000000    0.00000000    0.00000000
     atom    9 type  3   force =     0.00000000    0.00000000    0.00000000
     atom   10 type  3   force =     0.00523507    0.00844732   -0.00747349
     atom   11 type  3   force =    -0.00080254   -0.00155785   -0.01521826
     atom   12 type  3   force =     0.00460196   -0.00795685   -0.00692229
     atom   13 type  3   force =    -0.00066879    0.00266670   -0.01541471
     atom   14 type  3   force =    -0.00188699    0.00522609   -0.00913491
     atom   15 type  3   force =     0.00568448   -0.00762873   -0.01358433
     atom   16 type  3   force =     0.00012275   -0.00628673   -0.00463451
     atom   17 type  3   force =     0.00900753    0.00307058   -0.01871812
     atom   18 type  4   force =     0.01030194   -0.00037160    0.02661346
     atom   19 type  4   force =     0.00506595   -0.00005498   -0.00963426
     atom   20 type  4   force =    -0.00336491   -0.00045987   -0.00915269
     atom   21 type  4   force =    -0.00290689    0.00115776   -0.00692456
     atom   22 type  4   force =     0.00706354    0.00356145   -0.01280399
     atom   23 type  5   force =     0.00127343   -0.00118359    0.00214467

     Total force =     0.452966     Total SCF correction =     0.054575
     SCF correction compared to forces is large: reduce conv_thr to get better values

     Entering Dynamics:    iteration =    10
                           time      =   0.0020 pico-seconds


ATOMIC_POSITIONS (angstrom)
Hf            2.6699999570        2.8271230292        6.6039642186    0   0   0
Hf            1.2529906802        1.2862841814        5.0584662261    0   0   0
Hf            1.2554868986        7.3898042948        5.0880677674    0   0   0
Hf            4.0870092338        1.2862841814        5.0584662261    0   0   0
Hf            4.0845130154        7.3898042948        5.0880677674    0   0   0
Nb            2.6699999570        2.7969306055        3.5155832167    0   0   0
Nb            2.6699999570        5.8763786763        6.6349979432    0   0   0
Ta            1.2093730560        4.3409278516        5.0711258323    0   0   0
Ta            4.1306268580        4.3409278516        5.0711258323    0   0   0
Ta            1.3071461460        1.3140697482        2.0586045904
Ta            1.3026759680        1.3083127818        8.0947417839
Ta            1.3039340983        7.3759009146        2.0460762679
Ta            1.3076545589        7.3651537429        8.0861753940
Ta            4.0328286215        1.3140552670        2.0586144573
Ta            4.0372923245        1.3083053215        8.0947500825
Ta            4.0360678853        7.3759163248        2.0460835389
Ta            4.0323518263        7.3651590278        8.0861705548
Zr            2.6700006974        5.8664041965        3.5272932044
Zr            1.2429939330        4.3220413379        1.9993344409
Zr            1.2395427093        4.3541499998        8.1504331890
Zr            4.0969840529        4.3220394887        1.9993421627
Zr            4.1004192593        4.3541394253        8.1504445493
H             4.3369229881        5.9861012071        5.5151103313


     kinetic energy (Ekin) =           2.67053955 Ry
     temperature           =       20078.32600940 K 
     Ekin + Etot (const)   =       -2940.54793604 Ry

     The maximum number of steps has been reached.

     End of molecular dynamics calculation

     diffusion coefficients :
     atom     1   D =       0.00000000 cm^2/s
     atom     2   D =       0.00000000 cm^2/s
     atom     3   D =       0.00000000 cm^2/s
     atom     4   D =       0.00000000 cm^2/s
     atom     5   D =       0.00000000 cm^2/s
     atom     6   D =       0.00000000 cm^2/s
     atom     7   D =       0.00000000 cm^2/s
     atom     8   D =       0.00000000 cm^2/s
     atom     9   D =       0.00000000 cm^2/s
     atom    10   D =       0.00000000 cm^2/s
     atom    11   D =       0.00000000 cm^2/s
     atom    12   D =       0.00000000 cm^2/s
     atom    13   D =       0.00000000 cm^2/s
     atom    14   D =       0.00000000 cm^2/s
     atom    15   D =       0.00000000 cm^2/s
     atom    16   D =       0.00000000 cm^2/s
     atom    17   D =       0.00000000 cm^2/s
     atom    18   D =       0.00000000 cm^2/s
     atom    19   D =       0.00000001 cm^2/s
     atom    20   D =       0.00000001 cm^2/s
     atom    21   D =       0.00000001 cm^2/s
     atom    22   D =       0.00000001 cm^2/s
     atom    23   D =       0.01021975 cm^2/s

     < D > =       0.00072999 cm^2/s

     Writing all to output data dir outdir/pwscf.save/

     init_run     :     22.05s CPU     22.44s WALL (       1 calls)
     electrons    :   2118.66s CPU   2151.39s WALL (      10 calls)
     update_pot   :     21.10s CPU     21.20s WALL (       9 calls)
     forces       :    162.06s CPU    164.16s WALL (      10 calls)

     Called by init_run:
     wfcinit      :     17.12s CPU     17.26s WALL (       1 calls)
     potinit      :      1.06s CPU      1.11s WALL (       1 calls)
     hinit0       :      1.79s CPU      1.82s WALL (       1 calls)

     Called by electrons:
     c_bands      :   1718.99s CPU   1730.02s WALL (      52 calls)
     sum_band     :    283.56s CPU    295.29s WALL (      52 calls)
     v_of_rho     :     12.82s CPU     13.30s WALL (      62 calls)
     newd         :    123.48s CPU    134.35s WALL (      62 calls)
     mix_rho      :      0.97s CPU      1.01s WALL (      52 calls)

     Called by c_bands:
     init_us_2    :      2.82s CPU      2.84s WALL (     230 calls)
     init_us_2:cp :      2.82s CPU      2.84s WALL (     230 calls)
     regterg      :   1704.45s CPU   1715.43s WALL (     104 calls)

     Called by *egterg:
     rdiaghg      :     30.64s CPU     31.03s WALL (     713 calls)
     h_psi        :    703.70s CPU    711.79s WALL (     733 calls)
     s_psi        :    254.98s CPU    255.42s WALL (     733 calls)
     g_psi        :      0.53s CPU      0.54s WALL (     627 calls)

     Called by h_psi:
     h_psi:calbec :    318.94s CPU    319.53s WALL (     733 calls)
     vloc_psi     :    127.66s CPU    134.77s WALL (     733 calls)
     add_vuspsi   :    255.99s CPU    256.37s WALL (     733 calls)

     General routines
     calbec       :    538.06s CPU    539.01s WALL (     917 calls)
     fft          :     10.97s CPU     11.49s WALL (    1089 calls)
     ffts         :      0.28s CPU      0.31s WALL (      52 calls)
     fftw         :    131.30s CPU    138.54s WALL (   54246 calls)

     Parallel routines

     PWSCF        :  39m 3.52s CPU  39m40.90s WALL


   This run was terminated on:  12:18:14  11Jun2023            

=------------------------------------------------------------------------------=
   JOB DONE.
=------------------------------------------------------------------------------=
