
     Program PWSCF v.7.2 starts on 11Jun2023 at 10:18:47 

     This program is part of the open-source Quantum ESPRESSO suite
     for quantum simulation of materials; please cite
         "P. Giannozzi et al., J. Phys.:Condens. Matter 21 395502 (2009);
         "P. Giannozzi et al., J. Phys.:Condens. Matter 29 465901 (2017);
         "P. Giannozzi et al., J. Chem. Phys. 152 154105 (2020);
          URL http://www.quantum-espresso.org", 
     in publications or presentations arising from this work. More details at
     http://www.quantum-espresso.org/quote

     Parallel version (MPI), running on    12 processors

     MPI processes distributed on     1 nodes
     75832 MiB available memory on the printing compute node when the environment starts

     Reading input from md_data/md_Hf5Nb2Ta10Zr5H_10steps_100eV_incident45_polar180.in
Warning: card &CELL ignored
Warning: card / ignored

     Current dimensions of program PWSCF are:
     Max number of different atomic species (ntypx) = 10
     Max number of k-points (npk) =  40000
     Max angular momentum in pseudopotentials (lmaxx) =  4

     File outdir/pwscf.md deleted, as requested

     gamma-point specific algorithms are used

     R & G space division:  proc/nbgrp/npool/nimage =      12
     Subspace diagonalization in iterative solution of the eigenvalue problem:
     one sub-group per band group will be used
     custom distributed-memory algorithm (size of sub-group:  2*  2 procs)


     Parallelization info
     --------------------
     sticks:   dense  smooth     PW     G-vecs:    dense   smooth      PW
     Min         723     723    180                64572    64572    8072
     Max         724     724    182                64584    64584    8078
     Sum        8687    8687   2177               774967   774967   96907

     Using Slab Decomposition



     bravais-lattice index     =            0
     lattice parameter (alat)  =      13.8706  a.u.
     unit-cell volume          =    4363.8306 (a.u.)^3
     number of atoms/cell      =           23
     number of atomic types    =            5
     number of electrons       =       277.00
     number of Kohn-Sham states=          167
     kinetic-energy cutoff     =     120.0000  Ry
     charge density cutoff     =     480.0000  Ry
     scf convergence threshold =      1.0E-03
     mixing beta               =       0.7000
     number of iterations used =            8  TF        mixing
     energy convergence thresh.=      0.0E+00
     force convergence thresh. =      0.0E+00
     Exchange-correlation=  SLA  PW   PBX  PBC
                           (   1   4   3   4   0   0   0)
     nstep                     =           10


     celldm(1)=  13.870589  celldm(2)=   0.000000  celldm(3)=   0.000000
     celldm(4)=   0.000000  celldm(5)=   0.000000  celldm(6)=   0.000000

     crystal axes: (cart. coord. in units of alat)
               a(1) = (   1.000000   0.000000   0.000000 )  
               a(2) = (   0.000000   1.182561   0.000000 )  
               a(3) = (   0.000000   0.000000   1.382801 )  

     reciprocal axes: (cart. coord. in units 2 pi/alat)
               b(1) = (  1.000000  0.000000  0.000000 )  
               b(2) = (  0.000000  0.845622  0.000000 )  
               b(3) = (  0.000000  0.000000  0.723170 )  


     PseudoPot. # 1 for Hf read from file:
     q-e/pseudo/hf_pbe_v1.uspp.F.UPF
     MD5 check sum: 8ee9378dfe14276e333edf04c5e4aa26
     Pseudo is Ultrasoft + core correction, Zval = 12.0
     Generated by new atomic code, or converted to UPF format
     Using radial grid of  921 points,  8 beta functions with: 
                l(1) =   0
                l(2) =   0
                l(3) =   0
                l(4) =   1
                l(5) =   1
                l(6) =   2
                l(7) =   2
                l(8) =   3
     Q(r) pseudized with  6 coefficients,  rinner =    1.200   1.200   1.200
                                                       1.200   1.200   1.200
                                                       1.200

     PseudoPot. # 2 for Nb read from file:
     q-e/pseudo/nb_pbe_v1.uspp.F.UPF
     MD5 check sum: 573aab8a2fa660278ed4a62cd769473f
     Pseudo is Ultrasoft + core correction, Zval = 13.0
     Generated by new atomic code, or converted to UPF format
     Using radial grid of  887 points,  6 beta functions with: 
                l(1) =   0
                l(2) =   0
                l(3) =   1
                l(4) =   1
                l(5) =   2
                l(6) =   2
     Q(r) pseudized with  6 coefficients,  rinner =    1.000   1.000   1.000
                                                       1.000   1.000

     PseudoPot. # 3 for Ta read from file:
     q-e/pseudo/ta_pbe_v1.uspp.F.UPF
     MD5 check sum: f8bbe9446314a3b8ea5d9f3e3836c939
     Pseudo is Ultrasoft + core correction, Zval = 13.0
     Generated by new atomic code, or converted to UPF format
     Using radial grid of  921 points,  7 beta functions with: 
                l(1) =   0
                l(2) =   0
                l(3) =   1
                l(4) =   1
                l(5) =   2
                l(6) =   2
                l(7) =   3
     Q(r) pseudized with  6 coefficients,  rinner =    1.300   1.300   1.300
                                                       1.300   1.300   1.300
                                                       1.300

     PseudoPot. # 4 for Zr read from file:
     q-e/pseudo/zr_pbe_v1.uspp.F.UPF
     MD5 check sum: 5db81b1e868ab7776c4564c113de050b
     Pseudo is Ultrasoft + core correction, Zval = 12.0
     Generated by new atomic code, or converted to UPF format
     Using radial grid of  887 points,  6 beta functions with: 
                l(1) =   0
                l(2) =   0
                l(3) =   1
                l(4) =   1
                l(5) =   2
                l(6) =   2
     Q(r) pseudized with  6 coefficients,  rinner =    1.200   1.200   1.200
                                                       1.200   1.200

     PseudoPot. # 5 for H  read from file:
     q-e/pseudo/h_pbe_v1.4.uspp.F.UPF
     MD5 check sum: 761ae9a214b05c3daf00ab9f6b793d6f
     Pseudo is Ultrasoft, Zval =  1.0
     Generated by new atomic code, or converted to UPF format
     Using radial grid of  615 points,  2 beta functions with: 
                l(1) =   0
                l(2) =   0
     Q(r) pseudized with  8 coefficients,  rinner =    0.700

     atomic species   valence    mass     pseudopotential
        Hf            12.00   178.49000     Hf( 1.00)
        Nb            13.00    92.90637     Nb( 1.00)
        Ta            13.00   180.94788     Ta( 1.00)
        Zr            12.00    91.22400     Zr( 1.00)
        H              1.00     2.01400     H ( 1.00)

     Starting magnetic structure 
     atomic species   magnetization
        Hf           0.000
        Nb           0.000
        Ta           0.000
        Zr           0.000
        H            0.000

     No symmetry found



   Cartesian axes

     site n.     atom                  positions (alat units)
         1           Hf  tau(   1) = (   0.3637602   0.3851666   0.8997227  )
         2           Hf  tau(   2) = (   0.1707072   0.1752431   0.6891644  )
         3           Hf  tau(   3) = (   0.1710473   1.0067854   0.6931973  )
         4           Hf  tau(   4) = (   0.5568133   0.1752431   0.6891644  )
         5           Hf  tau(   5) = (   0.5564732   1.0067854   0.6931973  )
         6           Nb  tau(   6) = (   0.3637602   0.3810532   0.4789623  )
         7           Nb  tau(   7) = (   0.3637602   0.8005966   0.9039507  )
         8           Ta  tau(   8) = (   0.1647647   0.5914071   0.6908891  )
         9           Ta  tau(   9) = (   0.5627557   0.5914071   0.6908891  )
        10           Ta  tau(  10) = (   0.1780998   0.1790358   0.2804876  )
        11           Ta  tau(  11) = (   0.1774916   0.1782549   1.1028038  )
        12           Ta  tau(  12) = (   0.1776580   1.0048810   0.2787789  )
        13           Ta  tau(  13) = (   0.1781622   1.0034173   1.1016352  )
        14           Ta  tau(  14) = (   0.5494206   0.1790358   0.2804876  )
        15           Ta  tau(  15) = (   0.5500289   0.1782549   1.1028038  )
        16           Ta  tau(  16) = (   0.5498625   1.0048810   0.2787789  )
        17           Ta  tau(  17) = (   0.5493582   1.0034173   1.1016352  )
        18           Zr  tau(  18) = (   0.3637602   0.7992215   0.4805700  )
        19           Zr  tau(  19) = (   0.1694598   0.5888390   0.2724796  )
        20           Zr  tau(  20) = (   0.1689898   0.5932048   1.1103210  )
        21           Zr  tau(  21) = (   0.5580607   0.5888390   0.2724796  )
        22           Zr  tau(  22) = (   0.5585306   0.5932048   1.1103210  )
        23           H   tau(  23) = (   0.6590918   0.4949446   0.6910327  )

     number of k points=     1  Gaussian smearing, width (Ry)=  0.0220
                       cart. coord. in units 2pi/alat
        k(    1) = (   0.0000000   0.0000000   0.0000000), wk =   1.0000000

     Dense  grid:   387484 G-vectors     FFT dimensions: ( 100, 120, 135)

     Estimated max dynamical RAM per process >     326.54 MB

     Estimated total dynamical RAM >       3.83 GB

     Check: negative core charge=   -0.000002
     Generating pointlists ...
     new r_m :   0.1385 (alat units)  1.9206 (a.u.) for type    1
     new r_m :   0.1397 (alat units)  1.9374 (a.u.) for type    2
     new r_m :   0.0562 (alat units)  0.7800 (a.u.) for type    3
     new r_m :   0.1415 (alat units)  1.9625 (a.u.) for type    4
     new r_m :   0.0562 (alat units)  0.7800 (a.u.) for type    5

     Initial potential from superposition of free atoms

     starting charge     266.9726, renormalised to     277.0000

     negative rho (up, down):  9.202E-01 9.202E-01
     Starting wfcs are  287 randomized atomic wfcs

     total cpu time spent up to now is       23.5 secs

     Self-consistent Calculation

     iteration #  1     ecut=   120.00 Ry     beta= 0.70
     Davidson diagonalization with overlap
     ethr =  1.00E-02,  avg # of iterations =  3.0

     negative rho (up, down):  9.512E-01 9.510E-01

     total cpu time spent up to now is       61.4 secs

     total energy              =   -2933.13036489 Ry
     estimated scf accuracy    <     321.21016563 Ry

     total magnetization       =     0.00 Bohr mag/cell
     absolute magnetization    =     0.08 Bohr mag/cell

     iteration #  2     ecut=   120.00 Ry     beta= 0.70
     Davidson diagonalization with overlap
     ethr =  1.00E-02,  avg # of iterations =  4.0

     negative rho (up, down):  8.884E-01 8.885E-01

     total cpu time spent up to now is      101.1 secs

     total energy              =   -2941.27026773 Ry
     estimated scf accuracy    <      47.53376964 Ry

     total magnetization       =    -0.02 Bohr mag/cell
     absolute magnetization    =     0.17 Bohr mag/cell

     iteration #  3     ecut=   120.00 Ry     beta= 0.70
     Davidson diagonalization with overlap
     ethr =  1.00E-02,  avg # of iterations =  4.0

     negative rho (up, down):  9.124E-01 9.126E-01

     total cpu time spent up to now is      138.6 secs

     total energy              =   -2941.89750354 Ry
     estimated scf accuracy    <      17.24358532 Ry

     total magnetization       =    -0.01 Bohr mag/cell
     absolute magnetization    =     0.18 Bohr mag/cell

     iteration #  4     ecut=   120.00 Ry     beta= 0.70
     Davidson diagonalization with overlap
     ethr =  6.23E-03,  avg # of iterations =  3.0

     negative rho (up, down):  9.206E-01 9.205E-01

     total cpu time spent up to now is      172.9 secs

     total energy              =   -2942.15850349 Ry
     estimated scf accuracy    <       3.58465816 Ry

     total magnetization       =    -0.02 Bohr mag/cell
     absolute magnetization    =     0.22 Bohr mag/cell

     iteration #  5     ecut=   120.00 Ry     beta= 0.70
     Davidson diagonalization with overlap
     ethr =  1.29E-03,  avg # of iterations =  7.5

     negative rho (up, down):  9.136E-01 9.135E-01

     total cpu time spent up to now is      217.3 secs

     total energy              =   -2942.34920809 Ry
     estimated scf accuracy    <       1.54552467 Ry

     total magnetization       =    -0.01 Bohr mag/cell
     absolute magnetization    =     0.14 Bohr mag/cell

     iteration #  6     ecut=   120.00 Ry     beta= 0.70
     Davidson diagonalization with overlap
     ethr =  5.58E-04,  avg # of iterations =  2.0

     negative rho (up, down):  9.122E-01 9.121E-01

     total cpu time spent up to now is      250.6 secs

     total energy              =   -2942.35208688 Ry
     estimated scf accuracy    <       0.76314871 Ry

     total magnetization       =    -0.01 Bohr mag/cell
     absolute magnetization    =     0.11 Bohr mag/cell

     iteration #  7     ecut=   120.00 Ry     beta= 0.70
     Davidson diagonalization with overlap
     ethr =  2.76E-04,  avg # of iterations =  4.0

     negative rho (up, down):  9.060E-01 9.059E-01

     total cpu time spent up to now is      284.3 secs

     total energy              =   -2942.37609696 Ry
     estimated scf accuracy    <       0.12606415 Ry

     total magnetization       =    -0.02 Bohr mag/cell
     absolute magnetization    =     0.09 Bohr mag/cell

     iteration #  8     ecut=   120.00 Ry     beta= 0.70
     Davidson diagonalization with overlap
     ethr =  4.55E-05,  avg # of iterations = 11.5

     negative rho (up, down):  9.042E-01 9.042E-01

     total cpu time spent up to now is      328.1 secs

     total energy              =   -2942.37820286 Ry
     estimated scf accuracy    <       0.09866595 Ry

     total magnetization       =    -0.02 Bohr mag/cell
     absolute magnetization    =     0.05 Bohr mag/cell

     iteration #  9     ecut=   120.00 Ry     beta= 0.70
     Davidson diagonalization with overlap
     ethr =  3.56E-05,  avg # of iterations =  2.0

     negative rho (up, down):  9.053E-01 9.053E-01

     total cpu time spent up to now is      362.6 secs

     total energy              =   -2942.38495887 Ry
     estimated scf accuracy    <       0.03877156 Ry

     total magnetization       =    -0.02 Bohr mag/cell
     absolute magnetization    =     0.04 Bohr mag/cell

     iteration # 10     ecut=   120.00 Ry     beta= 0.70
     Davidson diagonalization with overlap
     ethr =  1.40E-05,  avg # of iterations =  4.5

     negative rho (up, down):  9.060E-01 9.060E-01

     total cpu time spent up to now is      396.9 secs

     total energy              =   -2942.38710188 Ry
     estimated scf accuracy    <       0.00729103 Ry

     total magnetization       =    -0.01 Bohr mag/cell
     absolute magnetization    =     0.03 Bohr mag/cell

     iteration # 11     ecut=   120.00 Ry     beta= 0.70
     Davidson diagonalization with overlap
     ethr =  2.63E-06,  avg # of iterations =  7.5

     negative rho (up, down):  9.067E-01 9.067E-01

     total cpu time spent up to now is      434.0 secs

     total energy              =   -2942.38758316 Ry
     estimated scf accuracy    <       0.00140256 Ry

     total magnetization       =    -0.01 Bohr mag/cell
     absolute magnetization    =     0.02 Bohr mag/cell

     iteration # 12     ecut=   120.00 Ry     beta= 0.70
     Davidson diagonalization with overlap
     ethr =  5.06E-07,  avg # of iterations =  5.0

     negative rho (up, down):  9.066E-01 9.066E-01

     Magnetic moment per site  (integrated on atomic sphere of radius R)
     atom   1 (R=0.138)  charge=  9.2504   -0.0001
     atom   2 (R=0.138)  charge=  8.8873   -0.0003
     atom   3 (R=0.138)  charge=  8.8887    0.0001
     atom   4 (R=0.138)  charge=  8.8774   -0.0001
     atom   5 (R=0.138)  charge=  8.8931   -0.0003
     atom   6 (R=0.140)  charge= 10.3492   -0.0001
     atom   7 (R=0.140)  charge= 10.3514   -0.0001
     atom   8 (R=0.056)  charge=  1.3487   -0.0000
     atom   9 (R=0.056)  charge=  1.3650   -0.0000
     atom  10 (R=0.056)  charge=  1.3456   -0.0000
     atom  11 (R=0.056)  charge=  1.3451   -0.0000
     atom  12 (R=0.056)  charge=  1.3454    0.0000
     atom  13 (R=0.056)  charge=  1.3454    0.0000
     atom  14 (R=0.056)  charge=  1.3466   -0.0000
     atom  15 (R=0.056)  charge=  1.3467   -0.0000
     atom  16 (R=0.056)  charge=  1.3454   -0.0000
     atom  17 (R=0.056)  charge=  1.3464   -0.0000
     atom  18 (R=0.141)  charge=  9.4540   -0.0000
     atom  19 (R=0.141)  charge=  8.9978   -0.0004
     atom  20 (R=0.141)  charge=  8.9936   -0.0010
     atom  21 (R=0.141)  charge=  8.9997   -0.0003
     atom  22 (R=0.141)  charge=  8.9974   -0.0007
     atom  23 (R=0.056)  charge=  0.7704    0.0000

     total cpu time spent up to now is      471.4 secs

     End of self-consistent calculation

 ------ SPIN UP ------------


          k = 0.0000 0.0000 0.0000 ( 48454 PWs)   bands (ev):

   -57.8447 -57.8386 -57.7990 -57.7931 -57.7617 -57.7612 -57.7168 -57.7164
   -57.6189 -57.3946 -51.4145 -51.3627 -51.2872 -51.2300 -49.7042 -43.2457
   -43.2169 -38.6394 -38.6183 -38.5381 -38.5347 -36.8269 -25.9178 -24.8585
   -24.8547 -24.7719 -24.7696 -24.6546 -24.6485 -24.5350 -24.5227 -24.3916
   -24.3685 -24.3391 -24.3067 -24.3012 -24.2788 -24.2553 -24.2363 -24.1974
   -24.1912 -24.1505 -24.0315 -24.0189 -24.0171 -24.0155 -23.9660 -23.9560
   -23.9217 -23.9198 -23.6537 -23.6121 -21.1990 -20.9855 -20.6712 -20.5886
   -20.3334 -20.1917 -20.1528 -20.0585 -19.9554 -19.8671 -19.8635 -19.6418
   -19.4924 -19.4392 -19.3826 -19.3360 -19.2844 -19.2238 -18.7771 -18.7004
   -18.6352 -17.1901 -16.8777 -16.8601 -16.8286 -16.6277 -16.6175 -16.6066
   -16.6028 -16.5700 -16.5377 -16.3226 -16.3002 -15.1930 -14.9650 -14.8371
     4.1468   5.1005   5.8003   6.1392   6.2510   6.4142   6.5193   6.5967
     6.5989   6.8284   6.9371   7.1130   7.2184   7.3947   7.4339   7.5840
     7.6668   7.7734   7.9500   8.0242   8.0711   8.1599   8.2273   8.2562
     8.3700   8.4680   8.5502   8.6249   8.6720   8.7040   8.7679   8.7793
     8.8497   9.0107   9.0580   9.1596   9.1847   9.2584   9.3032   9.3154
     9.3729   9.4915   9.6411   9.7574   9.7996   9.9523   9.9753  10.0894
    10.1599  10.1802  10.2855  10.3529  10.3966  10.4273  10.5448  10.5957
    10.7077  10.7644  10.9096  10.9215  11.0166  11.0305  11.1386  11.2227
    11.2630  11.3571  11.3934  11.5813  11.6789  11.7557  11.7999  11.8245
    11.9995  12.1170  12.1747  12.1897  12.1916  12.2111  12.2305

 ------ SPIN DOWN ----------


          k = 0.0000 0.0000 0.0000 ( 48454 PWs)   bands (ev):

   -57.8447 -57.8388 -57.7990 -57.7932 -57.7618 -57.7613 -57.7168 -57.7164
   -57.6190 -57.3947 -51.4146 -51.3629 -51.2873 -51.2302 -49.7043 -43.2457
   -43.2171 -38.6397 -38.6190 -38.5384 -38.5355 -36.8269 -25.9179 -24.8586
   -24.8549 -24.7720 -24.7696 -24.6547 -24.6488 -24.5351 -24.5228 -24.3918
   -24.3686 -24.3392 -24.3067 -24.3014 -24.2789 -24.2553 -24.2363 -24.1975
   -24.1912 -24.1507 -24.0315 -24.0191 -24.0173 -24.0157 -23.9660 -23.9561
   -23.9218 -23.9199 -23.6538 -23.6123 -21.1993 -20.9859 -20.6714 -20.5888
   -20.3337 -20.1919 -20.1531 -20.0588 -19.9556 -19.8673 -19.8637 -19.6420
   -19.4926 -19.4393 -19.3828 -19.3361 -19.2846 -19.2239 -18.7773 -18.7005
   -18.6353 -17.1905 -16.8791 -16.8603 -16.8289 -16.6279 -16.6179 -16.6070
   -16.6032 -16.5709 -16.5384 -16.3231 -16.3014 -15.1929 -14.9650 -14.8372
     4.1466   5.1004   5.8000   6.1391   6.2508   6.4140   6.5190   6.5965
     6.5986   6.8282   6.9369   7.1127   7.2181   7.3944   7.4336   7.5837
     7.6665   7.7730   7.9497   8.0240   8.0709   8.1596   8.2269   8.2558
     8.3697   8.4677   8.5496   8.6242   8.6717   8.7039   8.7677   8.7790
     8.8494   9.0105   9.0577   9.1594   9.1844   9.2581   9.3029   9.3152
     9.3726   9.4912   9.6408   9.7570   9.7993   9.9518   9.9751  10.0888
    10.1593  10.1799  10.2841  10.3513  10.3963  10.4267  10.5446  10.5951
    10.7073  10.7640  10.9092  10.9211  11.0161  11.0302  11.1382  11.2224
    11.2626  11.3568  11.3932  11.5807  11.6786  11.7551  11.7991  11.8237
    11.9991  12.1166  12.1744  12.1895  12.1912  12.2101  12.2313

     the Fermi energy is    10.2691 ev

!    total energy              =   -2942.38770358 Ry
     estimated scf accuracy    <       0.00025773 Ry
     smearing contrib. (-TS)   =      -0.09679671 Ry
     internal energy E=F+TS    =   -2942.29090687 Ry

     total magnetization       =    -0.01 Bohr mag/cell
     absolute magnetization    =     0.02 Bohr mag/cell

     convergence has been achieved in  12 iterations

     negative rho (up, down):  9.066E-01 9.066E-01

     Forces acting on atoms (cartesian axes, Ry/au):

     atom    1 type  1   force =     0.00346549   -0.01605218    0.00608249
     atom    2 type  1   force =    -0.13244122   -0.01915095   -0.00276090
     atom    3 type  1   force =    -0.12801544    0.01657250    0.00578920
     atom    4 type  1   force =     0.13316157    0.00705029   -0.00235144
     atom    5 type  1   force =     0.14973331    0.01767872    0.00584917
     atom    6 type  2   force =     0.00106623   -0.01617229    0.00284041
     atom    7 type  2   force =     0.00634484    0.01725174    0.00419434
     atom    8 type  3   force =    -0.14760765   -0.00505122   -0.00208899
     atom    9 type  3   force =    -1.41875821    1.58154393   -0.01927348
     atom   10 type  3   force =    -0.03159966   -0.01898873   -0.06092210
     atom   11 type  3   force =    -0.03422233   -0.02688449    0.06068983
     atom   12 type  3   force =    -0.03135904    0.02669024   -0.06143545
     atom   13 type  3   force =    -0.03167253    0.01713218    0.06377303
     atom   14 type  3   force =     0.02906752   -0.02177856   -0.05837870
     atom   15 type  3   force =     0.03143009   -0.02911609    0.05612059
     atom   16 type  3   force =     0.02104185    0.02616287   -0.05714226
     atom   17 type  3   force =     0.02187877    0.02049833    0.05915913
     atom   18 type  4   force =     0.01330148    0.01233302   -0.01443977
     atom   19 type  4   force =    -0.15105316   -0.00328454   -0.12008562
     atom   20 type  4   force =    -0.15555683    0.00660445    0.12219629
     atom   21 type  4   force =     0.14280681   -0.00172540   -0.11769416
     atom   22 type  4   force =     0.14706693    0.01047292    0.12127602
     atom   23 type  5   force =     1.56192118   -1.60178673    0.00860237
     The non-local contrib.  to forces
     atom    1 type  1   force =     0.00760428   -0.00150296    0.02687399
     atom    2 type  1   force =    -0.24589284   -0.16645753    0.01510496
     atom    3 type  1   force =    -0.24458348    0.16228961   -0.02767548
     atom    4 type  1   force =     0.23815350   -0.15049848    0.01639345
     atom    5 type  1   force =     0.24821754    0.16139865   -0.02895962
     atom    6 type  2   force =    -0.00120055   -0.07756038   -0.04941172
     atom    7 type  2   force =     0.00022697    0.07972047    0.06068701
     atom    8 type  3   force =    -0.26151226    0.00130674   -0.00439636
     atom    9 type  3   force =     0.82800418   -0.58647178   -0.01343729
     atom   10 type  3   force =    -0.24012390    0.00316473   -0.22473077
     atom   11 type  3   force =    -0.24504947    0.00991393    0.21411494
     atom   12 type  3   force =    -0.23098562   -0.01910689   -0.19978297
     atom   13 type  3   force =    -0.24222795   -0.00511398    0.22541509
     atom   14 type  3   force =     0.23724538    0.00910534   -0.22105518
     atom   15 type  3   force =     0.24390730    0.01292689    0.21186052
     atom   16 type  3   force =     0.21930917   -0.02437601   -0.19584859
     atom   17 type  3   force =     0.22681789   -0.00801755    0.22019737
     atom   18 type  4   force =    -0.00378521    0.07294014   -0.06390824
     atom   19 type  4   force =     0.07899959    0.00135680    0.05404559
     atom   20 type  4   force =     0.07399892   -0.00526473   -0.04888806
     atom   21 type  4   force =    -0.06880768   -0.00088714    0.04374028
     atom   22 type  4   force =    -0.06480947   -0.00191185   -0.04207303
     atom   23 type  5   force =    -0.13962323    0.14124484    0.00160999
     The ionic contribution  to forces
     atom    1 type  1   force =    -0.51210410   -4.84204700   15.25234050
     atom    2 type  1   force =   -27.84079968   -6.39556453    0.78084490
     atom    3 type  1   force =   -27.82605072    6.23533815   -0.71419672
     atom    4 type  1   force =    27.52856526   -7.11081915    0.77656121
     atom    5 type  1   force =    27.74496187    6.35201957   -0.71330520
     atom    6 type  2   force =    -0.53835609   -3.81581866  -15.25044625
     atom    7 type  2   force =    -0.23102061    3.90723370   15.03737360
     atom    8 type  3   force =   -38.67455758    0.22247588   -0.06740088
     atom    9 type  3   force =    33.57359021    5.18902633   -0.07479722
     atom   10 type  3   force =   -24.85505597   -2.19446394  -24.67216340
     atom   11 type  3   force =   -23.92759428   -0.92797171   23.66770626
     atom   12 type  3   force =   -24.04632196    0.80806101  -23.66633401
     atom   13 type  3   force =   -24.83071075    2.21611215   24.60580741
     atom   14 type  3   force =    24.77914565   -2.29457460  -24.80787014
     atom   15 type  3   force =    23.85304129   -1.02712800   23.80222493
     atom   16 type  3   force =    24.00894951    0.83721673  -23.71614237
     atom   17 type  3   force =    24.79270993    2.24605474   24.65608704
     atom   18 type  4   force =    -0.21683330    4.66487366  -14.88387061
     atom   19 type  4   force =   -25.11154377    1.02669126  -27.15165459
     atom   20 type  4   force =   -25.06771780   -0.91598117   27.13003186
     atom   21 type  4   force =    24.99212119    1.09559435  -27.45526413
     atom   22 type  4   force =    24.95066712   -0.84497567   27.42949370
     atom   23 type  5   force =     7.45491459   -4.43135309    0.03497412
     The local contribution  to forces
     atom    1 type  1   force =     0.50797209    4.83050895  -15.27409145
     atom    2 type  1   force =    27.96272110    6.54628353   -0.80306753
     atom    3 type  1   force =    27.95276495   -6.38698169    0.74827992
     atom    4 type  1   force =   -27.63574756    7.27451180   -0.79902372
     atom    5 type  1   force =   -27.85423990   -6.49977153    0.75044493
     atom    6 type  2   force =     0.54010476    3.88744443   15.28826434
     atom    7 type  2   force =     0.23752039   -3.97264857  -15.08377922
     atom    8 type  3   force =    38.81241667   -0.22631967    0.06311958
     atom    9 type  3   force =   -35.86163238   -2.99538602    0.06512113
     atom   10 type  3   force =    25.08939402    2.17082832   24.84647520
     atom   11 type  3   force =    24.16452139    0.88252451  -23.83169507
     atom   12 type  3   force =    24.27358807   -0.76171902   23.81074952
     atom   13 type  3   force =    25.06956025   -2.19653362  -24.77455377
     atom   14 type  3   force =   -25.01206117    2.26498770   24.98066046
     atom   15 type  3   force =   -24.08852516    0.97710321  -23.96795614
     atom   16 type  3   force =   -24.23369912   -0.78734675   23.86069779
     atom   17 type  3   force =   -25.02231208   -2.22015964  -24.82429093
     atom   18 type  4   force =     0.23197701   -4.73332864   14.91852267
     atom   19 type  4   force =    24.89676527   -1.03037165   26.97905928
     atom   20 type  4   force =    24.85139249    0.93405642  -26.95718446
     atom   21 type  4   force =   -24.79428902   -1.09537471   27.29289845
     atom   22 type  4   force =   -24.74979279    0.86418408  -27.26216039
     atom   23 type  5   force =    -5.75237734    2.68836923   -0.02860217
     The core correction contribution to forces
     atom    1 type  1   force =     0.00092471    0.00542340    0.00161215
     atom    2 type  1   force =    -0.01116440   -0.00175139    0.00095039
     atom    3 type  1   force =    -0.01133530    0.00240333   -0.00168563
     atom    4 type  1   force =     0.00616062   -0.00482555    0.00129597
     atom    5 type  1   force =     0.01235649    0.00271340   -0.00220837
     atom    6 type  2   force =     0.00027740    0.00388533    0.00206067
     atom    7 type  2   force =     0.00046738   -0.00428400   -0.00270435
     atom    8 type  3   force =    -0.03097126   -0.00039864   -0.00003414
     atom    9 type  3   force =     0.04767939   -0.02390314   -0.00202436
     atom   10 type  3   force =    -0.02589970    0.00589414   -0.01641021
     atom   11 type  3   force =    -0.02720685    0.00760205    0.01663091
     atom   12 type  3   force =    -0.02591857   -0.00675363   -0.01545568
     atom   13 type  3   force =    -0.02639581   -0.00517491    0.01675308
     atom   14 type  3   force =     0.02523099    0.00522591   -0.01542187
     atom   15 type  3   force =     0.02652785    0.00694683    0.01573364
     atom   16 type  3   force =     0.02524734   -0.00723683   -0.01629394
     atom   17 type  3   force =     0.02528425   -0.00554116    0.01708557
     atom   18 type  4   force =     0.00066493   -0.00460227    0.00351517
     atom   19 type  4   force =    -0.01055489    0.00053954   -0.00852543
     atom   20 type  4   force =    -0.01034387   -0.00006515    0.00836561
     atom   21 type  4   force =     0.00990799    0.00080633   -0.00772293
     atom   22 type  4   force =     0.00979740   -0.00016549    0.00784581
     atom   23 type  5   force =     0.00000000    0.00000000    0.00000000
     The Hubbard contrib.    to forces
     atom    1 type  1   force =     0.00000000    0.00000000    0.00000000
     atom    2 type  1   force =     0.00000000    0.00000000    0.00000000
     atom    3 type  1   force =     0.00000000    0.00000000    0.00000000
     atom    4 type  1   force =     0.00000000    0.00000000    0.00000000
     atom    5 type  1   force =     0.00000000    0.00000000    0.00000000
     atom    6 type  2   force =     0.00000000    0.00000000    0.00000000
     atom    7 type  2   force =     0.00000000    0.00000000    0.00000000
     atom    8 type  3   force =     0.00000000    0.00000000    0.00000000
     atom    9 type  3   force =     0.00000000    0.00000000    0.00000000
     atom   10 type  3   force =     0.00000000    0.00000000    0.00000000
     atom   11 type  3   force =     0.00000000    0.00000000    0.00000000
     atom   12 type  3   force =     0.00000000    0.00000000    0.00000000
     atom   13 type  3   force =     0.00000000    0.00000000    0.00000000
     atom   14 type  3   force =     0.00000000    0.00000000    0.00000000
     atom   15 type  3   force =     0.00000000    0.00000000    0.00000000
     atom   16 type  3   force =     0.00000000    0.00000000    0.00000000
     atom   17 type  3   force =     0.00000000    0.00000000    0.00000000
     atom   18 type  4   force =     0.00000000    0.00000000    0.00000000
     atom   19 type  4   force =     0.00000000    0.00000000    0.00000000
     atom   20 type  4   force =     0.00000000    0.00000000    0.00000000
     atom   21 type  4   force =     0.00000000    0.00000000    0.00000000
     atom   22 type  4   force =     0.00000000    0.00000000    0.00000000
     atom   23 type  5   force =     0.00000000    0.00000000    0.00000000
     The SCF correction term to forces
     atom    1 type  1   force =    -0.00000000   -0.00000000   -0.00000000
     atom    2 type  1   force =     0.00000000   -0.00000000    0.00000000
     atom    3 type  1   force =     0.00000000    0.00000000    0.00000000
     atom    4 type  1   force =    -0.00000000   -0.00000000    0.00000000
     atom    5 type  1   force =    -0.00000000    0.00000000   -0.00000000
     atom    6 type  2   force =     0.00000000   -0.00000000    0.00000000
     atom    7 type  2   force =    -0.00000000    0.00000000   -0.00000000
     atom    8 type  3   force =     0.00000000   -0.00000000    0.00000000
     atom    9 type  3   force =    -0.00000000   -0.00000000    0.00000000
     atom   10 type  3   force =     0.00015590   -0.00441365    0.00570861
     atom   11 type  3   force =     0.00117689    0.00104504   -0.00626568
     atom   12 type  3   force =    -0.00165095    0.00620709    0.00918922
     atom   13 type  3   force =    -0.00182826    0.00784085   -0.00984723
     atom   14 type  3   force =    -0.00042333   -0.00652458    0.00510957
     atom   15 type  3   force =    -0.00345117    0.00103331   -0.00594082
     atom   16 type  3   force =     0.00130494    0.00790406    0.01024640
     atom   17 type  3   force =    -0.00055122    0.00816027   -0.01011837
     atom   18 type  4   force =     0.00134806    0.01244846    0.01110277
     atom   19 type  4   force =    -0.00464936   -0.00150217    0.00679107
     atom   20 type  4   force =    -0.00281658   -0.00614261   -0.01032713
     atom   21 type  4   force =     0.00394433   -0.00186590    0.00845571
     atom   22 type  4   force =     0.00127467   -0.00665984   -0.01202853
     atom   23 type  5   force =    -0.00092284   -0.00004938    0.00042195

     Total force =     2.278822     Total SCF correction =     0.040268

     Molecular Dynamics Calculation

     Starting temperature  =   300.00 K

     temperature is set once at start

     mass Hf               =   178.49
     mass Nb               =    92.91
     mass Ta               =   180.95
     mass Zr               =    91.22
     mass H                =     2.01
     Time step             =     4.20 a.u.,  0.2032 femto-seconds

     Entering Dynamics:    iteration =     1
                           time      =   0.0002 pico-seconds


ATOMIC_POSITIONS (angstrom)
Hf            2.6699999570        2.8271230292        6.6039642186    0   0   0
Hf            1.2529906802        1.2862841814        5.0584662261    0   0   0
Hf            1.2554868986        7.3898042948        5.0880677674    0   0   0
Hf            4.0870092338        1.2862841814        5.0584662261    0   0   0
Hf            4.0845130154        7.3898042948        5.0880677674    0   0   0
Nb            2.6699999570        2.7969306055        3.5155832167    0   0   0
Nb            2.6699999570        5.8763786763        6.6349979432    0   0   0
Ta            1.2093730560        4.3409278516        5.0711258323    0   0   0
Ta            4.1306268580        4.3409278516        5.0711258323    0   0   0
Ta            1.3072517898        1.3141220520        2.0587773860
Ta            1.3027873457        1.3083903752        8.0945809199
Ta            1.3040087346        7.3758268794        2.0462354412
Ta            1.3077099021        7.3650834332        8.0860040256
Ta            4.0327480525        1.3141219731        2.0587774580
Ta            4.0372124893        1.3083903120        8.0945807906
Ta            4.0359908874        7.3758268645        2.0462355627
Ta            4.0322897348        7.3650835285        8.0860038950
Zr            2.6700007037        5.8662865357        3.5273831198
Zr            1.2438261397        4.3220777801        1.9999932590
Zr            1.2403766806        4.3541236552        8.1497624087
Zr            4.0961733114        4.3220778676        1.9999933933
Zr            4.0996227568        4.3541238724        8.1497623571
H             4.7713836980        3.5584991451        5.0722016673


     kinetic energy (Ekin) =           1.83764883 Ry
     temperature           =       13816.27629488 K 
     Ekin + Etot (const)   =       -2940.55005475 Ry

     File outdir/pwscf.msd.dat deleted, as requested

     Writing config-only to output data dir outdir/pwscf.save/
     NEW-OLD atomic charge density approx. for the potential

     Check: negative core charge=   -0.000002

     negative rho (up, down):  9.066E-01 9.066E-01
     Generating pointlists ...
     new r_m :   0.1334 (alat units)  1.8498 (a.u.) for type    1

     total cpu time spent up to now is      492.5 secs

     Self-consistent Calculation

     iteration #  1     ecut=   120.00 Ry     beta= 0.70
     Davidson diagonalization with overlap
     ethr =  1.00E-06,  avg # of iterations = 10.5

     negative rho (up, down):  9.067E-01 9.067E-01

     total cpu time spent up to now is      559.3 secs

     total energy              =   -2942.43267579 Ry
     estimated scf accuracy    <       0.03096382 Ry

     total magnetization       =    -0.01 Bohr mag/cell
     absolute magnetization    =     0.01 Bohr mag/cell

     iteration #  2     ecut=   120.00 Ry     beta= 0.70
     Davidson diagonalization with overlap
     ethr =  1.12E-05,  avg # of iterations =  2.0

     negative rho (up, down):  9.066E-01 9.066E-01

     total cpu time spent up to now is      592.5 secs

     total energy              =   -2942.43438062 Ry
     estimated scf accuracy    <       0.00500791 Ry

     total magnetization       =    -0.01 Bohr mag/cell
     absolute magnetization    =     0.01 Bohr mag/cell

     iteration #  3     ecut=   120.00 Ry     beta= 0.70
     Davidson diagonalization with overlap
     ethr =  1.81E-06,  avg # of iterations =  2.0

     negative rho (up, down):  9.066E-01 9.066E-01

     Magnetic moment per site  (integrated on atomic sphere of radius R)
     atom   1 (R=0.133)  charge=  8.9571   -0.0001
     atom   2 (R=0.133)  charge=  8.6452   -0.0001
     atom   3 (R=0.133)  charge=  8.6468   -0.0000
     atom   4 (R=0.133)  charge=  8.6334   -0.0000
     atom   5 (R=0.133)  charge=  8.6512   -0.0001
     atom   6 (R=0.140)  charge= 10.3487   -0.0000
     atom   7 (R=0.140)  charge= 10.3529    0.0000
     atom   8 (R=0.056)  charge=  1.3483    0.0000
     atom   9 (R=0.056)  charge=  1.3647   -0.0000
     atom  10 (R=0.056)  charge=  1.3456   -0.0000
     atom  11 (R=0.056)  charge=  1.3455   -0.0000
     atom  12 (R=0.056)  charge=  1.3453    0.0000
     atom  13 (R=0.056)  charge=  1.3457    0.0000
     atom  14 (R=0.056)  charge=  1.3466   -0.0000
     atom  15 (R=0.056)  charge=  1.3470   -0.0000
     atom  16 (R=0.056)  charge=  1.3454   -0.0000
     atom  17 (R=0.056)  charge=  1.3466   -0.0000
     atom  18 (R=0.141)  charge=  9.4526   -0.0001
     atom  19 (R=0.141)  charge=  8.9913   -0.0003
     atom  20 (R=0.141)  charge=  8.9930   -0.0007
     atom  21 (R=0.141)  charge=  8.9925   -0.0004
     atom  22 (R=0.141)  charge=  8.9967   -0.0007
     atom  23 (R=0.056)  charge=  0.7557    0.0000

     total cpu time spent up to now is      626.6 secs

     End of self-consistent calculation

 ------ SPIN UP ------------


          k = 0.0000 0.0000 0.0000 ( 48454 PWs)   bands (ev):

   -57.8556 -57.8420 -57.8105 -57.7971 -57.7769 -57.7638 -57.7331 -57.7195
   -57.5989 -57.3717 -51.4040 -51.3491 -51.2755 -51.2086 -49.7013 -43.2529
   -43.2213 -38.6383 -38.6276 -38.5441 -38.5371 -36.8233 -25.8301 -24.8727
   -24.8587 -24.7848 -24.7758 -24.6646 -24.6519 -24.5502 -24.5238 -24.3932
   -24.3758 -24.3339 -24.3156 -24.3065 -24.2812 -24.2633 -24.2360 -24.2073
   -24.1971 -24.1345 -24.0461 -24.0302 -24.0208 -24.0185 -23.9812 -23.9597
   -23.9374 -23.9215 -23.6635 -23.6212 -21.1900 -20.9734 -20.6651 -20.5806
   -20.3268 -20.1873 -20.1430 -20.0500 -19.9467 -19.8553 -19.8537 -19.6314
   -19.4967 -19.4437 -19.3822 -19.3364 -19.2829 -19.2220 -18.7751 -18.6981
   -18.6358 -17.1865 -16.8865 -16.8576 -16.8265 -16.6281 -16.6269 -16.6161
   -16.6053 -16.5765 -16.5438 -16.3200 -16.3093 -15.1890 -14.9623 -14.8332
     4.0941   5.0338   5.7938   6.1367   6.2541   6.4212   6.5159   6.5905
     6.5946   6.8288   6.9299   7.1095   7.2168   7.4084   7.4251   7.5796
     7.6697   7.7898   7.9534   8.0199   8.0728   8.1511   8.2197   8.2534
     8.3694   8.4660   8.5478   8.6211   8.6645   8.6873   8.7591   8.7858
     8.8446   9.0061   9.0483   9.1508   9.1814   9.2550   9.3047   9.3121
     9.3707   9.4946   9.6538   9.7503   9.7926   9.9514   9.9641  10.0905
    10.1570  10.1742  10.2849  10.3528  10.3924  10.4211  10.5406  10.5911
    10.7081  10.7599  10.9082  10.9206  11.0156  11.0341  11.1354  11.2174
    11.2616  11.3694  11.3930  11.5783  11.6833  11.7623  11.7985  11.8217
    11.9971  12.1020  12.1582  12.1844  12.1896  12.2070  12.2319

 ------ SPIN DOWN ----------


          k = 0.0000 0.0000 0.0000 ( 48454 PWs)   bands (ev):

   -57.8557 -57.8421 -57.8105 -57.7972 -57.7770 -57.7638 -57.7332 -57.7195
   -57.5990 -57.3718 -51.4040 -51.3491 -51.2755 -51.2086 -49.7014 -43.2529
   -43.2213 -38.6385 -38.6282 -38.5448 -38.5374 -36.8233 -25.8301 -24.8727
   -24.8588 -24.7848 -24.7759 -24.6647 -24.6520 -24.5503 -24.5240 -24.3933
   -24.3759 -24.3339 -24.3157 -24.3066 -24.2813 -24.2633 -24.2361 -24.2074
   -24.1972 -24.1346 -24.0462 -24.0303 -24.0209 -24.0186 -23.9812 -23.9597
   -23.9376 -23.9216 -23.6636 -23.6213 -21.1901 -20.9734 -20.6652 -20.5807
   -20.3269 -20.1873 -20.1431 -20.0501 -19.9468 -19.8553 -19.8537 -19.6314
   -19.4968 -19.4438 -19.3823 -19.3365 -19.2830 -19.2220 -18.7752 -18.6981
   -18.6359 -17.1868 -16.8876 -16.8579 -16.8269 -16.6284 -16.6273 -16.6166
   -16.6056 -16.5772 -16.5444 -16.3204 -16.3102 -15.1891 -14.9624 -14.8333
     4.0940   5.0337   5.7937   6.1366   6.2540   6.4211   6.5158   6.5904
     6.5945   6.8286   6.9298   7.1093   7.2165   7.4082   7.4250   7.5794
     7.6695   7.7895   7.9531   8.0197   8.0727   8.1509   8.2195   8.2532
     8.3692   8.4657   8.5474   8.6207   8.6643   8.6871   8.7589   8.7856
     8.8444   9.0060   9.0481   9.1507   9.1812   9.2548   9.3046   9.3120
     9.3704   9.4943   9.6536   9.7500   9.7925   9.9511   9.9639  10.0901
    10.1566  10.1740  10.2838  10.3516  10.3921  10.4208  10.5404  10.5907
    10.7079  10.7595  10.9077  10.9203  11.0153  11.0339  11.1352  11.2173
    11.2612  11.3691  11.3929  11.5780  11.6831  11.7619  11.7982  11.8212
    11.9969  12.1019  12.1580  12.1842  12.1893  12.2065  12.2316

     the Fermi energy is    10.2660 ev

!    total energy              =   -2942.43415866 Ry
     estimated scf accuracy    <       0.00096995 Ry
     smearing contrib. (-TS)   =      -0.09675079 Ry
     internal energy E=F+TS    =   -2942.33740787 Ry

     total magnetization       =    -0.01 Bohr mag/cell
     absolute magnetization    =     0.01 Bohr mag/cell

     convergence has been achieved in   3 iterations

     negative rho (up, down):  9.066E-01 9.066E-01

     Forces acting on atoms (cartesian axes, Ry/au):

     atom    1 type  1   force =     0.00204169   -0.02450502    0.01071534
     atom    2 type  1   force =    -0.13167651   -0.02493129    0.00562162
     atom    3 type  1   force =    -0.12759628    0.02471519    0.01226148
     atom    4 type  1   force =     0.12857459    0.00975363    0.00499116
     atom    5 type  1   force =     0.15355833    0.02371118    0.01182407
     atom    6 type  2   force =    -0.00045003   -0.01636992    0.00177150
     atom    7 type  2   force =     0.00662079    0.01944638    0.00116620
     atom    8 type  3   force =    -0.14366320   -0.00474885    0.00072185
     atom    9 type  3   force =    -1.20560861    1.61952528   -0.01430389
     atom   10 type  3   force =    -0.03068663   -0.02247466   -0.06222212
     atom   11 type  3   force =    -0.03117815   -0.02960151    0.05588611
     atom   12 type  3   force =    -0.03315358    0.03056340   -0.06121220
     atom   13 type  3   force =    -0.03277740    0.02325821    0.05812717
     atom   14 type  3   force =     0.03019077   -0.02535465   -0.06027875
     atom   15 type  3   force =     0.02960078   -0.03087332    0.05188883
     atom   16 type  3   force =     0.02284872    0.03192499   -0.05775637
     atom   17 type  3   force =     0.02148612    0.02685955    0.05409206
     atom   18 type  4   force =     0.01331462    0.01878421   -0.01166721
     atom   19 type  4   force =    -0.15180495   -0.00404586   -0.11950724
     atom   20 type  4   force =    -0.15546516    0.00462869    0.11563398
     atom   21 type  4   force =     0.14414331   -0.00282265   -0.11669158
     atom   22 type  4   force =     0.14710949    0.00711697    0.11362656
     atom   23 type  5   force =     1.34457129   -1.65455995    0.00531141
     The non-local contrib.  to forces
     atom    1 type  1   force =     0.00573701   -0.00592997    0.03214285
     atom    2 type  1   force =    -0.24691593   -0.16926162    0.02000431
     atom    3 type  1   force =    -0.24592048    0.16628178   -0.02375292
     atom    4 type  1   force =     0.23518915   -0.14292342    0.02036445
     atom    5 type  1   force =     0.25049740    0.16162794   -0.02560366
     atom    6 type  2   force =     0.00160558   -0.07801317   -0.05023230
     atom    7 type  2   force =    -0.00009722    0.07885184    0.05854821
     atom    8 type  3   force =    -0.26113506    0.00014972    0.00024191
     atom    9 type  3   force =     0.72712393   -0.64190610   -0.00786002
     atom   10 type  3   force =    -0.24008219    0.00242237   -0.22536397
     atom   11 type  3   force =    -0.24292934    0.00941246    0.21202342
     atom   12 type  3   force =    -0.23281089   -0.01864932   -0.19737542
     atom   13 type  3   force =    -0.24250573   -0.00221935    0.22069750
     atom   14 type  3   force =     0.23815896    0.00749935   -0.22119416
     atom   15 type  3   force =     0.24205957    0.01224144    0.20911676
     atom   16 type  3   force =     0.22179071   -0.02116012   -0.19446257
     atom   17 type  3   force =     0.22731292   -0.00333312    0.21727113
     atom   18 type  4   force =    -0.00485989    0.07508163   -0.05688129
     atom   19 type  4   force =     0.07698846    0.00070388    0.05627006
     atom   20 type  4   force =     0.07263095   -0.00657354   -0.05303254
     atom   21 type  4   force =    -0.06775223   -0.00191451    0.04652214
     atom   22 type  4   force =    -0.06486232   -0.00426221   -0.04646130
     atom   23 type  5   force =    -0.12086549    0.15546610    0.00112890
     The ionic contribution  to forces
     atom    1 type  1   force =    -0.55142718   -4.83807817   15.29032067
     atom    2 type  1   force =   -27.85679997   -6.40042084    0.78078508
     atom    3 type  1   force =   -27.83143032    6.22553844   -0.71421379
     atom    4 type  1   force =    27.51867376   -7.20335223    0.77583182
     atom    5 type  1   force =    27.75308537    6.32800521   -0.71335004
     atom    6 type  2   force =    -0.57963663   -3.81233896  -15.29097252
     atom    7 type  2   force =    -0.22515947    3.91044761   15.03465480
     atom    8 type  3   force =   -38.71036540    0.23635724   -0.06741017
     atom    9 type  3   force =    34.19513674    5.54805368   -0.07470980
     atom   10 type  3   force =   -24.86036645   -2.19579649  -24.67614098
     atom   11 type  3   force =   -23.93284925   -0.92930602   23.67164659
     atom   12 type  3   force =   -24.04875810    0.80300956  -23.66524370
     atom   13 type  3   force =   -24.83315135    2.21105667   24.60469375
     atom   14 type  3   force =    24.78081847   -2.30098100  -24.82240216
     atom   15 type  3   force =    23.85473344   -1.03349162   23.81660848
     atom   16 type  3   force =    24.01175695    0.82894564  -23.71420067
     atom   17 type  3   force =    24.79554248    2.23775139   24.65407814
     atom   18 type  4   force =    -0.21133287    4.66799953  -14.88137848
     atom   19 type  4   force =   -25.11867381    1.03169700  -27.15011466
     atom   20 type  4   force =   -25.07476845   -0.91106745   27.12840255
     atom   21 type  4   force =    25.00185409    1.10795129  -27.45354494
     atom   22 type  4   force =    24.96035172   -0.83289992   27.42738492
     atom   23 type  5   force =     6.96276622   -4.67908055    0.03927510
     The local contribution  to forces
     atom    1 type  1   force =     0.55027149    4.79624280  -15.29313134
     atom    2 type  1   force =    27.98106409    6.53456125   -0.77010267
     atom    3 type  1   force =    27.95854967   -6.35330433    0.77573097
     atom    4 type  1   force =   -27.62684575    7.35743941   -0.76774534
     atom    5 type  1   force =   -27.86111176   -6.45338322    0.77531997
     atom    6 type  2   force =     0.58172472    3.85206838   15.36616035
     atom    7 type  2   force =     0.23191574   -3.95241355  -15.06868554
     atom    8 type  3   force =    38.86327498   -0.24487388    0.09857578
     atom    9 type  3   force =   -36.19225931   -3.27892495    0.10053615
     atom   10 type  3   force =    25.09120498    2.14758474   24.85436167
     atom   11 type  3   force =    24.17465921    0.86243363  -23.85270009
     atom   12 type  3   force =    24.26830607   -0.72346129   23.81806258
     atom   13 type  3   force =    25.06854233   -2.14778132  -24.79451494
     atom   14 type  3   force =   -25.01048414    2.24542587   24.99772928
     atom   15 type  3   force =   -24.09945574    0.96701588  -23.99733369
     atom   16 type  3   force =   -24.23183830   -0.74532907   23.86955428
     atom   17 type  3   force =   -25.03066300   -2.17206679  -24.84551482
     atom   18 type  4   force =     0.23032372   -4.70747006   14.94482388
     atom   19 type  4   force =    24.89348243   -1.04240436   26.98420223
     atom   20 type  4   force =    24.85594674    0.91351030  -26.98104416
     atom   21 type  4   force =   -24.79376360   -1.11501466   27.30254371
     atom   22 type  4   force =   -24.75830133    0.83438668  -27.29158807
     atom   23 type  5   force =    -5.50169796    2.86461624   -0.03118797
     The core correction contribution to forces
     atom    1 type  1   force =     0.00045275    0.00554103    0.00142051
     atom    2 type  1   force =    -0.01115019   -0.00207643    0.00101115
     atom    3 type  1   force =    -0.01144833    0.00249342   -0.00177607
     atom    4 type  1   force =     0.00497929   -0.00547702    0.00126299
     atom    5 type  1   force =     0.01290895    0.00259787   -0.00236961
     atom    6 type  2   force =     0.00010867    0.00385480    0.00205405
     atom    7 type  2   force =     0.00046203   -0.00417214   -0.00261018
     atom    8 type  3   force =    -0.03082067   -0.00044060    0.00000634
     atom    9 type  3   force =     0.04113876   -0.02623006   -0.00164411
     atom   10 type  3   force =    -0.02576081    0.00604266   -0.01645723
     atom   11 type  3   force =    -0.02693639    0.00768411    0.01647276
     atom   12 type  3   force =    -0.02609529   -0.00700262   -0.01531048
     atom   13 type  3   force =    -0.02641299   -0.00551291    0.01642331
     atom   14 type  3   force =     0.02536911    0.00534372   -0.01539387
     atom   15 type  3   force =     0.02652411    0.00701889    0.01550861
     atom   16 type  3   force =     0.02530288   -0.00733072   -0.01632693
     atom   17 type  3   force =     0.02524074   -0.00562643    0.01708802
     atom   18 type  4   force =     0.00074411   -0.00443536    0.00330960
     atom   19 type  4   force =    -0.01047367    0.00052561   -0.00858071
     atom   20 type  4   force =    -0.01030929   -0.00009892    0.00840984
     atom   21 type  4   force =     0.00988978    0.00079970   -0.00777994
     atom   22 type  4   force =     0.00983215   -0.00016509    0.00786836
     atom   23 type  5   force =     0.00000000    0.00000000    0.00000000
     The Hubbard contrib.    to forces
     atom    1 type  1   force =     0.00000000    0.00000000    0.00000000
     atom    2 type  1   force =     0.00000000    0.00000000    0.00000000
     atom    3 type  1   force =     0.00000000    0.00000000    0.00000000
     atom    4 type  1   force =     0.00000000    0.00000000    0.00000000
     atom    5 type  1   force =     0.00000000    0.00000000    0.00000000
     atom    6 type  2   force =     0.00000000    0.00000000    0.00000000
     atom    7 type  2   force =     0.00000000    0.00000000    0.00000000
     atom    8 type  3   force =     0.00000000    0.00000000    0.00000000
     atom    9 type  3   force =     0.00000000    0.00000000    0.00000000
     atom   10 type  3   force =     0.00000000    0.00000000    0.00000000
     atom   11 type  3   force =     0.00000000    0.00000000    0.00000000
     atom   12 type  3   force =     0.00000000    0.00000000    0.00000000
     atom   13 type  3   force =     0.00000000    0.00000000    0.00000000
     atom   14 type  3   force =     0.00000000    0.00000000    0.00000000
     atom   15 type  3   force =     0.00000000    0.00000000    0.00000000
     atom   16 type  3   force =     0.00000000    0.00000000    0.00000000
     atom   17 type  3   force =     0.00000000    0.00000000    0.00000000
     atom   18 type  4   force =     0.00000000    0.00000000    0.00000000
     atom   19 type  4   force =     0.00000000    0.00000000    0.00000000
     atom   20 type  4   force =     0.00000000    0.00000000    0.00000000
     atom   21 type  4   force =     0.00000000    0.00000000    0.00000000
     atom   22 type  4   force =     0.00000000    0.00000000    0.00000000
     atom   23 type  5   force =     0.00000000    0.00000000    0.00000000
     The SCF correction term to forces
     atom    1 type  1   force =    -0.00000000    0.00000000   -0.00000000
     atom    2 type  1   force =     0.00000000    0.00000000   -0.00000000
     atom    3 type  1   force =     0.00000000   -0.00000000   -0.00000000
     atom    4 type  1   force =    -0.00000000    0.00000000   -0.00000000
     atom    5 type  1   force =    -0.00000000   -0.00000000   -0.00000000
     atom    6 type  2   force =    -0.00000000    0.00000000   -0.00000000
     atom    7 type  2   force =    -0.00000000   -0.00000000   -0.00000000
     atom    8 type  3   force =    -0.00000000    0.00000000   -0.00000000
     atom    9 type  3   force =     0.00000000    0.00000000   -0.00000000
     atom   10 type  3   force =     0.00408950    0.01712127    0.00309851
     atom   11 type  3   force =    -0.00335070    0.02002352    0.01016354
     atom   12 type  3   force =     0.00597629   -0.02348372    0.00037492
     atom   13 type  3   force =     0.00052202   -0.03243566    0.01254766
     atom   14 type  3   force =    -0.00389997    0.01720662    0.00270227
     atom   15 type  3   force =     0.00551106    0.01619130    0.00970879
     atom   16 type  3   force =    -0.00439185   -0.02335153   -0.00060036
     atom   17 type  3   force =     0.00382464   -0.03001629    0.01288969
     atom   18 type  4   force =    -0.00178878   -0.01254234   -0.01982081
     atom   19 type  4   force =     0.00664330    0.00528122    0.00043594
     atom   20 type  4   force =     0.00080656    0.00870751    0.01461840
     atom   21 type  4   force =    -0.00631307    0.00520474   -0.00271243
     atom   22 type  4   force =    -0.00013906    0.00990672    0.01814276
     atom   23 type  5   force =     0.00414018    0.00428748   -0.00218450

     Total force =     2.174812     Total SCF correction =     0.080261

     Entering Dynamics:    iteration =     2
                           time      =   0.0004 pico-seconds


ATOMIC_POSITIONS (angstrom)
Hf            2.6699999570        2.8271230292        6.6039642186    0   0   0
Hf            1.2529906802        1.2862841814        5.0584662261    0   0   0
Hf            1.2554868986        7.3898042948        5.0880677674    0   0   0
Hf            4.0870092338        1.2862841814        5.0584662261    0   0   0
Hf            4.0845130154        7.3898042948        5.0880677674    0   0   0
Nb            2.6699999570        2.7969306055        3.5155832167    0   0   0
Nb            2.6699999570        5.8763786763        6.6349979432    0   0   0
Ta            1.2093730560        4.3409278516        5.0711258323    0   0   0
Ta            4.1306268580        4.3409278516        5.0711258323    0   0   0
Ta            1.3072491587        1.3141202426        2.0587721401
Ta            1.3027846125        1.3083879389        8.0945858006
Ta            1.3040059707        7.3758293647        2.0462302379
Ta            1.3077071505        7.3650852345        8.0860091203
Ta            4.0327505839        1.3141199217        2.0587723941
Ta            4.0372150541        1.3083877406        8.0945853157
Ta            4.0359927761        7.3758294119        2.0462306765
Ta            4.0322915701        7.3650856289        8.0860086308
Zr            2.6700029452        5.8662893369        3.5273809994
Zr            1.2438006174        4.3220771415        1.9999731011
Zr            1.2403504945        4.3541245456        8.1497822503
Zr            4.0961975107        4.3220774539        1.9999736857
Zr            4.0996475282        4.3541252593        8.1497819216
H             4.7118712038        3.4756913123        5.0722505495


     kinetic energy (Ekin) =           1.88379725 Ry
     temperature           =       14163.24099904 K 
     Ekin + Etot (const)   =       -2940.55036141 Ry

     Writing config-only to output data dir outdir/pwscf.save/
     NEW-OLD atomic charge density approx. for the potential

     Check: negative core charge=   -0.000002

     negative rho (up, down):  9.067E-01 9.067E-01
     Generating pointlists ...
     new r_m :   0.1280 (alat units)  1.7748 (a.u.) for type    1

     total cpu time spent up to now is      647.4 secs

     Self-consistent Calculation

     iteration #  1     ecut=   120.00 Ry     beta= 0.70
     Davidson diagonalization with overlap
     ethr =  1.00E-06,  avg # of iterations = 14.5

     negative rho (up, down):  9.062E-01 9.062E-01

     total cpu time spent up to now is      724.1 secs

     total energy              =   -2942.52523065 Ry
     estimated scf accuracy    <       0.31184345 Ry

     total magnetization       =    -0.01 Bohr mag/cell
     absolute magnetization    =     0.01 Bohr mag/cell

     iteration #  2     ecut=   120.00 Ry     beta= 0.70
     Davidson diagonalization with overlap
     ethr =  1.13E-04,  avg # of iterations =  2.0

     negative rho (up, down):  9.065E-01 9.065E-01

     total cpu time spent up to now is      758.9 secs

     total energy              =   -2942.54380414 Ry
     estimated scf accuracy    <       0.11084753 Ry

     total magnetization       =    -0.01 Bohr mag/cell
     absolute magnetization    =     0.01 Bohr mag/cell

     iteration #  3     ecut=   120.00 Ry     beta= 0.70
     Davidson diagonalization with overlap
     ethr =  4.00E-05,  avg # of iterations =  2.0

     negative rho (up, down):  9.067E-01 9.067E-01

     total cpu time spent up to now is      792.4 secs

     total energy              =   -2942.55032139 Ry
     estimated scf accuracy    <       0.00455574 Ry

     total magnetization       =    -0.01 Bohr mag/cell
     absolute magnetization    =     0.01 Bohr mag/cell

     iteration #  4     ecut=   120.00 Ry     beta= 0.70
     Davidson diagonalization with overlap
     ethr =  1.64E-06,  avg # of iterations = 12.0

     negative rho (up, down):  9.067E-01 9.067E-01

     total cpu time spent up to now is      829.6 secs

     total energy              =   -2942.55048661 Ry
     estimated scf accuracy    <       0.00204245 Ry

     total magnetization       =    -0.00 Bohr mag/cell
     absolute magnetization    =     0.01 Bohr mag/cell

     iteration #  5     ecut=   120.00 Ry     beta= 0.70
     Davidson diagonalization with overlap
     ethr =  7.37E-07,  avg # of iterations =  2.0

     negative rho (up, down):  9.067E-01 9.067E-01

     Magnetic moment per site  (integrated on atomic sphere of radius R)
     atom   1 (R=0.128)  charge=  8.6339   -0.0000
     atom   2 (R=0.128)  charge=  8.3701   -0.0000
     atom   3 (R=0.128)  charge=  8.3715   -0.0000
     atom   4 (R=0.128)  charge=  8.3601   -0.0000
     atom   5 (R=0.128)  charge=  8.3776   -0.0000
     atom   6 (R=0.140)  charge= 10.3503   -0.0000
     atom   7 (R=0.140)  charge= 10.3539   -0.0000
     atom   8 (R=0.056)  charge=  1.3486    0.0000
     atom   9 (R=0.056)  charge=  1.3636   -0.0000
     atom  10 (R=0.056)  charge=  1.3457   -0.0000
     atom  11 (R=0.056)  charge=  1.3449   -0.0000
     atom  12 (R=0.056)  charge=  1.3455    0.0000
     atom  13 (R=0.056)  charge=  1.3452   -0.0000
     atom  14 (R=0.056)  charge=  1.3468   -0.0000
     atom  15 (R=0.056)  charge=  1.3465   -0.0000
     atom  16 (R=0.056)  charge=  1.3456   -0.0000
     atom  17 (R=0.056)  charge=  1.3462   -0.0000
     atom  18 (R=0.141)  charge=  9.4543   -0.0001
     atom  19 (R=0.141)  charge=  8.9976   -0.0002
     atom  20 (R=0.141)  charge=  8.9914   -0.0004
     atom  21 (R=0.141)  charge=  8.9991   -0.0002
     atom  22 (R=0.141)  charge=  8.9935   -0.0005
     atom  23 (R=0.056)  charge=  0.7152   -0.0000

     total cpu time spent up to now is      864.0 secs

     End of self-consistent calculation

 ------ SPIN UP ------------


          k = 0.0000 0.0000 0.0000 ( 48454 PWs)   bands (ev):

   -57.8466 -57.8376 -57.8017 -57.7925 -57.7660 -57.7598 -57.7220 -57.7161
   -57.5962 -57.2714 -51.4111 -51.3580 -51.2811 -51.2072 -49.7186 -43.2521
   -43.2256 -38.6419 -38.6162 -38.5410 -38.5318 -36.8140 -25.5663 -24.8627
   -24.8571 -24.7796 -24.7696 -24.6562 -24.6476 -24.5347 -24.5238 -24.3885
   -24.3695 -24.3288 -24.3116 -24.2968 -24.2727 -24.2578 -24.2318 -24.2015
   -24.1883 -24.1338 -24.0314 -24.0247 -24.0214 -24.0136 -23.9660 -23.9630
   -23.9232 -23.9216 -23.6529 -23.6051 -21.1927 -20.9752 -20.6674 -20.5833
   -20.3350 -20.1953 -20.1458 -20.0537 -19.9505 -19.8569 -19.8552 -19.6340
   -19.4958 -19.4444 -19.3847 -19.3395 -19.2858 -19.2243 -18.7855 -18.7118
   -18.6484 -17.1894 -16.8765 -16.8608 -16.8304 -16.6320 -16.6185 -16.6098
   -16.6054 -16.5700 -16.5362 -16.3242 -16.2978 -15.1779 -14.9559 -14.8272
     4.0013   4.9521   5.7971   6.1378   6.2609   6.4392   6.5193   6.5947
     6.5975   6.8314   6.9328   7.1156   7.2160   7.4097   7.4477   7.5822
     7.6831   7.8108   7.9629   8.0228   8.0805   8.1560   8.2145   8.2595
     8.3733   8.4691   8.5476   8.6088   8.6594   8.6801   8.7506   8.7994
     8.8445   9.0114   9.0449   9.1537   9.1849   9.2588   9.3138   9.3202
     9.3712   9.5022   9.6650   9.7465   9.7929   9.9408   9.9618  10.0974
    10.1601  10.1748  10.2790  10.3532  10.3958  10.4274  10.5449  10.5904
    10.7076  10.7630  10.9088  10.9224  11.0159  11.0429  11.1387  11.2204
    11.2625  11.3829  11.3972  11.5774  11.6836  11.7635  11.8001  11.8261
    11.9973  12.0912  12.1511  12.1878  12.1906  12.2101  12.2345

 ------ SPIN DOWN ----------


          k = 0.0000 0.0000 0.0000 ( 48454 PWs)   bands (ev):

   -57.8466 -57.8376 -57.8017 -57.7926 -57.7660 -57.7599 -57.7220 -57.7162
   -57.5962 -57.2714 -51.4111 -51.3580 -51.2812 -51.2072 -49.7186 -43.2521
   -43.2257 -38.6420 -38.6166 -38.5412 -38.5322 -36.8141 -25.5663 -24.8627
   -24.8572 -24.7796 -24.7697 -24.6563 -24.6477 -24.5348 -24.5239 -24.3886
   -24.3696 -24.3288 -24.3116 -24.2969 -24.2727 -24.2578 -24.2318 -24.2015
   -24.1883 -24.1337 -24.0315 -24.0247 -24.0214 -24.0137 -23.9661 -23.9630
   -23.9233 -23.9217 -23.6529 -23.6051 -21.1928 -20.9752 -20.6674 -20.5833
   -20.3350 -20.1953 -20.1458 -20.0537 -19.9505 -19.8570 -19.8552 -19.6340
   -19.4958 -19.4445 -19.3848 -19.3395 -19.2859 -19.2243 -18.7856 -18.7118
   -18.6484 -17.1896 -16.8772 -16.8609 -16.8306 -16.6322 -16.6188 -16.6100
   -16.6057 -16.5704 -16.5366 -16.3244 -16.2984 -15.1780 -14.9560 -14.8273
     4.0012   4.9520   5.7970   6.1378   6.2608   6.4391   6.5192   6.5947
     6.5974   6.8313   6.9327   7.1155   7.2159   7.4096   7.4476   7.5820
     7.6830   7.8106   7.9627   8.0227   8.0804   8.1559   8.2143   8.2593
     8.3733   8.4689   8.5474   8.6086   8.6592   8.6799   8.7506   8.7993
     8.8444   9.0113   9.0448   9.1536   9.1848   9.2587   9.3137   9.3200
     9.3711   9.5020   9.6648   9.7464   9.7928   9.9407   9.9616  10.0972
    10.1599  10.1747  10.2784  10.3525  10.3957  10.4272  10.5447  10.5901
    10.7075  10.7628  10.9086  10.9222  11.0157  11.0428  11.1386  11.2203
    11.2623  11.3827  11.3972  11.5772  11.6835  11.7633  11.7999  11.8259
    11.9970  12.0912  12.1507  12.1877  12.1904  12.2097  12.2339

     the Fermi energy is    10.2672 ev

!    total energy              =   -2942.55026380 Ry
     estimated scf accuracy    <       0.00034373 Ry
     smearing contrib. (-TS)   =      -0.09629631 Ry
     internal energy E=F+TS    =   -2942.45396749 Ry

     total magnetization       =    -0.00 Bohr mag/cell
     absolute magnetization    =     0.01 Bohr mag/cell

     convergence has been achieved in   5 iterations

     negative rho (up, down):  9.067E-01 9.067E-01

     Forces acting on atoms (cartesian axes, Ry/au):

     atom    1 type  1   force =    -0.00354297   -0.01528771    0.00603010
     atom    2 type  1   force =    -0.13124080   -0.01915523   -0.00614586
     atom    3 type  1   force =    -0.12712562    0.01650452    0.00147692
     atom    4 type  1   force =     0.12382730    0.01708726   -0.00663811
     atom    5 type  1   force =     0.15559614    0.01615188    0.00205508
     atom    6 type  2   force =    -0.00461047   -0.01465947    0.00098161
     atom    7 type  2   force =     0.00482500    0.01913845    0.00387911
     atom    8 type  3   force =    -0.14242829   -0.00365333   -0.00227524
     atom    9 type  3   force =    -0.89698099    1.49507898   -0.01483713
     atom   10 type  3   force =    -0.02907368   -0.02077643   -0.05850747
     atom   11 type  3   force =    -0.03037131   -0.02481751    0.06096285
     atom   12 type  3   force =    -0.03306228    0.02518155   -0.05796137
     atom   13 type  3   force =    -0.03338596    0.01496968    0.06401849
     atom   14 type  3   force =     0.02951695   -0.02293358   -0.05670374
     atom   15 type  3   force =     0.03004504   -0.02710027    0.05746592
     atom   16 type  3   force =     0.02292050    0.02809567   -0.05626375
     atom   17 type  3   force =     0.02262386    0.01965651    0.06114879
     atom   18 type  4   force =     0.00937456    0.01790103   -0.01552805
     atom   19 type  4   force =    -0.15095247   -0.00246732   -0.11735326
     atom   20 type  4   force =    -0.15398987    0.00679095    0.12173295
     atom   21 type  4   force =     0.14348478   -0.00142935   -0.11651154
     atom   22 type  4   force =     0.14598094    0.00861882    0.12158804
     atom   23 type  5   force =     1.04856966   -1.53289510    0.00738566
     The non-local contrib.  to forces
     atom    1 type  1   force =     0.00328821   -0.00110817    0.02991631
     atom    2 type  1   force =    -0.24637676   -0.16583094    0.01352417
     atom    3 type  1   force =    -0.24502597    0.16197223   -0.02910417
     atom    4 type  1   force =     0.22994884   -0.13020677    0.01390751
     atom    5 type  1   force =     0.24973216    0.15465898   -0.03057538
     atom    6 type  2   force =     0.00366674   -0.07798905   -0.05249838
     atom    7 type  2   force =     0.00003984    0.07843597    0.05484220
     atom    8 type  3   force =    -0.26132420   -0.00076181   -0.00418921
     atom    9 type  3   force =     0.60365218   -0.60369607   -0.01093899
     atom   10 type  3   force =    -0.23883602    0.00472863   -0.22510563
     atom   11 type  3   force =    -0.24412853    0.01393101    0.21485312
     atom   12 type  3   force =    -0.23171983   -0.02325086   -0.19635274
     atom   13 type  3   force =    -0.24334680   -0.00928375    0.22227463
     atom   14 type  3   force =     0.23777343    0.00873216   -0.22012686
     atom   15 type  3   force =     0.24441042    0.01459182    0.21103052
     atom   16 type  3   force =     0.22228625   -0.02331154   -0.19440588
     atom   17 type  3   force =     0.23140370   -0.00777356    0.22037736
     atom   18 type  4   force =    -0.00593176    0.07277759   -0.05954260
     atom   19 type  4   force =     0.07590391    0.00219064    0.05488772
     atom   20 type  4   force =     0.07162871   -0.00408165   -0.05028216
     atom   21 type  4   force =    -0.06792102   -0.00071989    0.04422347
     atom   22 type  4   force =    -0.06541306   -0.00277690   -0.04223251
     atom   23 type  5   force =    -0.10099107    0.16396672    0.00132106
     The ionic contribution  to forces
     atom    1 type  1   force =    -0.59088792   -4.82790767   15.33000345
     atom    2 type  1   force =   -27.87301041   -6.40553641    0.78070773
     atom    3 type  1   force =   -27.83584278    6.21441801   -0.71423361
     atom    4 type  1   force =    27.50426457   -7.31214663    0.77490531
     atom    5 type  1   force =    27.76026222    6.30037885   -0.71338848
     atom    6 type  2   force =    -0.62114618   -3.80237558  -15.33339659
     atom    7 type  2   force =    -0.21653482    3.90998315   15.02965754
     atom    8 type  3   force =   -38.74039029    0.25158646   -0.06744839
     atom    9 type  3   force =    34.96279098    5.59906100   -0.07437420
     atom   10 type  3   force =   -24.86539417   -2.19687342  -24.68053972
     atom   11 type  3   force =   -23.93782647   -0.93039008   23.67601363
     atom   12 type  3   force =   -24.05069489    0.79716064  -23.66401764
     atom   13 type  3   force =   -24.83506844    2.20520419   24.60343860
     atom   14 type  3   force =    24.78206147   -2.30689549  -24.83831533
     atom   15 type  3   force =    23.85600235   -1.03937999   23.83237470
     atom   16 type  3   force =    24.01418215    0.81925331  -23.71195903
     atom   17 type  3   force =    24.79796949    2.22800565   24.65174409
     atom   18 type  4   force =    -0.20320914    4.66763900  -14.87675198
     atom   19 type  4   force =   -25.12432407    1.03710843  -27.14787229
     atom   20 type  4   force =   -25.08034809   -0.90575486   27.12608478
     atom   21 type  4   force =    25.01085610    1.12061731  -27.44792262
     atom   22 type  4   force =    24.96928845   -0.82055750   27.42142475
     atom   23 type  5   force =     6.31699989   -4.60259839    0.04386530
     The local contribution  to forces
     atom    1 type  1   force =     0.58084832    4.81669824  -15.36716850
     atom    2 type  1   force =    28.00026834    6.55993536   -0.81816550
     atom    3 type  1   force =    27.96468967   -6.36770231    0.72955335
     atom    4 type  1   force =   -27.61463726    7.46750303   -0.81321554
     atom    5 type  1   force =   -27.86765407   -6.44323336    0.73199436
     atom    6 type  2   force =     0.61018525    3.86823810   15.36784866
     atom    7 type  2   force =     0.21743923   -3.97492532  -15.09057606
     atom    8 type  3   force =    38.88475548   -0.25408349    0.05296460
     atom    9 type  3   force =   -36.49269475   -3.47637906    0.05483933
     atom   10 type  3   force =    25.09950321    2.16806498   24.86686348
     atom   11 type  3   force =    24.18218578    0.89591109  -23.84511370
     atom   12 type  3   force =    24.27489926   -0.74811015   23.81812806
     atom   13 type  3   force =    25.07408900   -2.19065135  -24.77317845
     atom   14 type  3   force =   -25.01404064    2.27204612   25.02003510
     atom   15 type  3   force =   -24.10026013    1.00044940  -24.00020331
     atom   16 type  3   force =   -24.23833310   -0.76593491   23.86599176
     atom   17 type  3   force =   -25.03377701   -2.20825298  -24.82301722
     atom   18 type  4   force =     0.21510886   -4.72196525   14.89924240
     atom   19 type  4   force =    24.90414854   -1.03931210   26.98306461
     atom   20 type  4   force =    24.86712796    0.91946713  -26.95813756
     atom   21 type  4   force =   -24.80566299   -1.11939384   27.29076823
     atom   22 type  4   force =   -24.77049764    0.83487444  -27.25819665
     atom   23 type  5   force =    -5.16678615    2.90604568   -0.04069579
     The core correction contribution to forces
     atom    1 type  1   force =     0.00017007    0.00572177    0.00119253
     atom    2 type  1   force =    -0.01106982   -0.00216935    0.00104932
     atom    3 type  1   force =    -0.01137626    0.00222586   -0.00169125
     atom    4 type  1   force =     0.00366512   -0.00569796    0.00123153
     atom    5 type  1   force =     0.01323444    0.00231696   -0.00237344
     atom    6 type  2   force =    -0.00003070    0.00387403    0.00207719
     atom    7 type  2   force =     0.00038951   -0.00410401   -0.00238417
     atom    8 type  3   force =    -0.03049937   -0.00046565    0.00005172
     atom    9 type  3   force =     0.03262471   -0.02231751   -0.00118568
     atom   10 type  3   force =    -0.02560824    0.00599215   -0.01644679
     atom   11 type  3   force =    -0.02705705    0.00763822    0.01669083
     atom   12 type  3   force =    -0.02612906   -0.00704644   -0.01520633
     atom   13 type  3   force =    -0.02665585   -0.00570644    0.01636567
     atom   14 type  3   force =     0.02542434    0.00526917   -0.01527041
     atom   15 type  3   force =     0.02687245    0.00696403    0.01563736
     atom   16 type  3   force =     0.02522237   -0.00723164   -0.01630526
     atom   17 type  3   force =     0.02551840   -0.00565258    0.01732186
     atom   18 type  4   force =     0.00071595   -0.00436746    0.00315907
     atom   19 type  4   force =    -0.01041843    0.00049929   -0.00852371
     atom   20 type  4   force =    -0.01019255   -0.00015905    0.00838709
     atom   21 type  4   force =     0.00992183    0.00077838   -0.00773984
     atom   22 type  4   force =     0.00981457   -0.00016930    0.00781922
     atom   23 type  5   force =     0.00000000    0.00000000    0.00000000
     The Hubbard contrib.    to forces
     atom    1 type  1   force =     0.00000000    0.00000000    0.00000000
     atom    2 type  1   force =     0.00000000    0.00000000    0.00000000
     atom    3 type  1   force =     0.00000000    0.00000000    0.00000000
     atom    4 type  1   force =     0.00000000    0.00000000    0.00000000
     atom    5 type  1   force =     0.00000000    0.00000000    0.00000000
     atom    6 type  2   force =     0.00000000    0.00000000    0.00000000
     atom    7 type  2   force =     0.00000000    0.00000000    0.00000000
     atom    8 type  3   force =     0.00000000    0.00000000    0.00000000
     atom    9 type  3   force =     0.00000000    0.00000000    0.00000000
     atom   10 type  3   force =     0.00000000    0.00000000    0.00000000
     atom   11 type  3   force =     0.00000000    0.00000000    0.00000000
     atom   12 type  3   force =     0.00000000    0.00000000    0.00000000
     atom   13 type  3   force =     0.00000000    0.00000000    0.00000000
     atom   14 type  3   force =     0.00000000    0.00000000    0.00000000
     atom   15 type  3   force =     0.00000000    0.00000000    0.00000000
     atom   16 type  3   force =     0.00000000    0.00000000    0.00000000
     atom   17 type  3   force =     0.00000000    0.00000000    0.00000000
     atom   18 type  4   force =     0.00000000    0.00000000    0.00000000
     atom   19 type  4   force =     0.00000000    0.00000000    0.00000000
     atom   20 type  4   force =     0.00000000    0.00000000    0.00000000
     atom   21 type  4   force =     0.00000000    0.00000000    0.00000000
     atom   22 type  4   force =     0.00000000    0.00000000    0.00000000
     atom   23 type  5   force =     0.00000000    0.00000000    0.00000000
     The SCF correction term to forces
     atom    1 type  1   force =     0.00000000   -0.00000000    0.00000000
     atom    2 type  1   force =    -0.00000000   -0.00000000    0.00000000
     atom    3 type  1   force =     0.00000000    0.00000000    0.00000000
     atom    4 type  1   force =     0.00000000   -0.00000000    0.00000000
     atom    5 type  1   force =    -0.00000000    0.00000000    0.00000000
     atom    6 type  2   force =     0.00000000   -0.00000000    0.00000000
     atom    7 type  2   force =     0.00000000    0.00000000    0.00000000
     atom    8 type  3   force =     0.00000000    0.00000000    0.00000000
     atom    9 type  3   force =    -0.00000000   -0.00000000    0.00000000
     atom   10 type  3   force =     0.00119601   -0.00261727   -0.00463474
     atom   11 type  3   force =    -0.00361057   -0.01183625   -0.00283695
     atom   12 type  3   force =     0.00051669    0.00649986   -0.00186864
     atom   13 type  3   force =    -0.00246940    0.01547854   -0.00623788
     atom   14 type  3   force =    -0.00176718   -0.00201404   -0.00438216
     atom   15 type  3   force =     0.00295441   -0.00965403   -0.00272927
     atom   16 type  3   force =    -0.00050269    0.00539196   -0.00094127
     atom   17 type  3   force =     0.00144374    0.01340148   -0.00663322
     atom   18 type  4   force =     0.00262512    0.00388866    0.01700915
     atom   19 type  4   force =     0.00367204   -0.00288209   -0.00026552
     atom   20 type  4   force =    -0.00227142   -0.00260911   -0.00567511
     atom   21 type  4   force =    -0.00377469   -0.00263981    0.00280330
     atom   22 type  4   force =     0.00272308   -0.00268041   -0.00858270
     atom   23 type  5   force =    -0.00071854   -0.00023760    0.00153917

     Total force =     1.906461     Total SCF correction =     0.037561

     Entering Dynamics:    iteration =     3
                           time      =   0.0006 pico-seconds


ATOMIC_POSITIONS (angstrom)
Hf            2.6699999570        2.8271230292        6.6039642186    0   0   0
Hf            1.2529906802        1.2862841814        5.0584662261    0   0   0
Hf            1.2554868986        7.3898042948        5.0880677674    0   0   0
Hf            4.0870092338        1.2862841814        5.0584662261    0   0   0
Hf            4.0845130154        7.3898042948        5.0880677674    0   0   0
Nb            2.6699999570        2.7969306055        3.5155832167    0   0   0
Nb            2.6699999570        5.8763786763        6.6349979432    0   0   0
Ta            1.2093730560        4.3409278516        5.0711258323    0   0   0
Ta            4.1306268580        4.3409278516        5.0711258323    0   0   0
Ta            1.3072448820        1.3141172572        2.0587635828
Ta            1.3027801603        1.3083840979        8.0945941318
Ta            1.3040013354        7.3758332751        2.0462217541
Ta            1.3077025094        7.3650878830        8.0860178386
Ta            4.0327547860        1.3141165722        2.0587641208
Ta            4.0372193196        1.3083836353        8.0945930934
Ta            4.0359959621        7.3758335494        2.0462226059
Ta            4.0322946858        7.3650888418        8.0860168276
Zr            2.6700062391        5.8662941478        3.5273771356
Zr            1.2437581477        4.3220762259        1.9999397680
Zr            1.2403070201        4.3541261984        8.1498157587
Zr            4.0962378188        4.3220768797        1.9999408975
Zr            4.0996886888        4.3541276138        8.1498151367
H             4.6576909219        3.3850883635        5.0723369894


     kinetic energy (Ekin) =           1.99735776 Ry
     temperature           =       15017.04037465 K 
     Ekin + Etot (const)   =       -2940.55290604 Ry

     Writing config-only to output data dir outdir/pwscf.save/
     NEW-OLD atomic charge density approx. for the potential

     Check: negative core charge=   -0.000002

     negative rho (up, down):  9.068E-01 9.068E-01
     Generating pointlists ...
     new r_m :   0.1222 (alat units)  1.6955 (a.u.) for type    1

     total cpu time spent up to now is      884.6 secs

     Self-consistent Calculation

     iteration #  1     ecut=   120.00 Ry     beta= 0.70
     Davidson diagonalization with overlap
     ethr =  1.00E-06,  avg # of iterations = 17.5

     negative rho (up, down):  9.069E-01 9.069E-01

     total cpu time spent up to now is      956.5 secs

     total energy              =   -2942.68902453 Ry
     estimated scf accuracy    <       0.15665712 Ry

     total magnetization       =    -0.00 Bohr mag/cell
     absolute magnetization    =     0.01 Bohr mag/cell

[...]
   -24.7702 -24.7668 -24.6589 -24.6520 -24.5472 -24.5058 -24.4533 -24.3779
   -24.3567 -24.3150 -24.3052 -24.2911 -24.2569 -24.2356 -24.2251 -24.1963
   -24.1786 -24.1447 -24.0320 -24.0284 -24.0237 -24.0126 -24.0104 -24.0061
   -23.9662 -23.9477 -23.9325 -23.9068 -21.2347 -21.0387 -20.6529 -20.5735
   -20.2964 -20.1747 -20.1400 -20.0198 -19.9599 -19.8923 -19.8278 -19.6167
   -19.5220 -19.4299 -19.3784 -19.3322 -19.2655 -19.2226 -18.7939 -18.7331
   -18.6527 -17.1764 -16.8742 -16.8655 -16.8154 -16.6386 -16.6367 -16.6037
   -16.6011 -16.5747 -16.5337 -16.3066 -16.2946 -15.1104 -14.9034 -14.7790
     2.8339   4.7215   5.8012   6.1235   6.2530   6.4678   6.5070   6.5946
     6.5992   6.8250   6.9349   7.1242   7.1991   7.3499   7.5131   7.5849
     7.7122   7.8529   8.0224   8.0402   8.1158   8.1505   8.2399   8.2526
     8.3838   8.4496   8.5287   8.5698   8.6632   8.6758   8.7081   8.7933
     8.8546   9.0173   9.0508   9.1521   9.1999   9.2467   9.3001   9.3518
     9.4072   9.4986   9.6995   9.7305   9.8093   9.8519   9.9741  10.0991
    10.1721  10.2560  10.3470  10.3845  10.3961  10.4457  10.5434  10.5864
    10.7053  10.7730  10.9207  10.9722  11.0169  11.0236  11.1925  11.2244
    11.2632  11.3729  11.3852  11.5774  11.7001  11.7777  11.7856  11.8103
    11.9849  12.0200  12.1153  12.1331  12.1922  12.1987  12.2106

     the Fermi energy is    10.2913 ev

!    total energy              =   -2943.17140982 Ry
     estimated scf accuracy    <       0.00094685 Ry
     smearing contrib. (-TS)   =      -0.09568597 Ry
     internal energy E=F+TS    =   -2943.07572385 Ry

     total magnetization       =    -0.00 Bohr mag/cell
     absolute magnetization    =     0.00 Bohr mag/cell

     convergence has been achieved in   4 iterations

     negative rho (up, down):  9.079E-01 9.079E-01

     Forces acting on atoms (cartesian axes, Ry/au):

     atom    1 type  1   force =    -0.01482190   -0.01885412    0.02406015
     atom    2 type  1   force =    -0.12860954   -0.01439617    0.00825455
     atom    3 type  1   force =    -0.13300006    0.01176973    0.01625327
     atom    4 type  1   force =     0.07362906   -0.26081697   -0.00037577
     atom    5 type  1   force =     0.14411763    0.00881476    0.02024280
     atom    6 type  2   force =    -0.01546833   -0.01013111   -0.01418663
     atom    7 type  2   force =     0.00786839    0.02116120   -0.00525642
     atom    8 type  3   force =    -0.12574019    0.00295219    0.00072680
     atom    9 type  3   force =     0.09458446    0.11182411   -0.00051648
     atom   10 type  3   force =    -0.02512370   -0.02130303   -0.06655424
     atom   11 type  3   force =    -0.02694061   -0.02925427    0.05504121
     atom   12 type  3   force =    -0.03554948    0.02511120   -0.05811550
     atom   13 type  3   force =    -0.03652870    0.02155407    0.05232293
     atom   14 type  3   force =     0.02921028   -0.03017947   -0.06510840
     atom   15 type  3   force =     0.03311419   -0.03822558    0.05693588
     atom   16 type  3   force =     0.02864800    0.03083548   -0.06109430
     atom   17 type  3   force =     0.02608604    0.02680856    0.05313109
     atom   18 type  4   force =     0.00277377    0.02618933   -0.01447823
     atom   19 type  4   force =    -0.14072869   -0.00531416   -0.12238923
     atom   20 type  4   force =    -0.14836408    0.00579913    0.11832982
     atom   21 type  4   force =     0.13901007   -0.00043681   -0.12281609
     atom   22 type  4   force =     0.14601786    0.00564670    0.11955989
     atom   23 type  5   force =     0.10581555    0.13044523    0.00603290
     The non-local contrib.  to forces
     atom    1 type  1   force =     0.01647545   -0.00382840    0.02375928
     atom    2 type  1   force =    -0.24352926   -0.16181689    0.02242451
     atom    3 type  1   force =    -0.24545502    0.15974510   -0.01917689
     atom    4 type  1   force =     0.20167738   -0.18010507    0.01653604
     atom    5 type  1   force =     0.24241076    0.23444384   -0.01687713
     atom    6 type  2   force =     0.00255835   -0.06328726   -0.06844511
     atom    7 type  2   force =     0.00182424    0.07354641    0.04697977
     atom    8 type  3   force =    -0.25862685   -0.00683834    0.00392287
     atom    9 type  3   force =     0.18470016   -0.03583298    0.00458232
     atom   10 type  3   force =    -0.23160616    0.01346390   -0.23313468
     atom   11 type  3   force =    -0.23472866    0.01700925    0.21630623
     atom   12 type  3   force =    -0.22911214   -0.03437473   -0.19876404
     atom   13 type  3   force =    -0.23718806   -0.01792607    0.21628636
     atom   14 type  3   force =     0.23877309    0.01030364   -0.22261993
     atom   15 type  3   force =     0.24706233    0.00893149    0.20965173
     atom   16 type  3   force =     0.22688912   -0.02724113   -0.19083902
     atom   17 type  3   force =     0.23359356   -0.00603534    0.21160629
     atom   18 type  4   force =    -0.00568628    0.06750455   -0.04319377
     atom   19 type  4   force =     0.07199377    0.00220265    0.06101616
     atom   20 type  4   force =     0.06626638    0.00190022   -0.05858638
     atom   21 type  4   force =    -0.07646306    0.00520076    0.04473578
     atom   22 type  4   force =    -0.07236031    0.00117961   -0.04577924
     atom   23 type  5   force =    -0.02917646   -0.01010736    0.00221338
     The ionic contribution  to forces
     atom    1 type  1   force =    -0.81614567   -4.55133170   15.61100255
     atom    2 type  1   force =   -28.02725574   -6.42304404    0.77977362
     atom    3 type  1   force =   -27.85796013    6.10797785   -0.71408567
     atom    4 type  1   force =    27.24650961   -9.06222589    0.75277690
     atom    5 type  1   force =    27.78831085    6.04642754   -0.71306768
     atom    6 type  2   force =    -0.86179364   -3.51569208  -15.63770562
     atom    7 type  2   force =    -0.13414651    3.82144942   14.97083018
     atom    8 type  3   force =   -38.83532430    0.35195423   -0.06823152
     atom    9 type  3   force =    38.22692005    2.76853995   -0.07135793
     atom   10 type  3   force =   -24.90055395   -2.18702704  -24.71865406
     atom   11 type  3   force =   -23.97266486   -0.92080598   23.71393135
     atom   12 type  3   force =   -24.05758116    0.73987753  -23.65665165
     atom   13 type  3   force =   -24.84097108    2.14760898   24.59535716
     atom   14 type  3   force =    24.78931037   -2.31359361  -24.98456469
     atom   15 type  3   force =    23.86335082   -1.04665103   23.97777407
     atom   16 type  3   force =    24.02222876    0.72549235  -23.70356919
     atom   17 type  3   force =    24.80512456    2.13329301   24.64207171
     atom   18 type  4   force =    -0.12532049    4.58394900  -14.82142260
     atom   19 type  4   force =   -25.13259991    1.07280535  -27.10844629
     atom   20 type  4   force =   -25.08808057   -0.87073813   27.08631216
     atom   21 type  4   force =    25.05267760    1.18451012  -27.32789323
     atom   22 type  4   force =    25.01002058   -0.75903759   27.30088482
     atom   23 type  5   force =     3.84594482   -0.03373826    0.09493562
     The local contribution  to forces
     atom    1 type  1   force =     0.77669218    4.53477624  -15.58497935
     atom    2 type  1   force =    28.14496516    6.58043190   -0.75627263
     atom    3 type  1   force =    27.98090764   -6.26505115    0.79115447
     atom    4 type  1   force =   -27.37761862    8.98320964   -0.72986776
     atom    5 type  1   force =   -27.90008107   -6.29318257    0.79234633
     atom    6 type  2   force =     0.83192695    3.58068519   15.71507713
     atom    7 type  2   force =     0.13759163   -3.86700033  -15.00006654
     atom    8 type  3   force =    38.99692899   -0.34048349    0.10312618
     atom    9 type  3   force =   -38.34225598   -2.60174060    0.10428427
     atom   10 type  3   force =    25.13351573    2.15455833   24.89590364
     atom   11 type  3   force =    24.20232581    0.85942334  -23.90358388
     atom   12 type  3   force =    24.27760971   -0.68193448   23.80600949
     atom   13 type  3   force =    25.06293492   -2.09602508  -24.78767704
     atom   14 type  3   force =   -25.02918797    2.27686230   25.14493101
     atom   15 type  3   force =   -24.10156872    0.98533922  -24.15210771
     atom   16 type  3   force =   -24.24852146   -0.67130740   23.84225235
     atom   17 type  3   force =   -25.03417149   -2.08954118  -24.82980988
     atom   18 type  4   force =     0.13004698   -4.63102535   14.88058571
     atom   19 type  4   force =    24.93431924   -1.08058918   26.93448657
     atom   20 type  4   force =    24.87689522    0.87663542  -26.93244805
     atom   21 type  4   force =   -24.85354744   -1.18939501   27.16349636
     atom   22 type  4   force =   -24.79651137    0.76520077  -27.15310743
     atom   23 type  5   force =    -3.71191747    0.17358079   -0.08536741
     The core correction contribution to forces
     atom    1 type  1   force =     0.00068454    0.00377966   -0.00247710
     atom    2 type  1   force =    -0.00865552   -0.00459812    0.00118359
     atom    3 type  1   force =    -0.01251228    0.00225949   -0.00186070
     atom    4 type  1   force =     0.00314792    0.00388882    0.00029589
     atom    5 type  1   force =     0.01382238    0.00816709   -0.00204432
     atom    6 type  2   force =     0.00034798    0.00318222    0.00303552
     atom    7 type  2   force =    -0.00020349   -0.00370224   -0.00130728
     atom    8 type  3   force =    -0.03012394    0.00079767    0.00008998
     atom    9 type  3   force =     0.01761548    0.00371734    0.00083831
     atom   10 type  3   force =    -0.02514611    0.00684185   -0.01744680
     atom   11 type  3   force =    -0.02592398    0.00788572    0.01687507
     atom   12 type  3   force =    -0.02620593   -0.00728056   -0.01534105
     atom   13 type  3   force =    -0.02588696   -0.00689807    0.01557331
     atom   14 type  3   force =     0.02584504    0.00656380   -0.01507010
     atom   15 type  3   force =     0.02752831    0.00761673    0.01520925
     atom   16 type  3   force =     0.02545155   -0.00720476   -0.01533670
     atom   17 type  3   force =     0.02513453   -0.00545844    0.01623742
     atom   18 type  4   force =     0.00016832   -0.00386681    0.00189966
     atom   19 type  4   force =    -0.01007177    0.00051701   -0.00892476
     atom   20 type  4   force =    -0.00994621   -0.00040085    0.00879256
     atom   21 type  4   force =     0.01035689    0.00032861   -0.00785791
     atom   22 type  4   force =     0.01034643   -0.00048315    0.00794760
     atom   23 type  5   force =     0.00000000    0.00000000    0.00000000
     The Hubbard contrib.    to forces
     atom    1 type  1   force =     0.00000000    0.00000000    0.00000000
     atom    2 type  1   force =     0.00000000    0.00000000    0.00000000
     atom    3 type  1   force =     0.00000000    0.00000000    0.00000000
     atom    4 type  1   force =     0.00000000    0.00000000    0.00000000
     atom    5 type  1   force =     0.00000000    0.00000000    0.00000000
     atom    6 type  2   force =     0.00000000    0.00000000    0.00000000
     atom    7 type  2   force =     0.00000000    0.00000000    0.00000000
     atom    8 type  3   force =     0.00000000    0.00000000    0.00000000
     atom    9 type  3   force =     0.00000000    0.00000000    0.00000000
     atom   10 type  3   force =     0.00000000    0.00000000    0.00000000
     atom   11 type  3   force =     0.00000000    0.00000000    0.00000000
     atom   12 type  3   force =     0.00000000    0.00000000    0.00000000
     atom   13 type  3   force =     0.00000000    0.00000000    0.00000000
     atom   14 type  3   force =     0.00000000    0.00000000    0.00000000
     atom   15 type  3   force =     0.00000000    0.00000000    0.00000000
     atom   16 type  3   force =     0.00000000    0.00000000    0.00000000
     atom   17 type  3   force =     0.00000000    0.00000000    0.00000000
     atom   18 type  4   force =     0.00000000    0.00000000    0.00000000
     atom   19 type  4   force =     0.00000000    0.00000000    0.00000000
     atom   20 type  4   force =     0.00000000    0.00000000    0.00000000
     atom   21 type  4   force =     0.00000000    0.00000000    0.00000000
     atom   22 type  4   force =     0.00000000    0.00000000    0.00000000
     atom   23 type  5   force =     0.00000000    0.00000000    0.00000000
     The SCF correction term to forces
     atom    1 type  1   force =     0.00000000   -0.00000000   -0.00000000
     atom    2 type  1   force =     0.00000000   -0.00000000   -0.00000000
     atom    3 type  1   force =     0.00000000    0.00000000   -0.00000000
     atom    4 type  1   force =    -0.00000000   -0.00000000   -0.00000000
     atom    5 type  1   force =    -0.00000000    0.00000000   -0.00000000
     atom    6 type  2   force =     0.00000000   -0.00000000   -0.00000000
     atom    7 type  2   force =     0.00000000   -0.00000000   -0.00000000
     atom    8 type  3   force =     0.00000000   -0.00000000   -0.00000000
     atom    9 type  3   force =     0.00000000   -0.00000000   -0.00000000
     atom   10 type  3   force =    -0.00164708   -0.00911895    0.00922796
     atom   11 type  3   force =     0.00373720    0.00725452    0.01396274
     atom   12 type  3   force =    -0.00057383    0.00884457    0.00908205
     atom   13 type  3   force =     0.00426862   -0.00518456    0.01523343
     atom   14 type  3   force =     0.00415588   -0.01029446    0.01466561
     atom   15 type  3   force =    -0.00357242    0.00655913    0.00885884
     atom   16 type  3   force =     0.00228616    0.01111754    0.00884855
     atom   17 type  3   force =    -0.00390899   -0.00542837    0.01547584
     atom   18 type  4   force =     0.00325137    0.00964905   -0.02989693
     atom   19 type  4   force =    -0.00468389   -0.00022888    0.00192940
     atom   20 type  4   force =     0.00618724   -0.00157640    0.01670984
     atom   21 type  4   force =     0.00567221   -0.00106017    0.00715321
     atom   22 type  4   force =    -0.00579133   -0.00119181    0.01206444
     atom   23 type  5   force =     0.00065080    0.00073119   -0.00329839

     Total force =     0.459924     Total SCF correction =     0.058777
     SCF correction compared to forces is large: reduce conv_thr to get better values

     Entering Dynamics:    iteration =    10
                           time      =   0.0020 pico-seconds


ATOMIC_POSITIONS (angstrom)
Hf            2.6699999570        2.8271230292        6.6039642186    0   0   0
Hf            1.2529906802        1.2862841814        5.0584662261    0   0   0
Hf            1.2554868986        7.3898042948        5.0880677674    0   0   0
Hf            4.0870092338        1.2862841814        5.0584662261    0   0   0
Hf            4.0845130154        7.3898042948        5.0880677674    0   0   0
Nb            2.6699999570        2.7969306055        3.5155832167    0   0   0
Nb            2.6699999570        5.8763786763        6.6349979432    0   0   0
Ta            1.2093730560        4.3409278516        5.0711258323    0   0   0
Ta            4.1306268580        4.3409278516        5.0711258323    0   0   0
Ta            1.3071743843        1.3140606143        2.0586070141
Ta            1.3027051865        1.3083133345        8.0947459616
Ta            1.3039142928        7.3759009660        2.0460726893
Ta            1.3076138293        7.3651362067        8.0861721634
Ta            4.0328300710        1.3140506944        2.0586117152
Ta            4.0372983970        1.3083032957        8.0947400897
Ta            4.0360587855        7.3759117827        2.0460731750
Ta            4.0323545738        7.3651488715        8.0861672831
Zr            2.6700403530        5.8664035764        3.5272981110
Zr            1.2430031338        4.3220579060        1.9993344556
Zr            1.2395280192        4.3541571861        8.1504294676
Zr            4.0969618327        4.3220709203        1.9993397140
Zr            4.1004337732        4.3541659263        8.1504289438
H             4.3376502795        2.6394264949        5.0736912412


     kinetic energy (Ekin) =           2.61458105 Ry
     temperature           =       19657.60469665 K 
     Ekin + Etot (const)   =       -2940.55682877 Ry

     The maximum number of steps has been reached.

     End of molecular dynamics calculation

     diffusion coefficients :
     atom     1   D =       0.00000000 cm^2/s
     atom     2   D =       0.00000000 cm^2/s
     atom     3   D =       0.00000000 cm^2/s
     atom     4   D =       0.00000000 cm^2/s
     atom     5   D =       0.00000000 cm^2/s
     atom     6   D =       0.00000000 cm^2/s
     atom     7   D =       0.00000000 cm^2/s
     atom     8   D =       0.00000000 cm^2/s
     atom     9   D =       0.00000000 cm^2/s
     atom    10   D =       0.00000000 cm^2/s
     atom    11   D =       0.00000000 cm^2/s
     atom    12   D =       0.00000000 cm^2/s
     atom    13   D =       0.00000000 cm^2/s
     atom    14   D =       0.00000000 cm^2/s
     atom    15   D =       0.00000000 cm^2/s
     atom    16   D =       0.00000000 cm^2/s
     atom    17   D =       0.00000000 cm^2/s
     atom    18   D =       0.00000000 cm^2/s
     atom    19   D =       0.00000001 cm^2/s
     atom    20   D =       0.00000001 cm^2/s
     atom    21   D =       0.00000001 cm^2/s
     atom    22   D =       0.00000001 cm^2/s
     atom    23   D =       0.01014719 cm^2/s

     < D > =       0.00072480 cm^2/s

     Writing all to output data dir outdir/pwscf.save/

     init_run     :     22.32s CPU     22.78s WALL (       1 calls)
     electrons    :   2106.75s CPU   2139.04s WALL (      10 calls)
     update_pot   :     20.82s CPU     20.90s WALL (       9 calls)
     forces       :    160.11s CPU    162.18s WALL (      10 calls)

     Called by init_run:
     wfcinit      :     17.53s CPU     17.68s WALL (       1 calls)
     potinit      :      1.09s CPU      1.14s WALL (       1 calls)
     hinit0       :      1.68s CPU      1.72s WALL (       1 calls)

     Called by electrons:
     c_bands      :   1709.83s CPU   1720.45s WALL (      52 calls)
     sum_band     :    282.08s CPU    293.97s WALL (      52 calls)
     v_of_rho     :     12.73s CPU     13.17s WALL (      62 calls)
     newd         :    122.15s CPU    132.95s WALL (      62 calls)
     mix_rho      :      0.97s CPU      0.99s WALL (      52 calls)

     Called by c_bands:
     init_us_2    :      2.80s CPU      2.82s WALL (     230 calls)
     init_us_2:cp :      2.80s CPU      2.82s WALL (     230 calls)
     regterg      :   1695.66s CPU   1706.22s WALL (     104 calls)

     Called by *egterg:
     rdiaghg      :     31.07s CPU     31.42s WALL (     720 calls)
     h_psi        :    696.96s CPU    705.22s WALL (     740 calls)
     s_psi        :    252.35s CPU    252.58s WALL (     740 calls)
     g_psi        :      0.53s CPU      0.53s WALL (     634 calls)

     Called by h_psi:
     h_psi:calbec :    317.40s CPU    317.90s WALL (     740 calls)
     vloc_psi     :    125.87s CPU    133.40s WALL (     740 calls)
     add_vuspsi   :    252.56s CPU    252.80s WALL (     740 calls)

     General routines
     calbec       :    534.77s CPU    535.56s WALL (     924 calls)
     fft          :     10.66s CPU     11.16s WALL (    1089 calls)
     ffts         :      0.29s CPU      0.32s WALL (      52 calls)
     fftw         :    129.42s CPU    137.11s WALL (   54066 calls)

     Parallel routines

     PWSCF        :  38m49.56s CPU  39m26.51s WALL


   This run was terminated on:  10:58:13  11Jun2023            

=------------------------------------------------------------------------------=
   JOB DONE.
=------------------------------------------------------------------------------=
