
     Program PWSCF v.7.2 starts on 11Jun2023 at  9:39:31 

     This program is part of the open-source Quantum ESPRESSO suite
     for quantum simulation of materials; please cite
         "P. Giannozzi et al., J. Phys.:Condens. Matter 21 395502 (2009);
         "P. Giannozzi et al., J. Phys.:Condens. Matter 29 465901 (2017);
         "P. Giannozzi et al., J. Chem. Phys. 152 154105 (2020);
          URL http://www.quantum-espresso.org", 
     in publications or presentations arising from this work. More details at
     http://www.quantum-espresso.org/quote

     Parallel version (MPI), running on    12 processors

     MPI processes distributed on     1 nodes
     75814 MiB available memory on the printing compute node when the environment starts

     Reading input from md_data/md_Hf5Nb2Ta10Zr5H_10steps_50eV_incident45_polar180.in
Warning: card &CELL ignored
Warning: card / ignored

     Current dimensions of program PWSCF are:
     Max number of different atomic species (ntypx) = 10
     Max number of k-points (npk) =  40000
     Max angular momentum in pseudopotentials (lmaxx) =  4

     File outdir/pwscf.md deleted, as requested

     gamma-point specific algorithms are used

     R & G space division:  proc/nbgrp/npool/nimage =      12
     Subspace diagonalization in iterative solution of the eigenvalue problem:
     one sub-group per band group will be used
     custom distributed-memory algorithm (size of sub-group:  2*  2 procs)


     Parallelization info
     --------------------
     sticks:   dense  smooth     PW     G-vecs:    dense   smooth      PW
     Min         723     723    180                64572    64572    8072
     Max         724     724    182                64584    64584    8078
     Sum        8687    8687   2177               774967   774967   96907

     Using Slab Decomposition



     bravais-lattice index     =            0
     lattice parameter (alat)  =      13.8706  a.u.
     unit-cell volume          =    4363.8306 (a.u.)^3
     number of atoms/cell      =           23
     number of atomic types    =            5
     number of electrons       =       277.00
     number of Kohn-Sham states=          167
     kinetic-energy cutoff     =     120.0000  Ry
     charge density cutoff     =     480.0000  Ry
     scf convergence threshold =      1.0E-03
     mixing beta               =       0.7000
     number of iterations used =            8  TF        mixing
     energy convergence thresh.=      0.0E+00
     force convergence thresh. =      0.0E+00
     Exchange-correlation=  SLA  PW   PBX  PBC
                           (   1   4   3   4   0   0   0)
     nstep                     =           10


     celldm(1)=  13.870589  celldm(2)=   0.000000  celldm(3)=   0.000000
     celldm(4)=   0.000000  celldm(5)=   0.000000  celldm(6)=   0.000000

     crystal axes: (cart. coord. in units of alat)
               a(1) = (   1.000000   0.000000   0.000000 )  
               a(2) = (   0.000000   1.182561   0.000000 )  
               a(3) = (   0.000000   0.000000   1.382801 )  

     reciprocal axes: (cart. coord. in units 2 pi/alat)
               b(1) = (  1.000000  0.000000  0.000000 )  
               b(2) = (  0.000000  0.845622  0.000000 )  
               b(3) = (  0.000000  0.000000  0.723170 )  


     PseudoPot. # 1 for Hf read from file:
     q-e/pseudo/hf_pbe_v1.uspp.F.UPF
     MD5 check sum: 8ee9378dfe14276e333edf04c5e4aa26
     Pseudo is Ultrasoft + core correction, Zval = 12.0
     Generated by new atomic code, or converted to UPF format
     Using radial grid of  921 points,  8 beta functions with: 
                l(1) =   0
                l(2) =   0
                l(3) =   0
                l(4) =   1
                l(5) =   1
                l(6) =   2
                l(7) =   2
                l(8) =   3
     Q(r) pseudized with  6 coefficients,  rinner =    1.200   1.200   1.200
                                                       1.200   1.200   1.200
                                                       1.200

     PseudoPot. # 2 for Nb read from file:
     q-e/pseudo/nb_pbe_v1.uspp.F.UPF
     MD5 check sum: 573aab8a2fa660278ed4a62cd769473f
     Pseudo is Ultrasoft + core correction, Zval = 13.0
     Generated by new atomic code, or converted to UPF format
     Using radial grid of  887 points,  6 beta functions with: 
                l(1) =   0
                l(2) =   0
                l(3) =   1
                l(4) =   1
                l(5) =   2
                l(6) =   2
     Q(r) pseudized with  6 coefficients,  rinner =    1.000   1.000   1.000
                                                       1.000   1.000

     PseudoPot. # 3 for Ta read from file:
     q-e/pseudo/ta_pbe_v1.uspp.F.UPF
     MD5 check sum: f8bbe9446314a3b8ea5d9f3e3836c939
     Pseudo is Ultrasoft + core correction, Zval = 13.0
     Generated by new atomic code, or converted to UPF format
     Using radial grid of  921 points,  7 beta functions with: 
                l(1) =   0
                l(2) =   0
                l(3) =   1
                l(4) =   1
                l(5) =   2
                l(6) =   2
                l(7) =   3
     Q(r) pseudized with  6 coefficients,  rinner =    1.300   1.300   1.300
                                                       1.300   1.300   1.300
                                                       1.300

     PseudoPot. # 4 for Zr read from file:
     q-e/pseudo/zr_pbe_v1.uspp.F.UPF
     MD5 check sum: 5db81b1e868ab7776c4564c113de050b
     Pseudo is Ultrasoft + core correction, Zval = 12.0
     Generated by new atomic code, or converted to UPF format
     Using radial grid of  887 points,  6 beta functions with: 
                l(1) =   0
                l(2) =   0
                l(3) =   1
                l(4) =   1
                l(5) =   2
                l(6) =   2
     Q(r) pseudized with  6 coefficients,  rinner =    1.200   1.200   1.200
                                                       1.200   1.200

     PseudoPot. # 5 for H  read from file:
     q-e/pseudo/h_pbe_v1.4.uspp.F.UPF
     MD5 check sum: 761ae9a214b05c3daf00ab9f6b793d6f
     Pseudo is Ultrasoft, Zval =  1.0
     Generated by new atomic code, or converted to UPF format
     Using radial grid of  615 points,  2 beta functions with: 
                l(1) =   0
                l(2) =   0
     Q(r) pseudized with  8 coefficients,  rinner =    0.700

     atomic species   valence    mass     pseudopotential
        Hf            12.00   178.49000     Hf( 1.00)
        Nb            13.00    92.90637     Nb( 1.00)
        Ta            13.00   180.94788     Ta( 1.00)
        Zr            12.00    91.22400     Zr( 1.00)
        H              1.00     2.01400     H ( 1.00)

     Starting magnetic structure 
     atomic species   magnetization
        Hf           0.000
        Nb           0.000
        Ta           0.000
        Zr           0.000
        H            0.000

     No symmetry found



   Cartesian axes

     site n.     atom                  positions (alat units)
         1           Hf  tau(   1) = (   0.3637602   0.3851666   0.8997227  )
         2           Hf  tau(   2) = (   0.1707072   0.1752431   0.6891644  )
         3           Hf  tau(   3) = (   0.1710473   1.0067854   0.6931973  )
         4           Hf  tau(   4) = (   0.5568133   0.1752431   0.6891644  )
         5           Hf  tau(   5) = (   0.5564732   1.0067854   0.6931973  )
         6           Nb  tau(   6) = (   0.3637602   0.3810532   0.4789623  )
         7           Nb  tau(   7) = (   0.3637602   0.8005966   0.9039507  )
         8           Ta  tau(   8) = (   0.1647647   0.5914071   0.6908891  )
         9           Ta  tau(   9) = (   0.5627557   0.5914071   0.6908891  )
        10           Ta  tau(  10) = (   0.1780998   0.1790358   0.2804876  )
        11           Ta  tau(  11) = (   0.1774916   0.1782549   1.1028038  )
        12           Ta  tau(  12) = (   0.1776580   1.0048810   0.2787789  )
        13           Ta  tau(  13) = (   0.1781622   1.0034173   1.1016352  )
        14           Ta  tau(  14) = (   0.5494206   0.1790358   0.2804876  )
        15           Ta  tau(  15) = (   0.5500289   0.1782549   1.1028038  )
        16           Ta  tau(  16) = (   0.5498625   1.0048810   0.2787789  )
        17           Ta  tau(  17) = (   0.5493582   1.0034173   1.1016352  )
        18           Zr  tau(  18) = (   0.3637602   0.7992215   0.4805700  )
        19           Zr  tau(  19) = (   0.1694598   0.5888390   0.2724796  )
        20           Zr  tau(  20) = (   0.1689898   0.5932048   1.1103210  )
        21           Zr  tau(  21) = (   0.5580607   0.5888390   0.2724796  )
        22           Zr  tau(  22) = (   0.5585306   0.5932048   1.1103210  )
        23           H   tau(  23) = (   0.6590918   0.4949446   0.6910327  )

     number of k points=     1  Gaussian smearing, width (Ry)=  0.0220
                       cart. coord. in units 2pi/alat
        k(    1) = (   0.0000000   0.0000000   0.0000000), wk =   1.0000000

     Dense  grid:   387484 G-vectors     FFT dimensions: ( 100, 120, 135)

     Estimated max dynamical RAM per process >     326.54 MB

     Estimated total dynamical RAM >       3.83 GB

     Check: negative core charge=   -0.000002
     Generating pointlists ...
     new r_m :   0.1385 (alat units)  1.9206 (a.u.) for type    1
     new r_m :   0.1397 (alat units)  1.9374 (a.u.) for type    2
     new r_m :   0.0562 (alat units)  0.7800 (a.u.) for type    3
     new r_m :   0.1415 (alat units)  1.9625 (a.u.) for type    4
     new r_m :   0.0562 (alat units)  0.7800 (a.u.) for type    5

     Initial potential from superposition of free atoms

     starting charge     266.9726, renormalised to     277.0000

     negative rho (up, down):  9.202E-01 9.202E-01
     Starting wfcs are  287 randomized atomic wfcs

     total cpu time spent up to now is       23.3 secs

     Self-consistent Calculation

     iteration #  1     ecut=   120.00 Ry     beta= 0.70
     Davidson diagonalization with overlap
     ethr =  1.00E-02,  avg # of iterations =  3.0

     negative rho (up, down):  9.512E-01 9.510E-01

     total cpu time spent up to now is       62.9 secs

     total energy              =   -2933.13036489 Ry
     estimated scf accuracy    <     321.21016563 Ry

     total magnetization       =     0.00 Bohr mag/cell
     absolute magnetization    =     0.08 Bohr mag/cell

     iteration #  2     ecut=   120.00 Ry     beta= 0.70
     Davidson diagonalization with overlap
     ethr =  1.00E-02,  avg # of iterations =  4.0

     negative rho (up, down):  8.884E-01 8.885E-01

     total cpu time spent up to now is      102.4 secs

     total energy              =   -2941.27026773 Ry
     estimated scf accuracy    <      47.53376964 Ry

     total magnetization       =    -0.02 Bohr mag/cell
     absolute magnetization    =     0.17 Bohr mag/cell

     iteration #  3     ecut=   120.00 Ry     beta= 0.70
     Davidson diagonalization with overlap
     ethr =  1.00E-02,  avg # of iterations =  4.0

     negative rho (up, down):  9.124E-01 9.126E-01

     total cpu time spent up to now is      139.0 secs

     total energy              =   -2941.89750354 Ry
     estimated scf accuracy    <      17.24358532 Ry

     total magnetization       =    -0.01 Bohr mag/cell
     absolute magnetization    =     0.18 Bohr mag/cell

     iteration #  4     ecut=   120.00 Ry     beta= 0.70
     Davidson diagonalization with overlap
     ethr =  6.23E-03,  avg # of iterations =  3.0

     negative rho (up, down):  9.206E-01 9.205E-01

     total cpu time spent up to now is      173.8 secs

     total energy              =   -2942.15850349 Ry
     estimated scf accuracy    <       3.58465816 Ry

     total magnetization       =    -0.02 Bohr mag/cell
     absolute magnetization    =     0.22 Bohr mag/cell

     iteration #  5     ecut=   120.00 Ry     beta= 0.70
     Davidson diagonalization with overlap
     ethr =  1.29E-03,  avg # of iterations =  7.5

     negative rho (up, down):  9.136E-01 9.135E-01

     total cpu time spent up to now is      216.6 secs

     total energy              =   -2942.34920809 Ry
     estimated scf accuracy    <       1.54552467 Ry

     total magnetization       =    -0.01 Bohr mag/cell
     absolute magnetization    =     0.14 Bohr mag/cell

     iteration #  6     ecut=   120.00 Ry     beta= 0.70
     Davidson diagonalization with overlap
     ethr =  5.58E-04,  avg # of iterations =  2.0

     negative rho (up, down):  9.122E-01 9.121E-01

     total cpu time spent up to now is      249.3 secs

     total energy              =   -2942.35208688 Ry
     estimated scf accuracy    <       0.76314871 Ry

     total magnetization       =    -0.01 Bohr mag/cell
     absolute magnetization    =     0.11 Bohr mag/cell

     iteration #  7     ecut=   120.00 Ry     beta= 0.70
     Davidson diagonalization with overlap
     ethr =  2.76E-04,  avg # of iterations =  4.0

     negative rho (up, down):  9.060E-01 9.059E-01

     total cpu time spent up to now is      283.1 secs

     total energy              =   -2942.37609696 Ry
     estimated scf accuracy    <       0.12606415 Ry

     total magnetization       =    -0.02 Bohr mag/cell
     absolute magnetization    =     0.09 Bohr mag/cell

     iteration #  8     ecut=   120.00 Ry     beta= 0.70
     Davidson diagonalization with overlap
     ethr =  4.55E-05,  avg # of iterations = 11.5

     negative rho (up, down):  9.042E-01 9.042E-01

     total cpu time spent up to now is      327.1 secs

     total energy              =   -2942.37820286 Ry
     estimated scf accuracy    <       0.09866595 Ry

     total magnetization       =    -0.02 Bohr mag/cell
     absolute magnetization    =     0.05 Bohr mag/cell

     iteration #  9     ecut=   120.00 Ry     beta= 0.70
     Davidson diagonalization with overlap
     ethr =  3.56E-05,  avg # of iterations =  2.0

     negative rho (up, down):  9.053E-01 9.053E-01

     total cpu time spent up to now is      361.5 secs

     total energy              =   -2942.38495887 Ry
     estimated scf accuracy    <       0.03877156 Ry

     total magnetization       =    -0.02 Bohr mag/cell
     absolute magnetization    =     0.04 Bohr mag/cell

     iteration # 10     ecut=   120.00 Ry     beta= 0.70
     Davidson diagonalization with overlap
     ethr =  1.40E-05,  avg # of iterations =  4.5

     negative rho (up, down):  9.060E-01 9.060E-01

     total cpu time spent up to now is      396.9 secs

     total energy              =   -2942.38710188 Ry
     estimated scf accuracy    <       0.00729103 Ry

     total magnetization       =    -0.01 Bohr mag/cell
     absolute magnetization    =     0.03 Bohr mag/cell

     iteration # 11     ecut=   120.00 Ry     beta= 0.70
     Davidson diagonalization with overlap
     ethr =  2.63E-06,  avg # of iterations =  7.5

     negative rho (up, down):  9.067E-01 9.067E-01

     total cpu time spent up to now is      433.2 secs

     total energy              =   -2942.38758316 Ry
     estimated scf accuracy    <       0.00140256 Ry

     total magnetization       =    -0.01 Bohr mag/cell
     absolute magnetization    =     0.02 Bohr mag/cell

     iteration # 12     ecut=   120.00 Ry     beta= 0.70
     Davidson diagonalization with overlap
     ethr =  5.06E-07,  avg # of iterations =  5.0

     negative rho (up, down):  9.066E-01 9.066E-01

     Magnetic moment per site  (integrated on atomic sphere of radius R)
     atom   1 (R=0.138)  charge=  9.2504   -0.0001
     atom   2 (R=0.138)  charge=  8.8873   -0.0003
     atom   3 (R=0.138)  charge=  8.8887    0.0001
     atom   4 (R=0.138)  charge=  8.8774   -0.0001
     atom   5 (R=0.138)  charge=  8.8931   -0.0003
     atom   6 (R=0.140)  charge= 10.3492   -0.0001
     atom   7 (R=0.140)  charge= 10.3514   -0.0001
     atom   8 (R=0.056)  charge=  1.3487   -0.0000
     atom   9 (R=0.056)  charge=  1.3650   -0.0000
     atom  10 (R=0.056)  charge=  1.3456   -0.0000
     atom  11 (R=0.056)  charge=  1.3451   -0.0000
     atom  12 (R=0.056)  charge=  1.3454    0.0000
     atom  13 (R=0.056)  charge=  1.3454    0.0000
     atom  14 (R=0.056)  charge=  1.3466   -0.0000
     atom  15 (R=0.056)  charge=  1.3467   -0.0000
     atom  16 (R=0.056)  charge=  1.3454   -0.0000
     atom  17 (R=0.056)  charge=  1.3464   -0.0000
     atom  18 (R=0.141)  charge=  9.4540   -0.0000
     atom  19 (R=0.141)  charge=  8.9978   -0.0004
     atom  20 (R=0.141)  charge=  8.9936   -0.0010
     atom  21 (R=0.141)  charge=  8.9997   -0.0003
     atom  22 (R=0.141)  charge=  8.9974   -0.0007
     atom  23 (R=0.056)  charge=  0.7704    0.0000

     total cpu time spent up to now is      471.4 secs

     End of self-consistent calculation

 ------ SPIN UP ------------


          k = 0.0000 0.0000 0.0000 ( 48454 PWs)   bands (ev):

   -57.8447 -57.8386 -57.7990 -57.7931 -57.7617 -57.7612 -57.7168 -57.7164
   -57.6189 -57.3946 -51.4145 -51.3627 -51.2872 -51.2300 -49.7042 -43.2457
   -43.2169 -38.6394 -38.6183 -38.5381 -38.5347 -36.8269 -25.9178 -24.8585
   -24.8547 -24.7719 -24.7696 -24.6546 -24.6485 -24.5350 -24.5227 -24.3916
   -24.3685 -24.3391 -24.3067 -24.3012 -24.2788 -24.2553 -24.2363 -24.1974
   -24.1912 -24.1505 -24.0315 -24.0189 -24.0171 -24.0155 -23.9660 -23.9560
   -23.9217 -23.9198 -23.6537 -23.6121 -21.1990 -20.9855 -20.6712 -20.5886
   -20.3334 -20.1917 -20.1528 -20.0585 -19.9554 -19.8671 -19.8635 -19.6418
   -19.4924 -19.4392 -19.3826 -19.3360 -19.2844 -19.2238 -18.7771 -18.7004
   -18.6352 -17.1901 -16.8777 -16.8601 -16.8286 -16.6277 -16.6175 -16.6066
   -16.6028 -16.5700 -16.5377 -16.3226 -16.3002 -15.1930 -14.9650 -14.8371
     4.1468   5.1005   5.8003   6.1392   6.2510   6.4142   6.5193   6.5967
     6.5989   6.8284   6.9371   7.1130   7.2184   7.3947   7.4339   7.5840
     7.6668   7.7734   7.9500   8.0242   8.0711   8.1599   8.2273   8.2562
     8.3700   8.4680   8.5502   8.6249   8.6720   8.7040   8.7679   8.7793
     8.8497   9.0107   9.0580   9.1596   9.1847   9.2584   9.3032   9.3154
     9.3729   9.4915   9.6411   9.7574   9.7996   9.9523   9.9753  10.0894
    10.1599  10.1802  10.2855  10.3529  10.3966  10.4273  10.5448  10.5957
    10.7077  10.7644  10.9096  10.9215  11.0166  11.0305  11.1386  11.2227
    11.2630  11.3571  11.3934  11.5813  11.6789  11.7557  11.7999  11.8245
    11.9995  12.1170  12.1747  12.1897  12.1916  12.2111  12.2305

 ------ SPIN DOWN ----------


          k = 0.0000 0.0000 0.0000 ( 48454 PWs)   bands (ev):

   -57.8447 -57.8388 -57.7990 -57.7932 -57.7618 -57.7613 -57.7168 -57.7164
   -57.6190 -57.3947 -51.4146 -51.3629 -51.2873 -51.2302 -49.7043 -43.2457
   -43.2171 -38.6397 -38.6190 -38.5384 -38.5355 -36.8269 -25.9179 -24.8586
   -24.8549 -24.7720 -24.7696 -24.6547 -24.6488 -24.5351 -24.5228 -24.3918
   -24.3686 -24.3392 -24.3067 -24.3014 -24.2789 -24.2553 -24.2363 -24.1975
   -24.1912 -24.1507 -24.0315 -24.0191 -24.0173 -24.0157 -23.9660 -23.9561
   -23.9218 -23.9199 -23.6538 -23.6123 -21.1993 -20.9859 -20.6714 -20.5888
   -20.3337 -20.1919 -20.1531 -20.0588 -19.9556 -19.8673 -19.8637 -19.6420
   -19.4926 -19.4393 -19.3828 -19.3361 -19.2846 -19.2239 -18.7773 -18.7005
   -18.6353 -17.1905 -16.8791 -16.8603 -16.8289 -16.6279 -16.6179 -16.6070
   -16.6032 -16.5709 -16.5384 -16.3231 -16.3014 -15.1929 -14.9650 -14.8372
     4.1466   5.1004   5.8000   6.1391   6.2508   6.4140   6.5190   6.5965
     6.5986   6.8282   6.9369   7.1127   7.2181   7.3944   7.4336   7.5837
     7.6665   7.7730   7.9497   8.0240   8.0709   8.1596   8.2269   8.2558
     8.3697   8.4677   8.5496   8.6242   8.6717   8.7039   8.7677   8.7790
     8.8494   9.0105   9.0577   9.1594   9.1844   9.2581   9.3029   9.3152
     9.3726   9.4912   9.6408   9.7570   9.7993   9.9518   9.9751  10.0888
    10.1593  10.1799  10.2841  10.3513  10.3963  10.4267  10.5446  10.5951
    10.7073  10.7640  10.9092  10.9211  11.0161  11.0302  11.1382  11.2224
    11.2626  11.3568  11.3932  11.5807  11.6786  11.7551  11.7991  11.8237
    11.9991  12.1166  12.1744  12.1895  12.1912  12.2101  12.2313

     the Fermi energy is    10.2691 ev

!    total energy              =   -2942.38770358 Ry
     estimated scf accuracy    <       0.00025773 Ry
     smearing contrib. (-TS)   =      -0.09679671 Ry
     internal energy E=F+TS    =   -2942.29090687 Ry

     total magnetization       =    -0.01 Bohr mag/cell
     absolute magnetization    =     0.02 Bohr mag/cell

     convergence has been achieved in  12 iterations

     negative rho (up, down):  9.066E-01 9.066E-01

     Forces acting on atoms (cartesian axes, Ry/au):

     atom    1 type  1   force =     0.00346549   -0.01605218    0.00608249
     atom    2 type  1   force =    -0.13244122   -0.01915095   -0.00276090
     atom    3 type  1   force =    -0.12801544    0.01657250    0.00578920
     atom    4 type  1   force =     0.13316157    0.00705029   -0.00235144
     atom    5 type  1   force =     0.14973331    0.01767872    0.00584917
     atom    6 type  2   force =     0.00106623   -0.01617229    0.00284041
     atom    7 type  2   force =     0.00634484    0.01725174    0.00419434
     atom    8 type  3   force =    -0.14760765   -0.00505122   -0.00208899
     atom    9 type  3   force =    -1.41875821    1.58154393   -0.01927348
     atom   10 type  3   force =    -0.03159966   -0.01898873   -0.06092210
     atom   11 type  3   force =    -0.03422233   -0.02688449    0.06068983
     atom   12 type  3   force =    -0.03135904    0.02669024   -0.06143545
     atom   13 type  3   force =    -0.03167253    0.01713218    0.06377303
     atom   14 type  3   force =     0.02906752   -0.02177856   -0.05837870
     atom   15 type  3   force =     0.03143009   -0.02911609    0.05612059
     atom   16 type  3   force =     0.02104185    0.02616287   -0.05714226
     atom   17 type  3   force =     0.02187877    0.02049833    0.05915913
     atom   18 type  4   force =     0.01330148    0.01233302   -0.01443977
     atom   19 type  4   force =    -0.15105316   -0.00328454   -0.12008562
     atom   20 type  4   force =    -0.15555683    0.00660445    0.12219629
     atom   21 type  4   force =     0.14280681   -0.00172540   -0.11769416
     atom   22 type  4   force =     0.14706693    0.01047292    0.12127602
     atom   23 type  5   force =     1.56192118   -1.60178673    0.00860237
     The non-local contrib.  to forces
     atom    1 type  1   force =     0.00760428   -0.00150296    0.02687399
     atom    2 type  1   force =    -0.24589284   -0.16645753    0.01510496
     atom    3 type  1   force =    -0.24458348    0.16228961   -0.02767548
     atom    4 type  1   force =     0.23815350   -0.15049848    0.01639345
     atom    5 type  1   force =     0.24821754    0.16139865   -0.02895962
     atom    6 type  2   force =    -0.00120055   -0.07756038   -0.04941172
     atom    7 type  2   force =     0.00022697    0.07972047    0.06068701
     atom    8 type  3   force =    -0.26151226    0.00130674   -0.00439636
     atom    9 type  3   force =     0.82800418   -0.58647178   -0.01343729
     atom   10 type  3   force =    -0.24012390    0.00316473   -0.22473077
     atom   11 type  3   force =    -0.24504947    0.00991393    0.21411494
     atom   12 type  3   force =    -0.23098562   -0.01910689   -0.19978297
     atom   13 type  3   force =    -0.24222795   -0.00511398    0.22541509
     atom   14 type  3   force =     0.23724538    0.00910534   -0.22105518
     atom   15 type  3   force =     0.24390730    0.01292689    0.21186052
     atom   16 type  3   force =     0.21930917   -0.02437601   -0.19584859
     atom   17 type  3   force =     0.22681789   -0.00801755    0.22019737
     atom   18 type  4   force =    -0.00378521    0.07294014   -0.06390824
     atom   19 type  4   force =     0.07899959    0.00135680    0.05404559
     atom   20 type  4   force =     0.07399892   -0.00526473   -0.04888806
     atom   21 type  4   force =    -0.06880768   -0.00088714    0.04374028
     atom   22 type  4   force =    -0.06480947   -0.00191185   -0.04207303
     atom   23 type  5   force =    -0.13962323    0.14124484    0.00160999
     The ionic contribution  to forces
     atom    1 type  1   force =    -0.51210410   -4.84204700   15.25234050
     atom    2 type  1   force =   -27.84079968   -6.39556453    0.78084490
     atom    3 type  1   force =   -27.82605072    6.23533815   -0.71419672
     atom    4 type  1   force =    27.52856526   -7.11081915    0.77656121
     atom    5 type  1   force =    27.74496187    6.35201957   -0.71330520
     atom    6 type  2   force =    -0.53835609   -3.81581866  -15.25044625
     atom    7 type  2   force =    -0.23102061    3.90723370   15.03737360
     atom    8 type  3   force =   -38.67455758    0.22247588   -0.06740088
     atom    9 type  3   force =    33.57359021    5.18902633   -0.07479722
     atom   10 type  3   force =   -24.85505597   -2.19446394  -24.67216340
     atom   11 type  3   force =   -23.92759428   -0.92797171   23.66770626
     atom   12 type  3   force =   -24.04632196    0.80806101  -23.66633401
     atom   13 type  3   force =   -24.83071075    2.21611215   24.60580741
     atom   14 type  3   force =    24.77914565   -2.29457460  -24.80787014
     atom   15 type  3   force =    23.85304129   -1.02712800   23.80222493
     atom   16 type  3   force =    24.00894951    0.83721673  -23.71614237
     atom   17 type  3   force =    24.79270993    2.24605474   24.65608704
     atom   18 type  4   force =    -0.21683330    4.66487366  -14.88387061
     atom   19 type  4   force =   -25.11154377    1.02669126  -27.15165459
     atom   20 type  4   force =   -25.06771780   -0.91598117   27.13003186
     atom   21 type  4   force =    24.99212119    1.09559435  -27.45526413
     atom   22 type  4   force =    24.95066712   -0.84497567   27.42949370
     atom   23 type  5   force =     7.45491459   -4.43135309    0.03497412
     The local contribution  to forces
     atom    1 type  1   force =     0.50797209    4.83050895  -15.27409145
     atom    2 type  1   force =    27.96272110    6.54628353   -0.80306753
     atom    3 type  1   force =    27.95276495   -6.38698169    0.74827992
     atom    4 type  1   force =   -27.63574756    7.27451180   -0.79902372
     atom    5 type  1   force =   -27.85423990   -6.49977153    0.75044493
     atom    6 type  2   force =     0.54010476    3.88744443   15.28826434
     atom    7 type  2   force =     0.23752039   -3.97264857  -15.08377922
     atom    8 type  3   force =    38.81241667   -0.22631967    0.06311958
     atom    9 type  3   force =   -35.86163238   -2.99538602    0.06512113
     atom   10 type  3   force =    25.08939402    2.17082832   24.84647520
     atom   11 type  3   force =    24.16452139    0.88252451  -23.83169507
     atom   12 type  3   force =    24.27358807   -0.76171902   23.81074952
     atom   13 type  3   force =    25.06956025   -2.19653362  -24.77455377
     atom   14 type  3   force =   -25.01206117    2.26498770   24.98066046
     atom   15 type  3   force =   -24.08852516    0.97710321  -23.96795614
     atom   16 type  3   force =   -24.23369912   -0.78734675   23.86069779
     atom   17 type  3   force =   -25.02231208   -2.22015964  -24.82429093
     atom   18 type  4   force =     0.23197701   -4.73332864   14.91852267
     atom   19 type  4   force =    24.89676527   -1.03037165   26.97905928
     atom   20 type  4   force =    24.85139249    0.93405642  -26.95718446
     atom   21 type  4   force =   -24.79428902   -1.09537471   27.29289845
     atom   22 type  4   force =   -24.74979279    0.86418408  -27.26216039
     atom   23 type  5   force =    -5.75237734    2.68836923   -0.02860217
     The core correction contribution to forces
     atom    1 type  1   force =     0.00092471    0.00542340    0.00161215
     atom    2 type  1   force =    -0.01116440   -0.00175139    0.00095039
     atom    3 type  1   force =    -0.01133530    0.00240333   -0.00168563
     atom    4 type  1   force =     0.00616062   -0.00482555    0.00129597
     atom    5 type  1   force =     0.01235649    0.00271340   -0.00220837
     atom    6 type  2   force =     0.00027740    0.00388533    0.00206067
     atom    7 type  2   force =     0.00046738   -0.00428400   -0.00270435
     atom    8 type  3   force =    -0.03097126   -0.00039864   -0.00003414
     atom    9 type  3   force =     0.04767939   -0.02390314   -0.00202436
     atom   10 type  3   force =    -0.02589970    0.00589414   -0.01641021
     atom   11 type  3   force =    -0.02720685    0.00760205    0.01663091
     atom   12 type  3   force =    -0.02591857   -0.00675363   -0.01545568
     atom   13 type  3   force =    -0.02639581   -0.00517491    0.01675308
     atom   14 type  3   force =     0.02523099    0.00522591   -0.01542187
     atom   15 type  3   force =     0.02652785    0.00694683    0.01573364
     atom   16 type  3   force =     0.02524734   -0.00723683   -0.01629394
     atom   17 type  3   force =     0.02528425   -0.00554116    0.01708557
     atom   18 type  4   force =     0.00066493   -0.00460227    0.00351517
     atom   19 type  4   force =    -0.01055489    0.00053954   -0.00852543
     atom   20 type  4   force =    -0.01034387   -0.00006515    0.00836561
     atom   21 type  4   force =     0.00990799    0.00080633   -0.00772293
     atom   22 type  4   force =     0.00979740   -0.00016549    0.00784581
     atom   23 type  5   force =     0.00000000    0.00000000    0.00000000
     The Hubbard contrib.    to forces
     atom    1 type  1   force =     0.00000000    0.00000000    0.00000000
     atom    2 type  1   force =     0.00000000    0.00000000    0.00000000
     atom    3 type  1   force =     0.00000000    0.00000000    0.00000000
     atom    4 type  1   force =     0.00000000    0.00000000    0.00000000
     atom    5 type  1   force =     0.00000000    0.00000000    0.00000000
     atom    6 type  2   force =     0.00000000    0.00000000    0.00000000
     atom    7 type  2   force =     0.00000000    0.00000000    0.00000000
     atom    8 type  3   force =     0.00000000    0.00000000    0.00000000
     atom    9 type  3   force =     0.00000000    0.00000000    0.00000000
     atom   10 type  3   force =     0.00000000    0.00000000    0.00000000
     atom   11 type  3   force =     0.00000000    0.00000000    0.00000000
     atom   12 type  3   force =     0.00000000    0.00000000    0.00000000
     atom   13 type  3   force =     0.00000000    0.00000000    0.00000000
     atom   14 type  3   force =     0.00000000    0.00000000    0.00000000
     atom   15 type  3   force =     0.00000000    0.00000000    0.00000000
     atom   16 type  3   force =     0.00000000    0.00000000    0.00000000
     atom   17 type  3   force =     0.00000000    0.00000000    0.00000000
     atom   18 type  4   force =     0.00000000    0.00000000    0.00000000
     atom   19 type  4   force =     0.00000000    0.00000000    0.00000000
     atom   20 type  4   force =     0.00000000    0.00000000    0.00000000
     atom   21 type  4   force =     0.00000000    0.00000000    0.00000000
     atom   22 type  4   force =     0.00000000    0.00000000    0.00000000
     atom   23 type  5   force =     0.00000000    0.00000000    0.00000000
     The SCF correction term to forces
     atom    1 type  1   force =    -0.00000000   -0.00000000   -0.00000000
     atom    2 type  1   force =     0.00000000   -0.00000000    0.00000000
     atom    3 type  1   force =     0.00000000    0.00000000    0.00000000
     atom    4 type  1   force =    -0.00000000   -0.00000000    0.00000000
     atom    5 type  1   force =    -0.00000000    0.00000000   -0.00000000
     atom    6 type  2   force =     0.00000000   -0.00000000    0.00000000
     atom    7 type  2   force =    -0.00000000    0.00000000   -0.00000000
     atom    8 type  3   force =     0.00000000   -0.00000000    0.00000000
     atom    9 type  3   force =    -0.00000000   -0.00000000    0.00000000
     atom   10 type  3   force =     0.00015590   -0.00441365    0.00570861
     atom   11 type  3   force =     0.00117689    0.00104504   -0.00626568
     atom   12 type  3   force =    -0.00165095    0.00620709    0.00918922
     atom   13 type  3   force =    -0.00182826    0.00784085   -0.00984723
     atom   14 type  3   force =    -0.00042333   -0.00652458    0.00510957
     atom   15 type  3   force =    -0.00345117    0.00103331   -0.00594082
     atom   16 type  3   force =     0.00130494    0.00790406    0.01024640
     atom   17 type  3   force =    -0.00055122    0.00816027   -0.01011837
     atom   18 type  4   force =     0.00134806    0.01244846    0.01110277
     atom   19 type  4   force =    -0.00464936   -0.00150217    0.00679107
     atom   20 type  4   force =    -0.00281658   -0.00614261   -0.01032713
     atom   21 type  4   force =     0.00394433   -0.00186590    0.00845571
     atom   22 type  4   force =     0.00127467   -0.00665984   -0.01202853
     atom   23 type  5   force =    -0.00092284   -0.00004938    0.00042195

     Total force =     2.278822     Total SCF correction =     0.040268

     Molecular Dynamics Calculation

     Starting temperature  =   300.00 K

     temperature is set once at start

     mass Hf               =   178.49
     mass Nb               =    92.91
     mass Ta               =   180.95
     mass Zr               =    91.22
     mass H                =     2.01
     Time step             =     4.20 a.u.,  0.2032 femto-seconds

     Entering Dynamics:    iteration =     1
                           time      =   0.0002 pico-seconds


ATOMIC_POSITIONS (angstrom)
Hf            2.6699999570        2.8271230292        6.6039642186    0   0   0
Hf            1.2529906802        1.2862841814        5.0584662261    0   0   0
Hf            1.2554868986        7.3898042948        5.0880677674    0   0   0
Hf            4.0870092338        1.2862841814        5.0584662261    0   0   0
Hf            4.0845130154        7.3898042948        5.0880677674    0   0   0
Nb            2.6699999570        2.7969306055        3.5155832167    0   0   0
Nb            2.6699999570        5.8763786763        6.6349979432    0   0   0
Ta            1.2093730560        4.3409278516        5.0711258323    0   0   0
Ta            4.1306268580        4.3409278516        5.0711258323    0   0   0
Ta            1.3072517898        1.3141220520        2.0587773860
Ta            1.3027873457        1.3083903752        8.0945809199
Ta            1.3040087346        7.3758268794        2.0462354412
Ta            1.3077099021        7.3650834332        8.0860040256
Ta            4.0327480525        1.3141219731        2.0587774580
Ta            4.0372124893        1.3083903120        8.0945807906
Ta            4.0359908874        7.3758268645        2.0462355627
Ta            4.0322897348        7.3650835285        8.0860038950
Zr            2.6700007037        5.8662865357        3.5273831198
Zr            1.2438261397        4.3220777801        1.9999932590
Zr            1.2403766806        4.3541236552        8.1497624087
Zr            4.0961733114        4.3220778676        1.9999933933
Zr            4.0996227568        4.3541238724        8.1497623571
H             4.7919866835        3.5791021307        5.0722016673


     kinetic energy (Ekin) =           0.91858963 Ry
     temperature           =        6906.37296904 K 
     Ekin + Etot (const)   =       -2941.46911394 Ry

     File outdir/pwscf.msd.dat deleted, as requested

     Writing config-only to output data dir outdir/pwscf.save/
     NEW-OLD atomic charge density approx. for the potential

     Check: negative core charge=   -0.000002

     negative rho (up, down):  9.066E-01 9.066E-01
     Generating pointlists ...
     new r_m :   0.1348 (alat units)  1.8699 (a.u.) for type    1

     total cpu time spent up to now is      492.4 secs

     Self-consistent Calculation

     iteration #  1     ecut=   120.00 Ry     beta= 0.70
     Davidson diagonalization with overlap
     ethr =  1.00E-06,  avg # of iterations =  7.5

     negative rho (up, down):  9.067E-01 9.067E-01

     total cpu time spent up to now is      557.5 secs

     total energy              =   -2942.42225332 Ry
     estimated scf accuracy    <       0.02695428 Ry

     total magnetization       =    -0.01 Bohr mag/cell
     absolute magnetization    =     0.01 Bohr mag/cell

     iteration #  2     ecut=   120.00 Ry     beta= 0.70
     Davidson diagonalization with overlap
     ethr =  9.73E-06,  avg # of iterations =  2.0

     negative rho (up, down):  9.066E-01 9.066E-01

     total cpu time spent up to now is      592.5 secs

     total energy              =   -2942.42396521 Ry
     estimated scf accuracy    <       0.00469233 Ry

     total magnetization       =    -0.01 Bohr mag/cell
     absolute magnetization    =     0.01 Bohr mag/cell

     iteration #  3     ecut=   120.00 Ry     beta= 0.70
     Davidson diagonalization with overlap
     ethr =  1.69E-06,  avg # of iterations =  2.0

     negative rho (up, down):  9.066E-01 9.066E-01

     Magnetic moment per site  (integrated on atomic sphere of radius R)
     atom   1 (R=0.135)  charge=  9.0419   -0.0001
     atom   2 (R=0.135)  charge=  8.7153   -0.0001
     atom   3 (R=0.135)  charge=  8.7168   -0.0000
     atom   4 (R=0.135)  charge=  8.7039   -0.0000
     atom   5 (R=0.135)  charge=  8.7215   -0.0001
     atom   6 (R=0.140)  charge= 10.3485   -0.0001
     atom   7 (R=0.140)  charge= 10.3528   -0.0001
     atom   8 (R=0.056)  charge=  1.3483   -0.0000
     atom   9 (R=0.056)  charge=  1.3648   -0.0000
     atom  10 (R=0.056)  charge=  1.3456   -0.0000
     atom  11 (R=0.056)  charge=  1.3454   -0.0000
     atom  12 (R=0.056)  charge=  1.3454    0.0000
     atom  13 (R=0.056)  charge=  1.3457    0.0000
     atom  14 (R=0.056)  charge=  1.3466   -0.0000
     atom  15 (R=0.056)  charge=  1.3469   -0.0000
     atom  16 (R=0.056)  charge=  1.3454   -0.0000
     atom  17 (R=0.056)  charge=  1.3466   -0.0000
     atom  18 (R=0.141)  charge=  9.4525   -0.0001
     atom  19 (R=0.141)  charge=  8.9928   -0.0002
     atom  20 (R=0.141)  charge=  8.9933   -0.0007
     atom  21 (R=0.141)  charge=  8.9940   -0.0003
     atom  22 (R=0.141)  charge=  8.9969   -0.0006
     atom  23 (R=0.056)  charge=  0.7593    0.0000

     total cpu time spent up to now is      626.6 secs

     End of self-consistent calculation

 ------ SPIN UP ------------


          k = 0.0000 0.0000 0.0000 ( 48454 PWs)   bands (ev):

   -57.8546 -57.8413 -57.8093 -57.7963 -57.7743 -57.7639 -57.7304 -57.7194
   -57.6026 -57.3761 -51.4048 -51.3507 -51.2766 -51.2127 -49.7026 -43.2521
   -43.2201 -38.6401 -38.6271 -38.5437 -38.5390 -36.8247 -25.8494 -24.8709
   -24.8582 -24.7828 -24.7753 -24.6638 -24.6511 -24.5478 -24.5242 -24.3930
   -24.3751 -24.3353 -24.3151 -24.3060 -24.2804 -24.2629 -24.2364 -24.2060
   -24.1972 -24.1374 -24.0442 -24.0290 -24.0203 -24.0180 -23.9792 -23.9592
   -23.9351 -23.9216 -23.6612 -23.6185 -21.1914 -20.9754 -20.6662 -20.5820
   -20.3275 -20.1874 -20.1446 -20.0514 -19.9480 -19.8574 -19.8553 -19.6331
   -19.4964 -19.4431 -19.3824 -19.3364 -19.2831 -19.2223 -18.7760 -18.6989
   -18.6367 -17.1883 -16.8862 -16.8592 -16.8282 -16.6293 -16.6264 -16.6156
   -16.6063 -16.5763 -16.5435 -16.3219 -16.3090 -15.1908 -14.9634 -14.8346
     4.1102   5.0539   5.7942   6.1364   6.2522   6.4181   6.5156   6.5910
     6.5947   6.8281   6.9305   7.1087   7.2170   7.4039   7.4262   7.5798
     7.6675   7.7841   7.9517   8.0202   8.0714   8.1522   8.2212   8.2533
     8.3688   8.4657   8.5480   8.6228   8.6659   8.6916   8.7634   8.7813
     8.8453   9.0061   9.0504   9.1518   9.1812   9.2547   9.3027   9.3116
     9.3705   9.4928   9.6496   9.7518   9.7936   9.9516   9.9667  10.0895
    10.1572  10.1752  10.2854  10.3526  10.3925  10.4214  10.5410  10.5919
    10.7078  10.7601  10.9082  10.9205  11.0160  11.0323  11.1353  11.2179
    11.2614  11.3653  11.3924  11.5789  11.6820  11.7612  11.7981  11.8214
    11.9977  12.1060  12.1627  12.1850  12.1895  12.2068  12.2310

 ------ SPIN DOWN ----------


          k = 0.0000 0.0000 0.0000 ( 48454 PWs)   bands (ev):

   -57.8546 -57.8414 -57.8094 -57.7964 -57.7744 -57.7639 -57.7304 -57.7195
   -57.6026 -57.3762 -51.4048 -51.3508 -51.2766 -51.2128 -49.7026 -43.2522
   -43.2202 -38.6403 -38.6277 -38.5443 -38.5392 -36.8247 -25.8495 -24.8709
   -24.8583 -24.7829 -24.7753 -24.6639 -24.6512 -24.5479 -24.5243 -24.3930
   -24.3752 -24.3353 -24.3152 -24.3061 -24.2805 -24.2630 -24.2364 -24.2061
   -24.1973 -24.1374 -24.0442 -24.0291 -24.0204 -24.0182 -23.9792 -23.9593
   -23.9352 -23.9217 -23.6613 -23.6186 -21.1914 -20.9755 -20.6662 -20.5820
   -20.3276 -20.1875 -20.1447 -20.0515 -19.9480 -19.8574 -19.8553 -19.6332
   -19.4965 -19.4432 -19.3825 -19.3364 -19.2832 -19.2224 -18.7761 -18.6990
   -18.6367 -17.1885 -16.8873 -16.8594 -16.8286 -16.6295 -16.6268 -16.6160
   -16.6065 -16.5769 -16.5441 -16.3223 -16.3099 -15.1909 -14.9635 -14.8347
     4.1101   5.0538   5.7940   6.1363   6.2521   6.4180   6.5155   6.5909
     6.5946   6.8280   6.9304   7.1086   7.2168   7.4037   7.4260   7.5796
     7.6673   7.7838   7.9515   8.0200   8.0712   8.1520   8.2210   8.2532
     8.3686   8.4655   8.5476   8.6224   8.6657   8.6914   8.7632   8.7811
     8.8451   9.0059   9.0501   9.1516   9.1810   9.2545   9.3025   9.3114
     9.3703   9.4925   9.6493   9.7515   9.7935   9.9512   9.9665  10.0891
    10.1569  10.1750  10.2843  10.3514  10.3923  10.4210  10.5407  10.5914
    10.7076  10.7598  10.9078  10.9202  11.0157  11.0321  11.1352  11.2177
    11.2611  11.3651  11.3923  11.5786  11.6818  11.7607  11.7978  11.8210
    11.9974  12.1059  12.1626  12.1848  12.1892  12.2065  12.2309

     the Fermi energy is    10.2663 ev

!    total energy              =   -2942.42386872 Ry
     estimated scf accuracy    <       0.00070183 Ry
     smearing contrib. (-TS)   =      -0.09680353 Ry
     internal energy E=F+TS    =   -2942.32706518 Ry

     total magnetization       =    -0.01 Bohr mag/cell
     absolute magnetization    =     0.01 Bohr mag/cell

     convergence has been achieved in   3 iterations

     negative rho (up, down):  9.066E-01 9.066E-01

     Forces acting on atoms (cartesian axes, Ry/au):

     atom    1 type  1   force =     0.00251556   -0.02361079    0.00957486
     atom    2 type  1   force =    -0.13165415   -0.02441107    0.00499259
     atom    3 type  1   force =    -0.12772534    0.02415509    0.01164801
     atom    4 type  1   force =     0.12964979    0.00809076    0.00442277
     atom    5 type  1   force =     0.15246139    0.02348745    0.01112034
     atom    6 type  2   force =     0.00000725   -0.01653477    0.00213125
     atom    7 type  2   force =     0.00652963    0.01911096    0.00159550
     atom    8 type  3   force =    -0.14442102   -0.00520085    0.00071683
     atom    9 type  3   force =    -1.26274505    1.60564122   -0.01502338
     atom   10 type  3   force =    -0.03119041   -0.02205492   -0.06192056
     atom   11 type  3   force =    -0.03196657   -0.02917397    0.05605265
     atom   12 type  3   force =    -0.03297920    0.03034109   -0.06088014
     atom   13 type  3   force =    -0.03262652    0.02271161    0.05837034
     atom   14 type  3   force =     0.03019603   -0.02509715   -0.05991581
     atom   15 type  3   force =     0.02994278   -0.03070731    0.05199827
     atom   16 type  3   force =     0.02256916    0.03130314   -0.05704894
     atom   17 type  3   force =     0.02146848    0.02626585    0.05406348
     atom   18 type  4   force =     0.01352953    0.01793825   -0.01188357
     atom   19 type  4   force =    -0.15179911   -0.00412638   -0.11923640
     atom   20 type  4   force =    -0.15558877    0.00446751    0.11582041
     atom   21 type  4   force =     0.14396112   -0.00289340   -0.11638876
     atom   22 type  4   force =     0.14704066    0.00729348    0.11386409
     atom   23 type  5   force =     1.40282476   -1.63699576    0.00592618
     The non-local contrib.  to forces
     atom    1 type  1   force =     0.00629100   -0.00542826    0.03081616
     atom    2 type  1   force =    -0.24687386   -0.16904287    0.01960727
     atom    3 type  1   force =    -0.24607447    0.16612832   -0.02419998
     atom    4 type  1   force =     0.23623250   -0.14588116    0.02004866
     atom    5 type  1   force =     0.25036879    0.16251880   -0.02608725
     atom    6 type  2   force =     0.00081358   -0.07791255   -0.04987769
     atom    7 type  2   force =     0.00011720    0.07902448    0.05938137
     atom    8 type  3   force =    -0.26117465    0.00022260   -0.00011460
     atom    9 type  3   force =     0.75521297   -0.62565887   -0.00855934
     atom   10 type  3   force =    -0.24036438    0.00240302   -0.22508811
     atom   11 type  3   force =    -0.24338749    0.00948654    0.21183987
     atom   12 type  3   force =    -0.23272850   -0.01835256   -0.19756109
     atom   13 type  3   force =    -0.24255045   -0.00221634    0.22112898
     atom   14 type  3   force =     0.23824305    0.00763814   -0.22118068
     atom   15 type  3   force =     0.24233223    0.01245691    0.20920000
     atom   16 type  3   force =     0.22135750   -0.02158465   -0.19423611
     atom   17 type  3   force =     0.22693546   -0.00390716    0.21716221
     atom   18 type  4   force =    -0.00447209    0.07513026   -0.05806686
     atom   19 type  4   force =     0.07750694    0.00058331    0.05636747
     atom   20 type  4   force =     0.07297906   -0.00670631   -0.05293481
     atom   21 type  4   force =    -0.06800568   -0.00191209    0.04660109
     atom   22 type  4   force =    -0.06483799   -0.00413019   -0.04643687
     atom   23 type  5   force =    -0.12670572    0.15183718    0.00121004
     The ionic contribution  to forces
     atom    1 type  1   force =    -0.53958800   -4.83890996   15.27857036
     atom    2 type  1   force =   -27.85170232   -6.39900249    0.78080229
     atom    3 type  1   force =   -27.82977125    6.22823860   -0.71421018
     atom    4 type  1   force =    27.52058258   -7.17586440    0.77604768
     atom    5 type  1   force =    27.75070352    6.33461247   -0.71333816
     atom    6 type  2   force =    -0.56721753   -3.81299892  -15.27844315
     atom    7 type  2   force =    -0.22666765    3.90927559   15.03520081
     atom    8 type  3   force =   -38.69935277    0.23246511   -0.06741062
     atom    9 type  3   force =    34.01774397    5.44352822   -0.07476562
     atom   10 type  3   force =   -24.85867625   -2.19541274  -24.67495639
     atom   11 type  3   force =   -23.93117582   -0.92892200   23.67047369
     atom   12 type  3   force =   -24.04798851    0.80439899  -23.66548462
     atom   13 type  3   force =   -24.83237722    2.21244803   24.60494038
     atom   14 type  3   force =    24.78012921   -2.29915824  -24.81817568
     atom   15 type  3   force =    23.85403952   -1.03168251   23.81242743
     atom   16 type  3   force =    24.01089585    0.83123373  -23.71465229
     atom   17 type  3   force =    24.79467077    2.24004713   24.65454553
     atom   18 type  4   force =    -0.21274473    4.66686337  -14.88187421
     atom   19 type  4   force =   -25.11641430    1.03031067  -27.15042523
     atom   20 type  4   force =   -25.07253259   -0.91242650   27.12873971
     atom   21 type  4   force =    24.99879564    1.10451792  -27.45386379
     atom   22 type  4   force =    24.95730875   -0.83624971   27.42781679
     atom   23 type  5   force =     7.10133915   -4.60731237    0.03803528
     The local contribution  to forces
     atom    1 type  1   force =     0.53773697    4.80006597  -15.28425312
     atom    2 type  1   force =    27.97652603    6.53422936   -0.77297531
     atom    3 type  1   force =    27.95724532   -6.35738271    0.77305758
     atom    4 type  1   force =   -27.62987629    7.33019150   -0.77078644
     atom    5 type  1   force =   -27.85953209   -6.46209759    0.77281399
     atom    6 type  2   force =     0.56972151    3.85535219   15.35026996
     atom    7 type  2   force =     0.23337893   -3.95303128  -15.07212942
     atom    8 type  3   force =    38.85077355   -0.24153076    0.09567496
     atom    9 type  3   force =   -36.09489139   -3.20224624    0.09748011
     atom   10 type  3   force =    25.08931674    2.14957287   24.85451457
     atom   11 type  3   force =    24.17147293    0.86451086  -23.85196755
     atom   12 type  3   force =    24.26801801   -0.72774196   23.82052741
     atom   13 type  3   force =    25.06778838   -2.15306819  -24.79592160
     atom   14 type  3   force =   -25.00975520    2.24568355   24.99537416
     atom   15 type  3   force =   -24.09690925    0.96668282  -23.99408448
     atom   16 type  3   force =   -24.23083501   -0.75011470   23.87228801
     atom   17 type  3   force =   -25.02813638   -2.17741497  -24.84692688
     atom   18 type  4   force =     0.23143800   -4.70899457   14.94341222
     atom   19 type  4   force =    24.89249329   -1.04063982   26.98574680
     atom   20 type  4   force =    24.85357479    0.91542456  -26.98147476
     atom   21 type  4   force =   -24.79210899   -1.11133414   27.30380468
     atom   22 type  4   force =   -24.75527081    0.83862867  -27.29166836
     atom   23 type  5   force =    -5.57491245    2.81492335   -0.02984169
     The core correction contribution to forces
     atom    1 type  1   force =     0.00059029    0.00552768    0.00146371
     atom    2 type  1   force =    -0.01119267   -0.00201660    0.00101271
     atom    3 type  1   force =    -0.01146771    0.00252256   -0.00177982
     atom    4 type  1   force =     0.00536089   -0.00534604    0.00128326
     atom    5 type  1   force =     0.01281424    0.00268945   -0.00235177
     atom    6 type  2   force =     0.00015774    0.00385189    0.00206015
     atom    7 type  2   force =     0.00046097   -0.00419996   -0.00265559
     atom    8 type  3   force =    -0.03087516   -0.00045077    0.00002167
     atom    9 type  3   force =     0.04286614   -0.02545851   -0.00173542
     atom   10 type  3   force =    -0.02581635    0.00603661   -0.01646343
     atom   11 type  3   force =    -0.02697577    0.00770350    0.01647896
     atom   12 type  3   force =    -0.02607453   -0.00695888   -0.01535510
     atom   13 type  3   force =    -0.02640432   -0.00545035    0.01650588
     atom   14 type  3   force =     0.02535831    0.00534680   -0.01543422
     atom   15 type  3   force =     0.02649396    0.00703990    0.01554118
     atom   16 type  3   force =     0.02530577   -0.00733465   -0.01631416
     atom   17 type  3   force =     0.02523232   -0.00563062    0.01706895
     atom   18 type  4   force =     0.00072734   -0.00446805    0.00336918
     atom   19 type  4   force =    -0.01050101    0.00053689   -0.00858148
     atom   20 type  4   force =    -0.01032791   -0.00008845    0.00840337
     atom   21 type  4   force =     0.00990050    0.00080346   -0.00778160
     atom   22 type  4   force =     0.00982653   -0.00016678    0.00786732
     atom   23 type  5   force =     0.00000000    0.00000000    0.00000000
     The Hubbard contrib.    to forces
     atom    1 type  1   force =     0.00000000    0.00000000    0.00000000
     atom    2 type  1   force =     0.00000000    0.00000000    0.00000000
     atom    3 type  1   force =     0.00000000    0.00000000    0.00000000
     atom    4 type  1   force =     0.00000000    0.00000000    0.00000000
     atom    5 type  1   force =     0.00000000    0.00000000    0.00000000
     atom    6 type  2   force =     0.00000000    0.00000000    0.00000000
     atom    7 type  2   force =     0.00000000    0.00000000    0.00000000
     atom    8 type  3   force =     0.00000000    0.00000000    0.00000000
     atom    9 type  3   force =     0.00000000    0.00000000    0.00000000
     atom   10 type  3   force =     0.00000000    0.00000000    0.00000000
     atom   11 type  3   force =     0.00000000    0.00000000    0.00000000
     atom   12 type  3   force =     0.00000000    0.00000000    0.00000000
     atom   13 type  3   force =     0.00000000    0.00000000    0.00000000
     atom   14 type  3   force =     0.00000000    0.00000000    0.00000000
     atom   15 type  3   force =     0.00000000    0.00000000    0.00000000
     atom   16 type  3   force =     0.00000000    0.00000000    0.00000000
     atom   17 type  3   force =     0.00000000    0.00000000    0.00000000
     atom   18 type  4   force =     0.00000000    0.00000000    0.00000000
     atom   19 type  4   force =     0.00000000    0.00000000    0.00000000
     atom   20 type  4   force =     0.00000000    0.00000000    0.00000000
     atom   21 type  4   force =     0.00000000    0.00000000    0.00000000
     atom   22 type  4   force =     0.00000000    0.00000000    0.00000000
     atom   23 type  5   force =     0.00000000    0.00000000    0.00000000
     The SCF correction term to forces
     atom    1 type  1   force =    -0.00000000    0.00000000   -0.00000000
     atom    2 type  1   force =     0.00000000    0.00000000   -0.00000000
     atom    3 type  1   force =     0.00000000   -0.00000000   -0.00000000
     atom    4 type  1   force =    -0.00000000    0.00000000   -0.00000000
     atom    5 type  1   force =    -0.00000000   -0.00000000   -0.00000000
     atom    6 type  2   force =    -0.00000000    0.00000000   -0.00000000
     atom    7 type  2   force =    -0.00000000   -0.00000000   -0.00000000
     atom    8 type  3   force =    -0.00000000    0.00000000   -0.00000000
     atom    9 type  3   force =     0.00000000    0.00000000   -0.00000000
     atom   10 type  3   force =     0.00421547    0.01523959    0.00156360
     atom   11 type  3   force =    -0.00203481    0.01794141    0.01071848
     atom   12 type  3   force =     0.00565996   -0.02111024   -0.00151594
     atom   13 type  3   force =     0.00078271   -0.02910728    0.01320751
     atom   14 type  3   force =    -0.00391372    0.01528686    0.00099141
     atom   15 type  3   force =     0.00385193    0.01468985    0.01040493
     atom   16 type  3   force =    -0.00428933   -0.02100231   -0.00264359
     atom   17 type  3   force =     0.00263193   -0.02693425    0.01370446
     atom   18 type  4   force =    -0.00155337   -0.01069849   -0.01723309
     atom   19 type  4   force =     0.00498159    0.00497684   -0.00085316
     atom   20 type  4   force =     0.00058349    0.00815848    0.01457770
     atom   21 type  4   force =    -0.00475474    0.00492571   -0.00365834
     atom   22 type  4   force =    -0.00012019    0.00910577    0.01777601
     atom   23 type  5   force =     0.00296939    0.00345035   -0.00198664

     Total force =     2.198112     Total SCF correction =     0.073475

     Entering Dynamics:    iteration =     2
                           time      =   0.0004 pico-seconds


ATOMIC_POSITIONS (angstrom)
Hf            2.6699999570        2.8271230292        6.6039642186    0   0   0
Hf            1.2529906802        1.2862841814        5.0584662261    0   0   0
Hf            1.2554868986        7.3898042948        5.0880677674    0   0   0
Hf            4.0870092338        1.2862841814        5.0584662261    0   0   0
Hf            4.0845130154        7.3898042948        5.0880677674    0   0   0
Nb            2.6699999570        2.7969306055        3.5155832167    0   0   0
Nb            2.6699999570        5.8763786763        6.6349979432    0   0   0
Ta            1.2093730560        4.3409278516        5.0711258323    0   0   0
Ta            4.1306268580        4.3409278516        5.0711258323    0   0   0
Ta            1.3072491302        1.3141202663        2.0587721572
Ta            1.3027845679        1.3083879631        8.0945858100
Ta            1.3040059806        7.3758293521        2.0462302567
Ta            1.3077071591        7.3650852036        8.0860091341
Ta            4.0327505842        1.3141199362        2.0587724146
Ta            4.0372150735        1.3083877500        8.0945853219
Ta            4.0359927603        7.3758293767        2.0462307166
Ta            4.0322915691        7.3650855953        8.0860086292
Zr            2.6700029693        5.8662892419        3.5273809751
Zr            1.2438006180        4.3220771325        1.9999731315
Zr            1.2403504806        4.3541245275        8.1497822712
Zr            4.0961974902        4.3220774460        1.9999737197
Zr            4.0996475205        4.3541252791        8.1497819483
H             4.7533734069        3.5169866011        5.0722536757


     kinetic energy (Ekin) =           0.95463957 Ry
     temperature           =        7177.41268261 K 
     Ekin + Etot (const)   =       -2941.46922915 Ry

     Writing config-only to output data dir outdir/pwscf.save/
     NEW-OLD atomic charge density approx. for the potential

     Check: negative core charge=   -0.000002

     negative rho (up, down):  9.067E-01 9.067E-01
     Generating pointlists ...
     new r_m :   0.1308 (alat units)  1.8148 (a.u.) for type    1

     total cpu time spent up to now is      647.9 secs

     Self-consistent Calculation

     iteration #  1     ecut=   120.00 Ry     beta= 0.70
     Davidson diagonalization with overlap
     ethr =  1.00E-06,  avg # of iterations = 14.0

     negative rho (up, down):  9.063E-01 9.063E-01

     total cpu time spent up to now is      719.4 secs

     total energy              =   -2942.49856567 Ry
     estimated scf accuracy    <       0.23567186 Ry

     total magnetization       =    -0.01 Bohr mag/cell
     absolute magnetization    =     0.01 Bohr mag/cell

     iteration #  2     ecut=   120.00 Ry     beta= 0.70
     Davidson diagonalization with overlap
     ethr =  8.51E-05,  avg # of iterations =  2.0

     negative rho (up, down):  9.065E-01 9.065E-01

     total cpu time spent up to now is      754.2 secs

     total energy              =   -2942.51238563 Ry
     estimated scf accuracy    <       0.08425936 Ry

     total magnetization       =    -0.01 Bohr mag/cell
     absolute magnetization    =     0.01 Bohr mag/cell

     iteration #  3     ecut=   120.00 Ry     beta= 0.70
     Davidson diagonalization with overlap
     ethr =  3.04E-05,  avg # of iterations =  2.0

     negative rho (up, down):  9.066E-01 9.066E-01

     total cpu time spent up to now is      787.2 secs

     total energy              =   -2942.51730331 Ry
     estimated scf accuracy    <       0.00346336 Ry

     total magnetization       =    -0.01 Bohr mag/cell
     absolute magnetization    =     0.01 Bohr mag/cell

     iteration #  4     ecut=   120.00 Ry     beta= 0.70
     Davidson diagonalization with overlap
     ethr =  1.25E-06,  avg # of iterations = 10.0

     negative rho (up, down):  9.066E-01 9.066E-01

     total cpu time spent up to now is      824.3 secs

     total energy              =   -2942.51741910 Ry
     estimated scf accuracy    <       0.00156037 Ry

     total magnetization       =    -0.00 Bohr mag/cell
     absolute magnetization    =     0.01 Bohr mag/cell

     iteration #  5     ecut=   120.00 Ry     beta= 0.70
     Davidson diagonalization with overlap
     ethr =  5.63E-07,  avg # of iterations =  2.0

     negative rho (up, down):  9.066E-01 9.066E-01

     Magnetic moment per site  (integrated on atomic sphere of radius R)
     atom   1 (R=0.131)  charge=  8.8084    0.0000
     atom   2 (R=0.131)  charge=  8.5197   -0.0000
     atom   3 (R=0.131)  charge=  8.5212   -0.0000
     atom   4 (R=0.131)  charge=  8.5087   -0.0000
     atom   5 (R=0.131)  charge=  8.5267   -0.0000
     atom   6 (R=0.140)  charge= 10.3502   -0.0001
     atom   7 (R=0.140)  charge= 10.3540   -0.0000
     atom   8 (R=0.056)  charge=  1.3486   -0.0000
     atom   9 (R=0.056)  charge=  1.3639   -0.0000
     atom  10 (R=0.056)  charge=  1.3457    0.0000
     atom  11 (R=0.056)  charge=  1.3450   -0.0000
     atom  12 (R=0.056)  charge=  1.3455    0.0000
     atom  13 (R=0.056)  charge=  1.3452    0.0000
     atom  14 (R=0.056)  charge=  1.3467   -0.0000
     atom  15 (R=0.056)  charge=  1.3465   -0.0000
     atom  16 (R=0.056)  charge=  1.3455   -0.0000
     atom  17 (R=0.056)  charge=  1.3462   -0.0000
     atom  18 (R=0.141)  charge=  9.4542   -0.0001
     atom  19 (R=0.141)  charge=  8.9973   -0.0001
     atom  20 (R=0.141)  charge=  8.9916   -0.0004
     atom  21 (R=0.141)  charge=  8.9988   -0.0002
     atom  22 (R=0.141)  charge=  8.9937   -0.0004
     atom  23 (R=0.056)  charge=  0.7271   -0.0000

     total cpu time spent up to now is      856.8 secs

     End of self-consistent calculation

 ------ SPIN UP ------------


          k = 0.0000 0.0000 0.0000 ( 48454 PWs)   bands (ev):

   -57.8447 -57.8381 -57.7998 -57.7930 -57.7657 -57.7592 -57.7214 -57.7155
   -57.5988 -57.2932 -51.4123 -51.3598 -51.2829 -51.2143 -49.7184 -43.2515
   -43.2262 -38.6398 -38.6149 -38.5389 -38.5306 -36.8178 -25.6387 -24.8614
   -24.8569 -24.7783 -24.7694 -24.6542 -24.6481 -24.5342 -24.5240 -24.3873
   -24.3692 -24.3293 -24.3101 -24.2979 -24.2730 -24.2574 -24.2319 -24.2013
   -24.1885 -24.1357 -24.0310 -24.0231 -24.0202 -24.0138 -23.9657 -23.9619
   -23.9228 -23.9208 -23.6502 -23.6043 -21.1950 -20.9782 -20.6694 -20.5855
   -20.3354 -20.1951 -20.1483 -20.0562 -19.9525 -19.8604 -19.8579 -19.6368
   -19.4967 -19.4450 -19.3856 -19.3397 -19.2865 -19.2254 -18.7858 -18.7112
   -18.6483 -17.1884 -16.8756 -16.8591 -16.8287 -16.6298 -16.6172 -16.6071
   -16.6039 -16.5686 -16.5351 -16.3227 -16.2971 -15.1827 -14.9584 -14.8299
     4.0515   4.9966   5.7974   6.1377   6.2574   6.4318   6.5190   6.5946
     6.5972   6.8309   6.9334   7.1121   7.2165   7.4134   7.4330   7.5821
     7.6773   7.7968   7.9577   8.0226   8.0766   8.1565   8.2180   8.2584
     8.3719   8.4688   8.5492   8.6165   8.6644   8.6850   8.7582   8.7938
     8.8441   9.0104   9.0477   9.1543   9.1843   9.2583   9.3103   9.3156
     9.3710   9.4993   9.6564   9.7479   9.7943   9.9470   9.9619  10.0938
    10.1591  10.1759  10.2803  10.3531  10.3959  10.4269  10.5450  10.5914
    10.7073  10.7631  10.9089  10.9219  11.0165  11.0400  11.1383  11.2206
    11.2628  11.3763  11.3958  11.5786  11.6834  11.7620  11.7998  11.8255
    11.9984  12.1000  12.1588  12.1880  12.1905  12.2100  12.2336

 ------ SPIN DOWN ----------


          k = 0.0000 0.0000 0.0000 ( 48454 PWs)   bands (ev):

   -57.8448 -57.8382 -57.7998 -57.7931 -57.7657 -57.7593 -57.7214 -57.7155
   -57.5988 -57.2932 -51.4124 -51.3598 -51.2829 -51.2144 -49.7184 -43.2516
   -43.2262 -38.6400 -38.6153 -38.5390 -38.5309 -36.8179 -25.6387 -24.8615
   -24.8570 -24.7783 -24.7694 -24.6542 -24.6482 -24.5343 -24.5240 -24.3874
   -24.3692 -24.3293 -24.3101 -24.2980 -24.2731 -24.2575 -24.2319 -24.2013
   -24.1885 -24.1357 -24.0311 -24.0232 -24.0202 -24.0139 -23.9658 -23.9619
   -23.9229 -23.9209 -23.6502 -23.6043 -21.1950 -20.9783 -20.6695 -20.5856
   -20.3355 -20.1951 -20.1484 -20.0562 -19.9525 -19.8604 -19.8580 -19.6368
   -19.4968 -19.4451 -19.3856 -19.3397 -19.2866 -19.2254 -18.7859 -18.7112
   -18.6483 -17.1886 -16.8763 -16.8593 -16.8289 -16.6299 -16.6175 -16.6073
   -16.6042 -16.5690 -16.5354 -16.3229 -16.2976 -15.1827 -14.9584 -14.8300
     4.0514   4.9965   5.7973   6.1376   6.2574   6.4317   6.5189   6.5945
     6.5971   6.8308   6.9333   7.1120   7.2164   7.4133   7.4329   7.5820
     7.6772   7.7966   7.9576   8.0225   8.0765   8.1564   8.2179   8.2583
     8.3718   8.4687   8.5490   8.6163   8.6642   8.6849   8.7582   8.7937
     8.8440   9.0103   9.0475   9.1542   9.1842   9.2581   9.3102   9.3155
     9.3709   9.4992   9.6563   9.7477   9.7942   9.9468   9.9618  10.0936
    10.1589  10.1758  10.2797  10.3523  10.3957  10.4267  10.5448  10.5912
    10.7072  10.7629  10.9087  10.9217  11.0163  11.0399  11.1382  11.2205
    11.2626  11.3762  11.3958  11.5785  11.6833  11.7617  11.7996  11.8253
    11.9982  12.0999  12.1588  12.1891  12.1908  12.2099  12.2335

     the Fermi energy is    10.2673 ev

!    total energy              =   -2942.51725387 Ry
     estimated scf accuracy    <       0.00025692 Ry
     smearing contrib. (-TS)   =      -0.09633529 Ry
     internal energy E=F+TS    =   -2942.42091858 Ry

     total magnetization       =    -0.00 Bohr mag/cell
     absolute magnetization    =     0.01 Bohr mag/cell

     convergence has been achieved in   5 iterations

     negative rho (up, down):  9.066E-01 9.066E-01

     Forces acting on atoms (cartesian axes, Ry/au):

     atom    1 type  1   force =    -0.00160900   -0.01583462    0.00541763
     atom    2 type  1   force =    -0.13119279   -0.01917964   -0.00544624
     atom    3 type  1   force =    -0.12707146    0.01669021    0.00207283
     atom    4 type  1   force =     0.12631302    0.01451082   -0.00573831
     atom    5 type  1   force =     0.15363548    0.01665991    0.00236062
     atom    6 type  2   force =    -0.00293539   -0.01524618    0.00186003
     atom    7 type  2   force =     0.00511996    0.01877551    0.00392148
     atom    8 type  3   force =    -0.14368264   -0.00414933   -0.00197132
     atom    9 type  3   force =    -1.02177553    1.50934047   -0.01594993
     atom   10 type  3   force =    -0.02982163   -0.02042171   -0.05903784
     atom   11 type  3   force =    -0.03120218   -0.02496361    0.06102601
     atom   12 type  3   force =    -0.03262819    0.02566230   -0.05863200
     atom   13 type  3   force =    -0.03296742    0.01537134    0.06410603
     atom   14 type  3   force =     0.02951072   -0.02282643   -0.05710347
     atom   15 type  3   force =     0.03015237   -0.02720997    0.05723018
     atom   16 type  3   force =     0.02238443    0.02781511   -0.05616642
     atom   17 type  3   force =     0.02236240    0.01983719    0.06076118
     atom   18 type  4   force =     0.01056691    0.01715461   -0.01496463
     atom   19 type  4   force =    -0.15140757   -0.00260276   -0.11780668
     atom   20 type  4   force =    -0.15451127    0.00648766    0.12159367
     atom   21 type  4   force =     0.14364964   -0.00157146   -0.11650352
     atom   22 type  4   force =     0.14623906    0.00882765    0.12117805
     atom   23 type  5   force =     1.17087110   -1.54312704    0.00779266
     The non-local contrib.  to forces
     atom    1 type  1   force =     0.00431134   -0.00129605    0.02875957
     atom    2 type  1   force =    -0.24642016   -0.16609099    0.01390052
     atom    3 type  1   force =    -0.24528943    0.16223034   -0.02900393
     atom    4 type  1   force =     0.23284788   -0.13649822    0.01451732
     atom    5 type  1   force =     0.24960255    0.15694636   -0.03047002
     atom    6 type  2   force =     0.00256574   -0.07781916   -0.05149862
     atom    7 type  2   force =     0.00036223    0.07851898    0.05657614
     atom    8 type  3   force =    -0.26154806   -0.00018571   -0.00404344
     atom    9 type  3   force =     0.65932628   -0.59685037   -0.01149859
     atom   10 type  3   force =    -0.23950327    0.00408167   -0.22518734
     atom   11 type  3   force =    -0.24453918    0.01311914    0.21460860
     atom   12 type  3   force =    -0.23183596   -0.02196497   -0.19723705
     atom   13 type  3   force =    -0.24350403   -0.00812127    0.22315292
     atom   14 type  3   force =     0.23781750    0.00872129   -0.22059530
     atom   15 type  3   force =     0.24425852    0.01461458    0.21122426
     atom   16 type  3   force =     0.22147931   -0.02351872   -0.19472308
     atom   17 type  3   force =     0.23027321   -0.00793067    0.22046504
     atom   18 type  4   force =    -0.00519269    0.07303353   -0.06082673
     atom   19 type  4   force =     0.07658746    0.00193007    0.05487222
     atom   20 type  4   force =     0.07226594   -0.00466671   -0.05022806
     atom   21 type  4   force =    -0.06790678   -0.00081644    0.04426580
     atom   22 type  4   force =    -0.06515362   -0.00272945   -0.04251107
     atom   23 type  5   force =    -0.11322676    0.15997234    0.00134583
     The ionic contribution  to forces
     atom    1 type  1   force =    -0.56657098   -4.83084362   15.30471077
     atom    2 type  1   force =   -27.86189970   -6.40261692    0.78074590
     atom    3 type  1   force =   -27.83263387    6.21987481   -0.71422850
     atom    4 type  1   force =    27.50724609   -7.25125308    0.77540392
     atom    5 type  1   force =    27.75576101    6.31379882   -0.71336888
     atom    6 type  2   force =    -0.59563113   -3.80499673  -15.30642022
     atom    7 type  2   force =    -0.21992885    3.90827901   15.03092900
     atom    8 type  3   force =   -38.71907087    0.24373426   -0.06744886
     atom    9 type  3   force =    34.58784312    5.48374217   -0.07459587
     atom   10 type  3   force =   -24.86182657   -2.19619149  -24.67800416
     atom   11 type  3   force =   -23.93429314   -0.92970766   23.67350288
     atom   12 type  3   force =   -24.04918858    0.79999086  -23.66438573
     atom   13 type  3   force =   -24.83355420    2.20803974   24.60381814
     atom   14 type  3   force =    24.78039689   -2.30351511  -24.82952759
     atom   15 type  3   force =    23.85433017   -1.03602528   23.82368258
     atom   16 type  3   force =    24.01249395    0.82396867  -23.71271698
     atom   17 type  3   force =    24.79626103    2.23273890   24.65253352
     atom   18 type  4   force =    -0.20638932    4.66596687  -14.87791292
     atom   19 type  4   force =   -25.11991022    1.03437715  -27.14842328
     atom   20 type  4   force =   -25.07598229   -0.90842845   27.12668826
     atom   21 type  4   force =    25.00457132    1.11405846  -27.44933413
     atom   22 type  4   force =    24.96304520   -0.82693494   27.42304522
     atom   23 type  5   force =     6.61493093   -4.55805643    0.04130694
     The local contribution  to forces
     atom    1 type  1   force =     0.55778862    4.81816864  -15.33968646
     atom    2 type  1   force =    27.98946635    6.55607931   -0.81524856
     atom    3 type  1   force =    27.96222722   -6.37245133    0.73248659
     atom    4 type  1   force =   -27.61918838    7.40976790   -0.81107489
     atom    5 type  1   force =   -27.86508140   -6.45837963    0.73438596
     atom    6 type  2   force =     0.58820091    3.86904440   15.34298162
     atom    7 type  2   force =     0.22141676   -3.97214098  -15.09179320
     atom    8 type  3   force =    38.86380759   -0.24709835    0.05587595
     atom    9 type  3   force =   -36.30227156   -3.35410081    0.05740665
     atom   10 type  3   force =    25.09621435    2.16735407   24.86254475
     atom   11 type  3   force =    24.17783865    0.89398376  -23.84188070
     atom   12 type  3   force =    24.27421956   -0.75052154   23.81806630
     atom   13 type  3   force =    25.07294263   -2.19177701  -24.77462990
     atom   14 type  3   force =   -25.01273341    2.26789563   25.01019401
     atom   15 type  3   force =   -24.09811375    0.99538065  -23.99158288
     atom   16 type  3   force =   -24.23654854   -0.76959524   23.86661586
     atom   17 type  3   force =   -25.03120262   -2.21056392  -24.82452195
     atom   18 type  4   force =     0.21932970   -4.72022359   14.90433180
     atom   19 type  4   force =    24.89917622   -1.03668935   26.98245362
     atom   20 type  4   force =    24.86148030    0.92186281  -26.95910045
     atom   21 type  4   force =   -24.79974516   -1.11312101   27.29211193
     atom   22 type  4   force =   -24.76410332    0.84098316  -27.26074239
     atom   23 type  5   force =    -5.33030511    2.85526760   -0.03735609
     The core correction contribution to forces
     atom    1 type  1   force =     0.00037187    0.00563926    0.00132466
     atom    2 type  1   force =    -0.01113137   -0.00206621    0.00103239
     atom    3 type  1   force =    -0.01138926    0.00230801   -0.00170900
     atom    4 type  1   force =     0.00445867   -0.00550659    0.00128050
     atom    5 type  1   force =     0.01299764    0.00242931   -0.00232502
     atom    6 type  2   force =     0.00003995    0.00386542    0.00207290
     atom    7 type  2   force =     0.00040191   -0.00413342   -0.00249407
     atom    8 type  3   force =    -0.03064820   -0.00048934    0.00005370
     atom    9 type  3   force =     0.03593377   -0.02232230   -0.00142623
     atom   10 type  3   force =    -0.02570890    0.00595903   -0.01647396
     atom   11 type  3   force =    -0.02709905    0.00763304    0.01668341
     atom   12 type  3   force =    -0.02612302   -0.00696090   -0.01528929
     atom   13 type  3   force =    -0.02665071   -0.00557304    0.01650763
     atom   14 type  3   force =     0.02539392    0.00526015   -0.01535599
     atom   15 type  3   force =     0.02678833    0.00698553    0.01568158
     atom   16 type  3   force =     0.02521931   -0.00724446   -0.01631335
     atom   17 type  3   force =     0.02547230   -0.00564599    0.01729929
     atom   18 type  4   force =     0.00070357   -0.00440372    0.00327143
     atom   19 type  4   force =    -0.01045518    0.00051265   -0.00853096
     atom   20 type  4   force =    -0.01023347   -0.00013141    0.00838491
     atom   21 type  4   force =     0.00991105    0.00078700   -0.00773798
     atom   22 type  4   force =     0.00979817   -0.00017223    0.00782746
     atom   23 type  5   force =     0.00000000    0.00000000    0.00000000
     The Hubbard contrib.    to forces
     atom    1 type  1   force =     0.00000000    0.00000000    0.00000000
     atom    2 type  1   force =     0.00000000    0.00000000    0.00000000
     atom    3 type  1   force =     0.00000000    0.00000000    0.00000000
     atom    4 type  1   force =     0.00000000    0.00000000    0.00000000
     atom    5 type  1   force =     0.00000000    0.00000000    0.00000000
     atom    6 type  2   force =     0.00000000    0.00000000    0.00000000
     atom    7 type  2   force =     0.00000000    0.00000000    0.00000000
     atom    8 type  3   force =     0.00000000    0.00000000    0.00000000
     atom    9 type  3   force =     0.00000000    0.00000000    0.00000000
     atom   10 type  3   force =     0.00000000    0.00000000    0.00000000
     atom   11 type  3   force =     0.00000000    0.00000000    0.00000000
     atom   12 type  3   force =     0.00000000    0.00000000    0.00000000
     atom   13 type  3   force =     0.00000000    0.00000000    0.00000000
     atom   14 type  3   force =     0.00000000    0.00000000    0.00000000
     atom   15 type  3   force =     0.00000000    0.00000000    0.00000000
     atom   16 type  3   force =     0.00000000    0.00000000    0.00000000
     atom   17 type  3   force =     0.00000000    0.00000000    0.00000000
     atom   18 type  4   force =     0.00000000    0.00000000    0.00000000
     atom   19 type  4   force =     0.00000000    0.00000000    0.00000000
     atom   20 type  4   force =     0.00000000    0.00000000    0.00000000
     atom   21 type  4   force =     0.00000000    0.00000000    0.00000000
     atom   22 type  4   force =     0.00000000    0.00000000    0.00000000
     atom   23 type  5   force =     0.00000000    0.00000000    0.00000000
     The SCF correction term to forces
     atom    1 type  1   force =     0.00000000   -0.00000000    0.00000000
     atom    2 type  1   force =    -0.00000000   -0.00000000    0.00000000
     atom    3 type  1   force =    -0.00000000    0.00000000    0.00000000
     atom    4 type  1   force =     0.00000000   -0.00000000    0.00000000
     atom    5 type  1   force =     0.00000000    0.00000000    0.00000000
     atom    6 type  2   force =     0.00000000   -0.00000000    0.00000000
     atom    7 type  2   force =     0.00000000    0.00000000    0.00000000
     atom    8 type  3   force =     0.00000000   -0.00000000    0.00000000
     atom    9 type  3   force =    -0.00000000   -0.00000000    0.00000000
     atom   10 type  3   force =     0.00095226   -0.00156585   -0.00309100
     atom   11 type  3   force =    -0.00315998   -0.00993274   -0.00306204
     atom   12 type  3   force =     0.00024930    0.00517800   -0.00096009
     atom   13 type  3   force =    -0.00225162    0.01286205   -0.00591662
     atom   14 type  3   force =    -0.00141468   -0.00112924   -0.00299246
     atom   15 type  3   force =     0.00283859   -0.00810631   -0.00294921
     atom   16 type  3   force =    -0.00031010    0.00426401   -0.00020273
     atom   17 type  3   force =     0.00150797    0.01129802   -0.00618858
     atom   18 type  4   force =     0.00206515    0.00284067    0.01499793
     atom   19 type  4   force =     0.00314366   -0.00267414    0.00064787
     atom   20 type  4   force =    -0.00209227   -0.00208942   -0.00532485
     atom   21 type  4   force =    -0.00323129   -0.00242032    0.00301699
     atom   22 type  4   force =     0.00260211   -0.00225974   -0.00761502
     atom   23 type  5   force =    -0.00057848   -0.00025141    0.00132211

     Total force =     1.984449     Total SCF correction =     0.032167

     Entering Dynamics:    iteration =     3
                           time      =   0.0006 pico-seconds


ATOMIC_POSITIONS (angstrom)
Hf            2.6699999570        2.8271230292        6.6039642186    0   0   0
Hf            1.2529906802        1.2862841814        5.0584662261    0   0   0
Hf            1.2554868986        7.3898042948        5.0880677674    0   0   0
Hf            4.0870092338        1.2862841814        5.0584662261    0   0   0
Hf            4.0845130154        7.3898042948        5.0880677674    0   0   0
Nb            2.6699999570        2.7969306055        3.5155832167    0   0   0
Nb            2.6699999570        5.8763786763        6.6349979432    0   0   0
Ta            1.2093730560        4.3409278516        5.0711258323    0   0   0
Ta            4.1306268580        4.3409278516        5.0711258323    0   0   0
Ta            1.3072447826        1.3141173248        2.0587635869
Ta            1.3027800241        1.3083841381        8.0945941542
Ta            1.3040013797        7.3758332772        2.0462217537
Ta            1.3077025501        7.3650878439        8.0860178710
Ta            4.0327547862        1.3141166074        2.0587641392
Ta            4.0372193644        1.3083836479        8.0945930925
Ta            4.0359959001        7.3758334632        2.0462226915
Ta            4.0322946690        7.3650887848        8.0860168025
Zr            2.6700064213        5.8662938741        3.5273771503
Zr            1.2437580980        4.3220761926        1.9999397779
Zr            1.2403069339        4.3541261282        8.1498157850
Zr            4.0962377964        4.3220768478        1.9999409664
Zr            4.0996887023        4.3541276769        8.1498151440
H             4.7207142728        3.4470239240        5.0723453116


     kinetic energy (Ekin) =           1.04636142 Ry
     temperature           =        7867.01916307 K 
     Ekin + Etot (const)   =       -2941.47089245 Ry

     Writing config-only to output data dir outdir/pwscf.save/
     NEW-OLD atomic charge density approx. for the potential

     Check: negative core charge=   -0.000002

     negative rho (up, down):  9.068E-01 9.068E-01
     Generating pointlists ...
     new r_m :   0.1265 (alat units)  1.7553 (a.u.) for type    1

     total cpu time spent up to now is      877.8 secs

     Self-consistent Calculation

     iteration #  1     ecut=   120.00 Ry     beta= 0.70
     Davidson diagonalization with overlap
     ethr =  1.00E-06,  avg # of iterations = 18.5

     negative rho (up, down):  9.068E-01 9.068E-01

     total cpu time spent up to now is      945.4 secs

     total energy              =   -2942.63608121 Ry
     estimated scf accuracy    <       0.11378011 Ry

     total magnetization       =    -0.00 Bohr mag/cell
     absolute magnetization    =     0.01 Bohr mag/cell

[...]
   -43.2078 -38.6493 -38.6195 -38.5484 -38.5364 -36.7665 -24.8595 -24.8545
   -24.7725 -24.7684 -24.6575 -24.6508 -24.5426 -24.5131 -24.4202 -24.3760
   -24.3471 -24.3154 -24.3009 -24.2803 -24.2575 -24.2279 -24.2005 -24.1946
   -24.1364 -24.1268 -24.0286 -24.0219 -24.0188 -24.0119 -23.9643 -23.9546
   -23.9288 -23.9141 -23.9081 -23.8902 -21.1839 -20.9737 -20.6407 -20.5605
   -20.3008 -20.1530 -20.1425 -20.0287 -19.9222 -19.8557 -19.8239 -19.5978
   -19.4999 -19.4307 -19.3745 -19.3284 -19.2706 -19.2177 -18.7807 -18.7216
   -18.6466 -17.1858 -16.8756 -16.8709 -16.8308 -16.6440 -16.6283 -16.6182
   -16.6113 -16.5770 -16.5395 -16.3202 -16.2960 -15.1264 -14.9193 -14.7915
     3.2300   4.7732   5.7983   6.1266   6.2632   6.4703   6.5119   6.5994
     6.6066   6.8284   6.9334   7.1135   7.2037   7.3726   7.5190   7.5850
     7.7141   7.8613   8.0189   8.0369   8.1281   8.1778   8.2178   8.2561
     8.4057   8.4468   8.5186   8.5723   8.6611   8.6774   8.7282   8.8020
     8.8518   9.0157   9.0447   9.1402   9.1964   9.2509   9.3045   9.3460
     9.3853   9.5038   9.6921   9.7124   9.7980   9.8602   9.9711  10.1000
    10.1752  10.2419  10.3169  10.3603  10.3939  10.4362  10.5441  10.5893
    10.6968  10.7662  10.9161  10.9409  11.0145  11.0354  11.1874  11.2218
    11.2613  11.3841  11.3964  11.5747  11.6908  11.7839  11.8034  11.8147
    11.9941  12.0548  12.1421  12.1822  12.1917  12.2065  12.2136

     the Fermi energy is    10.2818 ev

!    total energy              =   -2943.21185468 Ry
     estimated scf accuracy    <       0.00029455 Ry
     smearing contrib. (-TS)   =      -0.09637652 Ry
     internal energy E=F+TS    =   -2943.11547816 Ry

     total magnetization       =    -0.00 Bohr mag/cell
     absolute magnetization    =     0.00 Bohr mag/cell

     convergence has been achieved in   5 iterations

     negative rho (up, down):  9.079E-01 9.079E-01

     Forces acting on atoms (cartesian axes, Ry/au):

     atom    1 type  1   force =    -0.01329690   -0.01975109    0.01781753
     atom    2 type  1   force =    -0.12967423   -0.01997780    0.00364914
     atom    3 type  1   force =    -0.13118918    0.01754349    0.01088394
     atom    4 type  1   force =     0.09167161   -0.06604286   -0.00206655
     atom    5 type  1   force =     0.15280431    0.00606490    0.01249707
     atom    6 type  2   force =    -0.01593379   -0.01061419   -0.00882615
     atom    7 type  2   force =     0.00342060    0.02229568   -0.00085907
     atom    8 type  3   force =    -0.12646543    0.00144743   -0.00094925
     atom    9 type  3   force =     0.03929044    0.21040900   -0.00280366
     atom   10 type  3   force =    -0.02324894   -0.02195523   -0.06394280
     atom   11 type  3   force =    -0.02611076   -0.02842088    0.05717350
     atom   12 type  3   force =    -0.03448654    0.02439691   -0.05704518
     atom   13 type  3   force =    -0.03677937    0.02020086    0.05497324
     atom   14 type  3   force =     0.02817259   -0.02872279   -0.06261204
     atom   15 type  3   force =     0.03203974   -0.03634656    0.05847776
     atom   16 type  3   force =     0.02560317    0.03193927   -0.06117361
     atom   17 type  3   force =     0.02467202    0.02614192    0.05672387
     atom   18 type  4   force =     0.00127616    0.02590842   -0.01630787
     atom   19 type  4   force =    -0.14117051   -0.00424321   -0.12121015
     atom   20 type  4   force =    -0.15008367    0.00579388    0.12082464
     atom   21 type  4   force =     0.13728676    0.00010793   -0.12102236
     atom   22 type  4   force =     0.14562757    0.00598469    0.12177162
     atom   23 type  5   force =     0.14657436   -0.16215977    0.00402638
     The non-local contrib.  to forces
     atom    1 type  1   force =     0.01126754   -0.00523972    0.02801001
     atom    2 type  1   force =    -0.24233133   -0.16163961    0.01850370
     atom    3 type  1   force =    -0.24656106    0.15914283   -0.02417109
     atom    4 type  1   force =     0.18690921   -0.18810828    0.01434846
     atom    5 type  1   force =     0.24494455    0.20686757   -0.02396625
     atom    6 type  2   force =     0.00186277   -0.07261964   -0.06369127
     atom    7 type  2   force =     0.00459245    0.07826228    0.05036236
     atom    8 type  3   force =    -0.25553413   -0.00650811    0.00059097
     atom    9 type  3   force =     0.17304080   -0.00526838    0.00124883
     atom   10 type  3   force =    -0.23174324    0.01108248   -0.22902033
     atom   11 type  3   force =    -0.23590488    0.01551099    0.21613866
     atom   12 type  3   force =    -0.23130849   -0.03228883   -0.19661743
     atom   13 type  3   force =    -0.23982772   -0.01582237    0.21795766
     atom   14 type  3   force =     0.24024838    0.01031692   -0.21971050
     atom   15 type  3   force =     0.24742119    0.00995197    0.20995953
     atom   16 type  3   force =     0.22627943   -0.02520570   -0.19169420
     atom   17 type  3   force =     0.23295154   -0.00525124    0.21705641
     atom   18 type  4   force =    -0.00276762    0.07290609   -0.05212109
     atom   19 type  4   force =     0.07284281    0.00316056    0.05851190
     atom   20 type  4   force =     0.06708754    0.00198648   -0.05565500
     atom   21 type  4   force =    -0.07542995    0.00198144    0.04232614
     atom   22 type  4   force =    -0.07059926   -0.00117465   -0.04272683
     atom   23 type  5   force =    -0.03866383    0.03078046    0.00143987
     The ionic contribution  to forces
     atom    1 type  1   force =    -0.71769749   -4.63375308   15.46109390
     atom    2 type  1   force =   -27.93424339   -6.41185214    0.78011867
     atom    3 type  1   force =   -27.84144318    6.13427191   -0.71417019
     atom    4 type  1   force =    27.18075814   -8.28989654    0.76291934
     atom    5 type  1   force =    27.77205544    6.10897605   -0.71315686
     atom    6 type  2   force =    -0.75757167   -3.59978510  -15.47645642
     atom    7 type  2   force =    -0.14848494    3.83236877   14.97566225
     atom    8 type  3   force =   -38.76553664    0.32343841   -0.06825124
     atom    9 type  3   force =    37.67223891    3.12442982   -0.07235189
     atom   10 type  3   force =   -24.87710764   -2.18883120  -24.70229157
     atom   11 type  3   force =   -23.94939249   -0.92259201   23.69773791
     atom   12 type  3   force =   -24.05004216    0.75307339  -23.65384649
     atom   13 type  3   force =   -24.83345309    2.16094448   24.59265141
     atom   14 type  3   force =    24.76839846   -2.31387095  -24.93763024
     atom   15 type  3   force =    23.84252995   -1.04688069   23.93131602
     atom   16 type  3   force =    24.01490962    0.74763250  -23.69933764
     atom   17 type  3   force =    24.79779230    2.15561526   24.63794738
     atom   18 type  4   force =    -0.13875993    4.59390529  -14.82597824
     atom   19 type  4   force =   -25.11649437    1.06463037  -27.11019421
     atom   20 type  4   force =   -25.07223817   -0.87860651   27.08829809
     atom   21 type  4   force =    25.02518123    1.17329036  -27.34919709
     atom   22 type  4   force =    24.98298087   -0.76945279   27.32240035
     atom   23 type  5   force =     4.14562024   -1.11705559    0.07271676
     The local contribution  to forces
     atom    1 type  1   force =     0.69184931    4.60816070  -15.45767840
     atom    2 type  1   force =    28.05557373    6.55630426   -0.77649017
     atom    3 type  1   force =    27.96950462   -6.27742362    0.77000772
     atom    4 type  1   force =   -27.27318632    8.41700700   -0.75972715
     atom    5 type  1   force =   -27.87749345   -6.31777612    0.77158077
     atom    6 type  2   force =     0.73853092    3.66290600   15.53955322
     atom    7 type  2   force =     0.14819288   -3.87763826  -15.01206877
     atom    8 type  3   force =    38.92336554   -0.31452941    0.08260293
     atom    9 type  3   force =   -37.81835279   -2.91416345    0.08343791
     atom   10 type  3   force =    25.11466311    2.15402514   24.87956217
     atom   11 type  3   force =    24.18180020    0.86615462  -23.87777481
     atom   12 type  3   force =    24.27853073   -0.69535708   23.80531013
     atom   13 type  3   force =    25.06031161   -2.11351851  -24.77684573
     atom   14 type  3   force =   -25.01042426    2.27420828   25.10443517
     atom   15 type  3   force =   -24.08121837    0.98708975  -24.10126570
     atom   16 type  3   force =   -24.24543652   -0.69002388   23.84238963
     atom   17 type  3   force =   -25.02776265   -2.11267966  -24.82040893
     atom   18 type  4   force =     0.14256268   -4.64007756   14.87003391
     atom   19 type  4   force =    24.92005659   -1.07190168   26.93642827
     atom   20 type  4   force =    24.85822729    0.88261701  -26.92278880
     atom   21 type  4   force =   -24.82973542   -1.17492637   27.19025747
     atom   22 type  4   force =   -24.76983365    0.77704087  -27.16715755
     atom   23 type  5   force =    -3.96018504    0.92387878   -0.06713143
     The core correction contribution to forces
     atom    1 type  1   force =     0.00078521    0.00524689   -0.00157590
     atom    2 type  1   force =    -0.00929985   -0.00364880    0.00114795
     atom    3 type  1   force =    -0.01174491    0.00187056   -0.00196358
     atom    4 type  1   force =    -0.00179669   -0.00547525    0.00048767
     atom    5 type  1   force =     0.01372760    0.00750277   -0.00280484
     atom    6 type  2   force =     0.00022922    0.00359194    0.00264559
     atom    7 type  2   force =    -0.00021685   -0.00391814   -0.00157319
     atom    8 type  3   force =    -0.02945569    0.00000188    0.00013064
     atom    9 type  3   force =     0.01392745    0.00754460    0.00094547
     atom   10 type  3   force =    -0.02496656    0.00693472   -0.01688783
     atom   11 type  3   force =    -0.02605532    0.00788853    0.01681603
     atom   12 type  3   force =    -0.02675679   -0.00722414   -0.01545024
     atom   13 type  3   force =    -0.02652939   -0.00653175    0.01601086
     atom   14 type  3   force =     0.02600176    0.00620524   -0.01476744
     atom   15 type  3   force =     0.02763179    0.00749471    0.01515200
     atom   16 type  3   force =     0.02529104   -0.00716644   -0.01584994
     atom   17 type  3   force =     0.02521006   -0.00553004    0.01690476
     atom   18 type  4   force =     0.00018008   -0.00416819    0.00242550
     atom   19 type  4   force =    -0.01010800    0.00046459   -0.00878237
     atom   20 type  4   force =    -0.00998619   -0.00043105    0.00870902
     atom   21 type  4   force =     0.01029560    0.00052549   -0.00767425
     atom   22 type  4   force =     0.01025201   -0.00035086    0.00783225
     atom   23 type  5   force =     0.00000000    0.00000000    0.00000000
     The Hubbard contrib.    to forces
     atom    1 type  1   force =     0.00000000    0.00000000    0.00000000
     atom    2 type  1   force =     0.00000000    0.00000000    0.00000000
     atom    3 type  1   force =     0.00000000    0.00000000    0.00000000
     atom    4 type  1   force =     0.00000000    0.00000000    0.00000000
     atom    5 type  1   force =     0.00000000    0.00000000    0.00000000
     atom    6 type  2   force =     0.00000000    0.00000000    0.00000000
     atom    7 type  2   force =     0.00000000    0.00000000    0.00000000
     atom    8 type  3   force =     0.00000000    0.00000000    0.00000000
     atom    9 type  3   force =     0.00000000    0.00000000    0.00000000
     atom   10 type  3   force =     0.00000000    0.00000000    0.00000000
     atom   11 type  3   force =     0.00000000    0.00000000    0.00000000
     atom   12 type  3   force =     0.00000000    0.00000000    0.00000000
     atom   13 type  3   force =     0.00000000    0.00000000    0.00000000
     atom   14 type  3   force =     0.00000000    0.00000000    0.00000000
     atom   15 type  3   force =     0.00000000    0.00000000    0.00000000
     atom   16 type  3   force =     0.00000000    0.00000000    0.00000000
     atom   17 type  3   force =     0.00000000    0.00000000    0.00000000
     atom   18 type  4   force =     0.00000000    0.00000000    0.00000000
     atom   19 type  4   force =     0.00000000    0.00000000    0.00000000
     atom   20 type  4   force =     0.00000000    0.00000000    0.00000000
     atom   21 type  4   force =     0.00000000    0.00000000    0.00000000
     atom   22 type  4   force =     0.00000000    0.00000000    0.00000000
     atom   23 type  5   force =     0.00000000    0.00000000    0.00000000
     The SCF correction term to forces
     atom    1 type  1   force =     0.00000000    0.00000000   -0.00000000
     atom    2 type  1   force =     0.00000000    0.00000000   -0.00000000
     atom    3 type  1   force =    -0.00000000   -0.00000000   -0.00000000
     atom    4 type  1   force =    -0.00000000    0.00000000   -0.00000000
     atom    5 type  1   force =    -0.00000000    0.00000000   -0.00000000
     atom    6 type  2   force =     0.00000000   -0.00000000   -0.00000000
     atom    7 type  2   force =    -0.00000000   -0.00000000   -0.00000000
     atom    8 type  3   force =     0.00000000   -0.00000000   -0.00000000
     atom    9 type  3   force =    -0.00000000   -0.00000000   -0.00000000
     atom   10 type  3   force =    -0.00406050   -0.00523727    0.00601770
     atom   11 type  3   force =     0.00347584    0.00454610    0.00557866
     atom   12 type  3   force =    -0.00487572    0.00612268    0.00488179
     atom   13 type  3   force =     0.00275333   -0.00494189    0.00652199
     atom   14 type  3   force =     0.00398236   -0.00565316    0.00638392
     atom   15 type  3   force =    -0.00429070    0.00592681    0.00463887
     atom   16 type  3   force =     0.00459370    0.00663190    0.00464148
     atom   17 type  3   force =    -0.00348513   -0.00608329    0.00654720
     atom   18 type  4   force =     0.00009506    0.00327190   -0.00934501
     atom   19 type  4   force =    -0.00743343   -0.00066794    0.00414920
     atom   20 type  4   force =     0.00685995    0.00015705    0.00358428
     atom   21 type  4   force =     0.00700941   -0.00083389    0.00458831
     atom   22 type  4   force =    -0.00713830   -0.00014878    0.00274634
     atom   23 type  5   force =    -0.00016290    0.00016568   -0.00167588

     Total force =     0.480647     Total SCF correction =     0.031766

     Entering Dynamics:    iteration =    10
                           time      =   0.0020 pico-seconds


ATOMIC_POSITIONS (angstrom)
Hf            2.6699999570        2.8271230292        6.6039642186    0   0   0
Hf            1.2529906802        1.2862841814        5.0584662261    0   0   0
Hf            1.2554868986        7.3898042948        5.0880677674    0   0   0
Hf            4.0870092338        1.2862841814        5.0584662261    0   0   0
Hf            4.0845130154        7.3898042948        5.0880677674    0   0   0
Nb            2.6699999570        2.7969306055        3.5155832167    0   0   0
Nb            2.6699999570        5.8763786763        6.6349979432    0   0   0
Ta            1.2093730560        4.3409278516        5.0711258323    0   0   0
Ta            4.1306268580        4.3409278516        5.0711258323    0   0   0
Ta            1.3071726703        1.3140609923        2.0586070488
Ta            1.3027033894        1.3083133891        8.0947461642
Ta            1.3039155511        7.3759019212        2.0460706347
Ta            1.3076150663        7.3651358725        8.0861736057
Ta            4.0328300505        1.3140526657        2.0586118765
Ta            4.0372978506        1.3083054319        8.0947386402
Ta            4.0360560484        7.3759115201        2.0460732843
Ta            4.0323531492        7.3651485296        8.0861675544
Zr            2.6700455344        5.8663986267        3.5273008251
Zr            1.2429964126        4.3220589419        1.9993344981
Zr            1.2395227657        4.3541567374        8.1504278388
Zr            4.0969640557        4.3220684902        1.9993413496
Zr            4.1004347349        4.3541664670        8.1504259593
H             4.5718805488        2.8266953571        5.0736583633


     kinetic energy (Ekin) =           1.73818217 Ry
     temperature           =       13068.44088607 K 
     Ekin + Etot (const)   =       -2941.47367251 Ry

     The maximum number of steps has been reached.

     End of molecular dynamics calculation

     diffusion coefficients :
     atom     1   D =       0.00000000 cm^2/s
     atom     2   D =       0.00000000 cm^2/s
     atom     3   D =       0.00000000 cm^2/s
     atom     4   D =       0.00000000 cm^2/s
     atom     5   D =       0.00000000 cm^2/s
     atom     6   D =       0.00000000 cm^2/s
     atom     7   D =       0.00000000 cm^2/s
     atom     8   D =       0.00000000 cm^2/s
     atom     9   D =       0.00000000 cm^2/s
     atom    10   D =       0.00000000 cm^2/s
     atom    11   D =       0.00000000 cm^2/s
     atom    12   D =       0.00000000 cm^2/s
     atom    13   D =       0.00000000 cm^2/s
     atom    14   D =       0.00000000 cm^2/s
     atom    15   D =       0.00000000 cm^2/s
     atom    16   D =       0.00000000 cm^2/s
     atom    17   D =       0.00000000 cm^2/s
     atom    18   D =       0.00000000 cm^2/s
     atom    19   D =       0.00000001 cm^2/s
     atom    20   D =       0.00000001 cm^2/s
     atom    21   D =       0.00000001 cm^2/s
     atom    22   D =       0.00000001 cm^2/s
     atom    23   D =       0.00591112 cm^2/s

     < D > =       0.00042223 cm^2/s

     Writing all to output data dir outdir/pwscf.save/

     init_run     :     22.11s CPU     22.58s WALL (       1 calls)
     electrons    :   2094.74s CPU   2127.34s WALL (      10 calls)
     update_pot   :     22.06s CPU     22.14s WALL (       9 calls)
     forces       :    160.60s CPU    162.64s WALL (      10 calls)

     Called by init_run:
     wfcinit      :     17.29s CPU     17.48s WALL (       1 calls)
     potinit      :      1.06s CPU      1.10s WALL (       1 calls)
     hinit0       :      1.75s CPU      1.77s WALL (       1 calls)

     Called by electrons:
     c_bands      :   1698.06s CPU   1709.11s WALL (      52 calls)
     sum_band     :    281.67s CPU    293.58s WALL (      52 calls)
     v_of_rho     :     12.74s CPU     13.21s WALL (      62 calls)
     newd         :    122.18s CPU    132.79s WALL (      62 calls)
     mix_rho      :      0.99s CPU      1.01s WALL (      52 calls)

     Called by c_bands:
     init_us_2    :      2.76s CPU      2.77s WALL (     230 calls)
     init_us_2:cp :      2.76s CPU      2.77s WALL (     230 calls)
     regterg      :   1683.73s CPU   1694.72s WALL (     104 calls)

     Called by *egterg:
     rdiaghg      :     29.05s CPU     29.35s WALL (     694 calls)
     h_psi        :    693.07s CPU    701.27s WALL (     714 calls)
     s_psi        :    249.04s CPU    249.45s WALL (     714 calls)
     g_psi        :      0.52s CPU      0.53s WALL (     608 calls)

     Called by h_psi:
     h_psi:calbec :    315.70s CPU    316.29s WALL (     714 calls)
     vloc_psi     :    125.44s CPU    132.67s WALL (     714 calls)
     add_vuspsi   :    250.81s CPU    251.20s WALL (     714 calls)

     General routines
     calbec       :    532.80s CPU    533.76s WALL (     898 calls)
     fft          :     11.34s CPU     11.81s WALL (    1089 calls)
     ffts         :      0.27s CPU      0.30s WALL (      52 calls)
     fftw         :    129.89s CPU    137.35s WALL (   53914 calls)

     Parallel routines

     PWSCF        :  38m38.83s CPU  39m16.07s WALL


   This run was terminated on:  10:18:47  11Jun2023            

=------------------------------------------------------------------------------=
   JOB DONE.
=------------------------------------------------------------------------------=
