
     Program PWSCF v.7.2 starts on 11Jun2023 at  9: 0:22 

     This program is part of the open-source Quantum ESPRESSO suite
     for quantum simulation of materials; please cite
         "P. Giannozzi et al., J. Phys.:Condens. Matter 21 395502 (2009);
         "P. Giannozzi et al., J. Phys.:Condens. Matter 29 465901 (2017);
         "P. Giannozzi et al., J. Chem. Phys. 152 154105 (2020);
          URL http://www.quantum-espresso.org", 
     in publications or presentations arising from this work. More details at
     http://www.quantum-espresso.org/quote

     Parallel version (MPI), running on    12 processors

     MPI processes distributed on     1 nodes
     75814 MiB available memory on the printing compute node when the environment starts

     Reading input from md_data/md_Hf5Nb2Ta10Zr5H_10steps_100eV_incident45_polar0.in
Warning: card &CELL ignored
Warning: card / ignored

     Current dimensions of program PWSCF are:
     Max number of different atomic species (ntypx) = 10
     Max number of k-points (npk) =  40000
     Max angular momentum in pseudopotentials (lmaxx) =  4

     File outdir/pwscf.md deleted, as requested

     gamma-point specific algorithms are used

     R & G space division:  proc/nbgrp/npool/nimage =      12
     Subspace diagonalization in iterative solution of the eigenvalue problem:
     one sub-group per band group will be used
     custom distributed-memory algorithm (size of sub-group:  2*  2 procs)


     Parallelization info
     --------------------
     sticks:   dense  smooth     PW     G-vecs:    dense   smooth      PW
     Min         723     723    180                64572    64572    8072
     Max         724     724    182                64584    64584    8078
     Sum        8687    8687   2177               774967   774967   96907

     Using Slab Decomposition



     bravais-lattice index     =            0
     lattice parameter (alat)  =      13.8706  a.u.
     unit-cell volume          =    4363.8306 (a.u.)^3
     number of atoms/cell      =           23
     number of atomic types    =            5
     number of electrons       =       277.00
     number of Kohn-Sham states=          167
     kinetic-energy cutoff     =     120.0000  Ry
     charge density cutoff     =     480.0000  Ry
     scf convergence threshold =      1.0E-03
     mixing beta               =       0.7000
     number of iterations used =            8  TF        mixing
     energy convergence thresh.=      0.0E+00
     force convergence thresh. =      0.0E+00
     Exchange-correlation=  SLA  PW   PBX  PBC
                           (   1   4   3   4   0   0   0)
     nstep                     =           10


     celldm(1)=  13.870589  celldm(2)=   0.000000  celldm(3)=   0.000000
     celldm(4)=   0.000000  celldm(5)=   0.000000  celldm(6)=   0.000000

     crystal axes: (cart. coord. in units of alat)
               a(1) = (   1.000000   0.000000   0.000000 )  
               a(2) = (   0.000000   1.182561   0.000000 )  
               a(3) = (   0.000000   0.000000   1.382801 )  

     reciprocal axes: (cart. coord. in units 2 pi/alat)
               b(1) = (  1.000000  0.000000  0.000000 )  
               b(2) = (  0.000000  0.845622  0.000000 )  
               b(3) = (  0.000000  0.000000  0.723170 )  


     PseudoPot. # 1 for Hf read from file:
     q-e/pseudo/hf_pbe_v1.uspp.F.UPF
     MD5 check sum: 8ee9378dfe14276e333edf04c5e4aa26
     Pseudo is Ultrasoft + core correction, Zval = 12.0
     Generated by new atomic code, or converted to UPF format
     Using radial grid of  921 points,  8 beta functions with: 
                l(1) =   0
                l(2) =   0
                l(3) =   0
                l(4) =   1
                l(5) =   1
                l(6) =   2
                l(7) =   2
                l(8) =   3
     Q(r) pseudized with  6 coefficients,  rinner =    1.200   1.200   1.200
                                                       1.200   1.200   1.200
                                                       1.200

     PseudoPot. # 2 for Nb read from file:
     q-e/pseudo/nb_pbe_v1.uspp.F.UPF
     MD5 check sum: 573aab8a2fa660278ed4a62cd769473f
     Pseudo is Ultrasoft + core correction, Zval = 13.0
     Generated by new atomic code, or converted to UPF format
     Using radial grid of  887 points,  6 beta functions with: 
                l(1) =   0
                l(2) =   0
                l(3) =   1
                l(4) =   1
                l(5) =   2
                l(6) =   2
     Q(r) pseudized with  6 coefficients,  rinner =    1.000   1.000   1.000
                                                       1.000   1.000

     PseudoPot. # 3 for Ta read from file:
     q-e/pseudo/ta_pbe_v1.uspp.F.UPF
     MD5 check sum: f8bbe9446314a3b8ea5d9f3e3836c939
     Pseudo is Ultrasoft + core correction, Zval = 13.0
     Generated by new atomic code, or converted to UPF format
     Using radial grid of  921 points,  7 beta functions with: 
                l(1) =   0
                l(2) =   0
                l(3) =   1
                l(4) =   1
                l(5) =   2
                l(6) =   2
                l(7) =   3
     Q(r) pseudized with  6 coefficients,  rinner =    1.300   1.300   1.300
                                                       1.300   1.300   1.300
                                                       1.300

     PseudoPot. # 4 for Zr read from file:
     q-e/pseudo/zr_pbe_v1.uspp.F.UPF
     MD5 check sum: 5db81b1e868ab7776c4564c113de050b
     Pseudo is Ultrasoft + core correction, Zval = 12.0
     Generated by new atomic code, or converted to UPF format
     Using radial grid of  887 points,  6 beta functions with: 
                l(1) =   0
                l(2) =   0
                l(3) =   1
                l(4) =   1
                l(5) =   2
                l(6) =   2
     Q(r) pseudized with  6 coefficients,  rinner =    1.200   1.200   1.200
                                                       1.200   1.200

     PseudoPot. # 5 for H  read from file:
     q-e/pseudo/h_pbe_v1.4.uspp.F.UPF
     MD5 check sum: 761ae9a214b05c3daf00ab9f6b793d6f
     Pseudo is Ultrasoft, Zval =  1.0
     Generated by new atomic code, or converted to UPF format
     Using radial grid of  615 points,  2 beta functions with: 
                l(1) =   0
                l(2) =   0
     Q(r) pseudized with  8 coefficients,  rinner =    0.700

     atomic species   valence    mass     pseudopotential
        Hf            12.00   178.49000     Hf( 1.00)
        Nb            13.00    92.90637     Nb( 1.00)
        Ta            13.00   180.94788     Ta( 1.00)
        Zr            12.00    91.22400     Zr( 1.00)
        H              1.00     2.01400     H ( 1.00)

     Starting magnetic structure 
     atomic species   magnetization
        Hf           0.000
        Nb           0.000
        Ta           0.000
        Zr           0.000
        H            0.000

     No symmetry found



   Cartesian axes

     site n.     atom                  positions (alat units)
         1           Hf  tau(   1) = (   0.3637602   0.3851666   0.8997227  )
         2           Hf  tau(   2) = (   0.1707072   0.1752431   0.6891644  )
         3           Hf  tau(   3) = (   0.1710473   1.0067854   0.6931973  )
         4           Hf  tau(   4) = (   0.5568133   0.1752431   0.6891644  )
         5           Hf  tau(   5) = (   0.5564732   1.0067854   0.6931973  )
         6           Nb  tau(   6) = (   0.3637602   0.3810532   0.4789623  )
         7           Nb  tau(   7) = (   0.3637602   0.8005966   0.9039507  )
         8           Ta  tau(   8) = (   0.1647647   0.5914071   0.6908891  )
         9           Ta  tau(   9) = (   0.5627557   0.5914071   0.6908891  )
        10           Ta  tau(  10) = (   0.1780998   0.1790358   0.2804876  )
        11           Ta  tau(  11) = (   0.1774916   0.1782549   1.1028038  )
        12           Ta  tau(  12) = (   0.1776580   1.0048810   0.2787789  )
        13           Ta  tau(  13) = (   0.1781622   1.0034173   1.1016352  )
        14           Ta  tau(  14) = (   0.5494206   0.1790358   0.2804876  )
        15           Ta  tau(  15) = (   0.5500289   0.1782549   1.1028038  )
        16           Ta  tau(  16) = (   0.5498625   1.0048810   0.2787789  )
        17           Ta  tau(  17) = (   0.5493582   1.0034173   1.1016352  )
        18           Zr  tau(  18) = (   0.3637602   0.7992215   0.4805700  )
        19           Zr  tau(  19) = (   0.1694598   0.5888390   0.2724796  )
        20           Zr  tau(  20) = (   0.1689898   0.5932048   1.1103210  )
        21           Zr  tau(  21) = (   0.5580607   0.5888390   0.2724796  )
        22           Zr  tau(  22) = (   0.5585306   0.5932048   1.1103210  )
        23           H   tau(  23) = (   0.6590918   0.6876167   0.6910327  )

     number of k points=     1  Gaussian smearing, width (Ry)=  0.0220
                       cart. coord. in units 2pi/alat
        k(    1) = (   0.0000000   0.0000000   0.0000000), wk =   1.0000000

     Dense  grid:   387484 G-vectors     FFT dimensions: ( 100, 120, 135)

     Estimated max dynamical RAM per process >     326.54 MB

     Estimated total dynamical RAM >       3.83 GB

     Check: negative core charge=   -0.000002
     Generating pointlists ...
     new r_m :   0.1383 (alat units)  1.9183 (a.u.) for type    1
     new r_m :   0.1397 (alat units)  1.9374 (a.u.) for type    2
     new r_m :   0.0562 (alat units)  0.7790 (a.u.) for type    3
     new r_m :   0.1415 (alat units)  1.9625 (a.u.) for type    4
     new r_m :   0.0562 (alat units)  0.7790 (a.u.) for type    5

     Initial potential from superposition of free atoms

     starting charge     266.9726, renormalised to     277.0000

     negative rho (up, down):  9.202E-01 9.202E-01
     Starting wfcs are  287 randomized atomic wfcs

     total cpu time spent up to now is       23.6 secs

     Self-consistent Calculation

     iteration #  1     ecut=   120.00 Ry     beta= 0.70
     Davidson diagonalization with overlap
     ethr =  1.00E-02,  avg # of iterations =  3.0

     negative rho (up, down):  9.508E-01 9.506E-01

     total cpu time spent up to now is       62.7 secs

     total energy              =   -2933.26354929 Ry
     estimated scf accuracy    <     320.07738183 Ry

     total magnetization       =     0.00 Bohr mag/cell
     absolute magnetization    =     0.08 Bohr mag/cell

     iteration #  2     ecut=   120.00 Ry     beta= 0.70
     Davidson diagonalization with overlap
     ethr =  1.00E-02,  avg # of iterations =  5.0

     negative rho (up, down):  8.881E-01 8.877E-01

     total cpu time spent up to now is      103.0 secs

     total energy              =   -2941.42041136 Ry
     estimated scf accuracy    <      46.80961301 Ry

     total magnetization       =    -0.00 Bohr mag/cell
     absolute magnetization    =     0.09 Bohr mag/cell

     iteration #  3     ecut=   120.00 Ry     beta= 0.70
     Davidson diagonalization with overlap
     ethr =  1.00E-02,  avg # of iterations =  4.0

     negative rho (up, down):  9.121E-01 9.119E-01

     total cpu time spent up to now is      140.0 secs

     total energy              =   -2941.93515616 Ry
     estimated scf accuracy    <      17.13290710 Ry

     total magnetization       =    -0.00 Bohr mag/cell
     absolute magnetization    =     0.12 Bohr mag/cell

     iteration #  4     ecut=   120.00 Ry     beta= 0.70
     Davidson diagonalization with overlap
     ethr =  6.19E-03,  avg # of iterations =  2.0

     negative rho (up, down):  9.210E-01 9.209E-01

     total cpu time spent up to now is      174.7 secs

     total energy              =   -2942.12985085 Ry
     estimated scf accuracy    <       3.72130055 Ry

     total magnetization       =    -0.01 Bohr mag/cell
     absolute magnetization    =     0.13 Bohr mag/cell

     iteration #  5     ecut=   120.00 Ry     beta= 0.70
     Davidson diagonalization with overlap
     ethr =  1.34E-03,  avg # of iterations =  7.0

     negative rho (up, down):  9.134E-01 9.133E-01

     total cpu time spent up to now is      217.6 secs

     total energy              =   -2942.33391390 Ry
     estimated scf accuracy    <       1.66487371 Ry

     total magnetization       =    -0.01 Bohr mag/cell
     absolute magnetization    =     0.09 Bohr mag/cell

     iteration #  6     ecut=   120.00 Ry     beta= 0.70
     Davidson diagonalization with overlap
     ethr =  6.01E-04,  avg # of iterations =  2.0

     negative rho (up, down):  9.118E-01 9.117E-01

     total cpu time spent up to now is      251.9 secs

     total energy              =   -2942.34789985 Ry
     estimated scf accuracy    <       0.75314846 Ry

     total magnetization       =    -0.01 Bohr mag/cell
     absolute magnetization    =     0.08 Bohr mag/cell

     iteration #  7     ecut=   120.00 Ry     beta= 0.70
     Davidson diagonalization with overlap
     ethr =  2.72E-04,  avg # of iterations =  6.0

     negative rho (up, down):  9.061E-01 9.061E-01

     total cpu time spent up to now is      286.8 secs

     total energy              =   -2942.36916257 Ry
     estimated scf accuracy    <       0.14263560 Ry

     total magnetization       =    -0.01 Bohr mag/cell
     absolute magnetization    =     0.06 Bohr mag/cell

     iteration #  8     ecut=   120.00 Ry     beta= 0.70
     Davidson diagonalization with overlap
     ethr =  5.15E-05,  avg # of iterations =  9.0

     negative rho (up, down):  9.040E-01 9.040E-01

     total cpu time spent up to now is      328.2 secs

     total energy              =   -2942.37462658 Ry
     estimated scf accuracy    <       0.08291665 Ry

     total magnetization       =    -0.01 Bohr mag/cell
     absolute magnetization    =     0.04 Bohr mag/cell

     iteration #  9     ecut=   120.00 Ry     beta= 0.70
     Davidson diagonalization with overlap
     ethr =  2.99E-05,  avg # of iterations =  2.0

     negative rho (up, down):  9.053E-01 9.053E-01

     total cpu time spent up to now is      362.6 secs

     total energy              =   -2942.37976934 Ry
     estimated scf accuracy    <       0.02771341 Ry

     total magnetization       =    -0.01 Bohr mag/cell
     absolute magnetization    =     0.03 Bohr mag/cell

     iteration # 10     ecut=   120.00 Ry     beta= 0.70
     Davidson diagonalization with overlap
     ethr =  1.00E-05,  avg # of iterations =  4.0

     negative rho (up, down):  9.062E-01 9.062E-01

     total cpu time spent up to now is      398.3 secs

     total energy              =   -2942.38163502 Ry
     estimated scf accuracy    <       0.00569466 Ry

     total magnetization       =    -0.01 Bohr mag/cell
     absolute magnetization    =     0.02 Bohr mag/cell

     iteration # 11     ecut=   120.00 Ry     beta= 0.70
     Davidson diagonalization with overlap
     ethr =  2.06E-06,  avg # of iterations = 11.0

     negative rho (up, down):  9.067E-01 9.067E-01

     total cpu time spent up to now is      439.4 secs

     total energy              =   -2942.38212080 Ry
     estimated scf accuracy    <       0.00144335 Ry

     total magnetization       =    -0.01 Bohr mag/cell
     absolute magnetization    =     0.02 Bohr mag/cell

     iteration # 12     ecut=   120.00 Ry     beta= 0.70
     Davidson diagonalization with overlap
     ethr =  5.21E-07,  avg # of iterations =  4.5

     negative rho (up, down):  9.065E-01 9.065E-01

     Magnetic moment per site  (integrated on atomic sphere of radius R)
     atom   1 (R=0.138)  charge=  9.2387   -0.0001
     atom   2 (R=0.138)  charge=  8.8798    0.0002
     atom   3 (R=0.138)  charge=  8.8810    0.0001
     atom   4 (R=0.138)  charge=  8.8842   -0.0000
     atom   5 (R=0.138)  charge=  8.8709   -0.0001
     atom   6 (R=0.140)  charge= 10.3532    0.0001
     atom   7 (R=0.140)  charge= 10.3490   -0.0000
     atom   8 (R=0.056)  charge=  1.3405   -0.0000
     atom   9 (R=0.056)  charge=  1.3566    0.0000
     atom  10 (R=0.056)  charge=  1.3376    0.0000
     atom  11 (R=0.056)  charge=  1.3370   -0.0000
     atom  12 (R=0.056)  charge=  1.3370   -0.0000
     atom  13 (R=0.056)  charge=  1.3371    0.0000
     atom  14 (R=0.056)  charge=  1.3384   -0.0000
     atom  15 (R=0.056)  charge=  1.3386    0.0000
     atom  16 (R=0.056)  charge=  1.3367   -0.0000
     atom  17 (R=0.056)  charge=  1.3380   -0.0000
     atom  18 (R=0.141)  charge=  9.4570   -0.0000
     atom  19 (R=0.141)  charge=  8.9970   -0.0011
     atom  20 (R=0.141)  charge=  8.9944   -0.0004
     atom  21 (R=0.141)  charge=  8.9995   -0.0010
     atom  22 (R=0.141)  charge=  8.9961   -0.0004
     atom  23 (R=0.056)  charge=  0.7692    0.0000

     total cpu time spent up to now is      475.4 secs

     End of self-consistent calculation

 ------ SPIN UP ------------


          k = 0.0000 0.0000 0.0000 ( 48454 PWs)   bands (ev):

   -57.8409 -57.8373 -57.7948 -57.7922 -57.7647 -57.7567 -57.7195 -57.7128
   -57.6211 -57.4150 -51.4144 -51.3673 -51.2853 -51.2289 -49.7397 -43.2368
   -43.2205 -38.6298 -38.6211 -38.5374 -38.5285 -36.8080 -25.9622 -24.8563
   -24.8508 -24.7686 -24.7670 -24.6538 -24.6455 -24.5410 -24.5157 -24.3920
   -24.3671 -24.3396 -24.3047 -24.2998 -24.2809 -24.2551 -24.2371 -24.1971
   -24.1912 -24.1498 -24.0299 -24.0194 -24.0139 -24.0118 -23.9642 -23.9524
   -23.9280 -23.9125 -23.6490 -23.6245 -21.1975 -20.9867 -20.6710 -20.5937
   -20.3238 -20.1861 -20.1666 -20.0606 -19.9523 -19.8812 -19.8634 -19.6429
   -19.4919 -19.4403 -19.3893 -19.3370 -19.2698 -19.2200 -18.8101 -18.7207
   -18.6690 -17.1867 -16.8823 -16.8582 -16.8196 -16.6272 -16.6105 -16.6084
   -16.5908 -16.5687 -16.5391 -16.3104 -16.3042 -15.1608 -14.9528 -14.8250
     4.0759   5.1190   5.8011   6.1381   6.2481   6.4917   6.5528   6.5946
     6.6081   6.8266   6.9403   7.0080   7.2191   7.3679   7.4500   7.5896
     7.7279   7.7398   7.9477   8.0342   8.0864   8.1598   8.2168   8.2553
     8.3719   8.4666   8.5500   8.6232   8.6618   8.7162   8.7635   8.7747
     8.8482   9.0115   9.0614   9.1582   9.1846   9.2584   9.2982   9.3156
     9.3749   9.4872   9.6267   9.7619   9.7997   9.9615   9.9676  10.0881
    10.1600  10.1835  10.3110  10.3469  10.3981  10.4323  10.5467  10.5971
    10.6999  10.7648  10.9116  10.9241  11.0177  11.0323  11.1375  11.2234
    11.2647  11.3568  11.3917  11.5824  11.6800  11.7536  11.8025  11.8193
    12.0014  12.1292  12.1565  12.1895  12.1944  12.2131  12.2260

 ------ SPIN DOWN ----------


          k = 0.0000 0.0000 0.0000 ( 48454 PWs)   bands (ev):

   -57.8410 -57.8374 -57.7948 -57.7923 -57.7648 -57.7569 -57.7196 -57.7130
   -57.6210 -57.4148 -51.4143 -51.3673 -51.2852 -51.2288 -49.7398 -43.2368
   -43.2204 -38.6307 -38.6213 -38.5376 -38.5295 -36.8080 -25.9621 -24.8564
   -24.8510 -24.7687 -24.7671 -24.6540 -24.6457 -24.5411 -24.5160 -24.3920
   -24.3673 -24.3396 -24.3049 -24.3000 -24.2809 -24.2553 -24.2372 -24.1973
   -24.1914 -24.1498 -24.0301 -24.0195 -24.0141 -24.0120 -23.9643 -23.9526
   -23.9281 -23.9128 -23.6488 -23.6244 -21.1974 -20.9866 -20.6710 -20.5936
   -20.3237 -20.1860 -20.1665 -20.0605 -19.9523 -19.8811 -19.8634 -19.6428
   -19.4919 -19.4404 -19.3893 -19.3370 -19.2698 -19.2199 -18.8103 -18.7208
   -18.6691 -17.1875 -16.8827 -16.8590 -16.8211 -16.6275 -16.6112 -16.6088
   -16.5916 -16.5691 -16.5393 -16.3117 -16.3045 -15.1609 -14.9528 -14.8252
     4.0760   5.1190   5.8009   6.1381   6.2482   6.4916   6.5527   6.5945
     6.6081   6.8265   6.9401   7.0080   7.2189   7.3678   7.4499   7.5893
     7.7277   7.7396   7.9475   8.0340   8.0863   8.1596   8.2164   8.2550
     8.3718   8.4664   8.5496   8.6226   8.6616   8.7161   8.7635   8.7747
     8.8481   9.0114   9.0613   9.1579   9.1845   9.2582   9.2980   9.3155
     9.3747   9.4870   9.6264   9.7616   9.7995   9.9612   9.9676  10.0872
    10.1597  10.1832  10.3101  10.3459  10.3979  10.4320  10.5464  10.5969
    10.6998  10.7645  10.9111  10.9236  11.0172  11.0322  11.1374  11.2231
    11.2644  11.3565  11.3917  11.5822  11.6796  11.7534  11.8022  11.8190
    12.0010  12.1292  12.1567  12.1892  12.1943  12.2128  12.2260

     the Fermi energy is    10.2728 ev

!    total energy              =   -2942.38223200 Ry
     estimated scf accuracy    <       0.00021137 Ry
     smearing contrib. (-TS)   =      -0.09663391 Ry
     internal energy E=F+TS    =   -2942.28559808 Ry

     total magnetization       =    -0.01 Bohr mag/cell
     absolute magnetization    =     0.02 Bohr mag/cell

     convergence has been achieved in  12 iterations

     negative rho (up, down):  9.065E-01 9.065E-01

     Forces acting on atoms (cartesian axes, Ry/au):

     atom    1 type  1   force =     0.01201063   -0.01218213    0.01035859
     atom    2 type  1   force =    -0.13009293   -0.01925476   -0.00529236
     atom    3 type  1   force =    -0.12896857    0.01599776    0.00303434
     atom    4 type  1   force =     0.15271282   -0.02139595   -0.00607498
     atom    5 type  1   force =     0.13008770   -0.00992108    0.00377509
     atom    6 type  2   force =     0.00694814   -0.01781312    0.00005650
     atom    7 type  2   force =     0.00062805    0.01565674    0.00098384
     atom    8 type  3   force =    -0.14664742    0.00961850   -0.00598165
     atom    9 type  3   force =    -1.43036920   -1.58435850    0.01653440
     atom   10 type  3   force =    -0.03685856   -0.01813755   -0.06399482
     atom   11 type  3   force =    -0.03750619   -0.02759261    0.06177117
     atom   12 type  3   force =    -0.02679145    0.02518994   -0.05925887
     atom   13 type  3   force =    -0.02744281    0.01785045    0.05927790
     atom   14 type  3   force =     0.02526318   -0.02098208   -0.05906141
     atom   15 type  3   force =     0.02804108   -0.02665164    0.05720717
     atom   16 type  3   force =     0.02505740    0.02828784   -0.05525685
     atom   17 type  3   force =     0.02552148    0.02197046    0.05841258
     atom   18 type  4   force =     0.00221906    0.01852730   -0.01190220
     atom   19 type  4   force =    -0.15082652   -0.00490857   -0.11983847
     atom   20 type  4   force =    -0.15526467    0.00451513    0.12202499
     atom   21 type  4   force =     0.14192771   -0.00745922   -0.11861992
     atom   22 type  4   force =     0.14816448    0.00470396    0.11903876
     atom   23 type  5   force =     1.57218658    1.60833912   -0.00719379
     The non-local contrib.  to forces
     atom    1 type  1   force =     0.02142285    0.01361889    0.01237785
     atom    2 type  1   force =    -0.24590629   -0.16800804    0.01378318
     atom    3 type  1   force =    -0.24138870    0.16012010   -0.02929610
     atom    4 type  1   force =     0.25132559   -0.17075355    0.01507658
     atom    5 type  1   force =     0.23542048    0.14733591   -0.02990702
     atom    6 type  2   force =     0.00168548   -0.06364867   -0.06691398
     atom    7 type  2   force =    -0.00521392    0.09218414    0.04266169
     atom    8 type  3   force =    -0.26080755   -0.00068455   -0.00577109
     atom    9 type  3   force =     0.83401690    0.59097280    0.01155547
     atom   10 type  3   force =    -0.24732985    0.00520900   -0.22856745
     atom   11 type  3   force =    -0.24910153    0.00367212    0.21964477
     atom   12 type  3   force =    -0.22292522   -0.02823201   -0.19193539
     atom   13 type  3   force =    -0.23519014   -0.00550806    0.21922608
     atom   14 type  3   force =     0.22832727    0.00847731   -0.22373503
     atom   15 type  3   force =     0.23745130    0.01144250    0.21536116
     atom   16 type  3   force =     0.22351744   -0.02755473   -0.19217771
     atom   17 type  3   force =     0.23403577   -0.00924313    0.21846726
     atom   18 type  4   force =    -0.00720525    0.08084025   -0.04228897
     atom   19 type  4   force =     0.07922179    0.00783846    0.05466162
     atom   20 type  4   force =     0.07566256    0.00079627   -0.05135925
     atom   21 type  4   force =    -0.07062535    0.00312729    0.04755615
     atom   22 type  4   force =    -0.06469876    0.00465448   -0.03912461
     atom   23 type  5   force =    -0.13962516   -0.14059080   -0.00340710
     The ionic contribution  to forces
     atom    1 type  1   force =    -0.22043152   -4.90027229   15.02144170
     atom    2 type  1   force =   -27.82989161   -6.24992748    0.78148659
     atom    3 type  1   force =   -27.83731734    6.38068045   -0.71345102
     atom    4 type  1   force =    27.74939766   -6.36585052    0.78071875
     atom    5 type  1   force =    27.52235896    7.09804373   -0.70846619
     atom    6 type  2   force =    -0.23065012   -3.86971290  -15.00218809
     atom    7 type  2   force =    -0.53729777    3.85106322   15.28548125
     atom    8 type  3   force =   -38.67457009   -0.07515163   -0.06740096
     atom    9 type  3   force =    33.55333201   -5.04887246   -0.07482743
     atom   10 type  3   force =   -24.85044530   -2.12912334  -24.62370415
     atom   11 type  3   force =   -23.92318154   -0.86261025   23.61961409
     atom   12 type  3   force =   -24.05074839    0.87354228  -23.71423441
     atom   13 type  3   force =   -24.83533747    2.28139959   24.65428359
     atom   14 type  3   force =    24.81247929   -2.15904194  -24.67398291
     atom   15 type  3   force =    23.88578213   -0.89207499   23.66962967
     atom   16 type  3   force =    23.97639933    0.97212214  -23.84792737
     atom   17 type  3   force =    24.75935460    2.38148125   24.79000389
     atom   18 type  4   force =    -0.50459473    4.61041873  -15.11393101
     atom   19 type  4   force =   -25.11148780    0.92184846  -27.15075769
     atom   20 type  4   force =   -25.06775968   -1.02054796   27.13073650
     atom   21 type  4   force =    24.99309682    0.85015384  -27.45109319
     atom   22 type  4   force =    24.94990721   -1.08936470   27.43276306
     atom   23 type  5   force =     7.47160534    4.44179679   -0.02419471
     The local contribution  to forces
     atom    1 type  1   force =     0.20897744    4.87467431  -15.01882367
     atom    2 type  1   force =    27.95542125    6.40125682   -0.80285742
     atom    3 type  1   force =    27.95988890   -6.52934341    0.74681772
     atom    4 type  1   force =   -27.85781832    6.51700176   -0.80447858
     atom    5 type  1   force =   -27.63220559   -7.26206424    0.74465710
     atom    6 type  2   force =     0.23526270    3.92457508   15.05708337
     atom    7 type  2   force =     0.54206491   -3.93051584  -15.32137588
     atom    8 type  3   force =    38.81395237    0.08684015    0.06258754
     atom    9 type  3   force =   -35.86103705    2.85060425    0.07207441
     atom   10 type  3   force =    25.08676590    2.10511273   24.80173865
     atom   11 type  3   force =    24.16217679    0.82479767  -23.79090452
     atom   12 type  3   force =    24.27217767   -0.82026596   23.85446755
     atom   13 type  3   force =    25.06915999   -2.25900676  -24.82236828
     atom   14 type  3   force =   -25.03998662    2.13065259   24.85258133
     atom   15 type  3   force =   -24.12100526    0.84761239  -23.84196489
     atom   16 type  3   force =   -24.20087129   -0.91662190   23.99235655
     atom   17 type  3   force =   -24.99294768   -2.35107396  -24.95883451
     atom   18 type  4   force =     0.51186999   -4.67923914   15.13459457
     atom   19 type  4   force =    24.89560899   -0.93262555   26.97908523
     atom   20 type  4   force =    24.84945062    1.02931788  -26.95806933
     atom   21 type  4   force =   -24.79415471   -0.86051008   27.28650376
     atom   22 type  4   force =   -24.74846193    1.09331305  -27.27325396
     atom   23 type  5   force =    -5.75905865   -2.69298432    0.01995463
     The core correction contribution to forces
     atom    1 type  1   force =     0.00186963    0.00586397   -0.00288279
     atom    2 type  1   force =    -0.01101130   -0.00164198    0.00078840
     atom    3 type  1   force =    -0.01122870    0.00237440   -0.00186379
     atom    4 type  1   force =     0.01202571   -0.00248923    0.00116139
     atom    5 type  1   force =     0.00638520    0.00564387   -0.00229329
     atom    6 type  2   force =     0.00041797    0.00348613    0.00324662
     atom    7 type  2   force =     0.00041323   -0.00460430   -0.00150128
     atom    8 type  3   force =    -0.03088089    0.00056827   -0.00052732
     atom    9 type  3   force =     0.04855313    0.02466488    0.00240817
     atom   10 type  3   force =    -0.02661622    0.00594884   -0.01713750
     atom   11 type  3   force =    -0.02783393    0.00691852    0.01721397
     atom   12 type  3   force =    -0.02483710   -0.00760872   -0.01473379
     atom   13 type  3   force =    -0.02568144   -0.00543691    0.01594328
     atom   14 type  3   force =     0.02548297    0.00594344   -0.01755665
     atom   15 type  3   force =     0.02707232    0.00750491    0.01795814
     atom   16 type  3   force =     0.02436494   -0.00679386   -0.01421556
     atom   17 type  3   force =     0.02476730   -0.00484118    0.01533824
     atom   18 type  4   force =     0.00050661   -0.00462174    0.00193116
     atom   19 type  4   force =    -0.01054139    0.00017530   -0.00853374
     atom   20 type  4   force =    -0.01045437   -0.00042701    0.00849526
     atom   21 type  4   force =     0.01000853    0.00034564   -0.00799243
     atom   22 type  4   force =     0.00975184   -0.00081199    0.00756938
     atom   23 type  5   force =     0.00000000    0.00000000    0.00000000
     The Hubbard contrib.    to forces
     atom    1 type  1   force =     0.00000000    0.00000000    0.00000000
     atom    2 type  1   force =     0.00000000    0.00000000    0.00000000
     atom    3 type  1   force =     0.00000000    0.00000000    0.00000000
     atom    4 type  1   force =     0.00000000    0.00000000    0.00000000
     atom    5 type  1   force =     0.00000000    0.00000000    0.00000000
     atom    6 type  2   force =     0.00000000    0.00000000    0.00000000
     atom    7 type  2   force =     0.00000000    0.00000000    0.00000000
     atom    8 type  3   force =     0.00000000    0.00000000    0.00000000
     atom    9 type  3   force =     0.00000000    0.00000000    0.00000000
     atom   10 type  3   force =     0.00000000    0.00000000    0.00000000
     atom   11 type  3   force =     0.00000000    0.00000000    0.00000000
     atom   12 type  3   force =     0.00000000    0.00000000    0.00000000
     atom   13 type  3   force =     0.00000000    0.00000000    0.00000000
     atom   14 type  3   force =     0.00000000    0.00000000    0.00000000
     atom   15 type  3   force =     0.00000000    0.00000000    0.00000000
     atom   16 type  3   force =     0.00000000    0.00000000    0.00000000
     atom   17 type  3   force =     0.00000000    0.00000000    0.00000000
     atom   18 type  4   force =     0.00000000    0.00000000    0.00000000
     atom   19 type  4   force =     0.00000000    0.00000000    0.00000000
     atom   20 type  4   force =     0.00000000    0.00000000    0.00000000
     atom   21 type  4   force =     0.00000000    0.00000000    0.00000000
     atom   22 type  4   force =     0.00000000    0.00000000    0.00000000
     atom   23 type  5   force =     0.00000000    0.00000000    0.00000000
     The SCF correction term to forces
     atom    1 type  1   force =     0.00000000   -0.00000000   -0.00000000
     atom    2 type  1   force =     0.00000000   -0.00000000    0.00000000
     atom    3 type  1   force =     0.00000000    0.00000000    0.00000000
     atom    4 type  1   force =    -0.00000000    0.00000000    0.00000000
     atom    5 type  1   force =    -0.00000000    0.00000000   -0.00000000
     atom    6 type  2   force =     0.00000000   -0.00000000    0.00000000
     atom    7 type  2   force =     0.00000000    0.00000000   -0.00000000
     atom    8 type  3   force =     0.00000000   -0.00000000    0.00000000
     atom    9 type  3   force =    -0.00000000   -0.00000000    0.00000000
     atom   10 type  3   force =     0.00076846   -0.00530577    0.00354165
     atom   11 type  3   force =     0.00043558   -0.00039164   -0.00393113
     atom   12 type  3   force =    -0.00045686    0.00773338    0.00704319
     atom   13 type  3   force =    -0.00039220    0.00638160   -0.00794075
     atom   14 type  3   force =    -0.00103818   -0.00703447    0.00349786
     atom   15 type  3   force =    -0.00125785   -0.00115744   -0.00391089
     atom   16 type  3   force =     0.00164853    0.00711521    0.00657325
     atom   17 type  3   force =     0.00031305    0.00562648   -0.00669629
     atom   18 type  4   force =     0.00164398    0.01110820    0.00765807
     atom   19 type  4   force =    -0.00362656   -0.00216622    0.00557213
     atom   20 type  4   force =    -0.00216225   -0.00464504   -0.00791218
     atom   21 type  4   force =     0.00360398   -0.00059690    0.00627181
     atom   22 type  4   force =     0.00166768   -0.00310786   -0.00904910
     atom   23 type  5   force =    -0.00073341    0.00009646    0.00031941

     Total force =     2.290243     Total SCF correction =     0.031543

     Molecular Dynamics Calculation

     Starting temperature  =   300.00 K

     temperature is set once at start

     mass Hf               =   178.49
     mass Nb               =    92.91
     mass Ta               =   180.95
     mass Zr               =    91.22
     mass H                =     2.01
     Time step             =     4.20 a.u.,  0.2032 femto-seconds

     Entering Dynamics:    iteration =     1
                           time      =   0.0002 pico-seconds


ATOMIC_POSITIONS (angstrom)
Hf            2.6699999570        2.8271230292        6.6039642186    0   0   0
Hf            1.2529906802        1.2862841814        5.0584662261    0   0   0
Hf            1.2554868986        7.3898042948        5.0880677674    0   0   0
Hf            4.0870092338        1.2862841814        5.0584662261    0   0   0
Hf            4.0845130154        7.3898042948        5.0880677674    0   0   0
Nb            2.6699999570        2.7969306055        3.5155832167    0   0   0
Nb            2.6699999570        5.8763786763        6.6349979432    0   0   0
Ta            1.2093730560        4.3409278516        5.0711258323    0   0   0
Ta            4.1306268580        4.3409278516        5.0711258323    0   0   0
Ta            1.3072516410        1.3141220761        2.0587772990
Ta            1.3027872528        1.3083903551        8.0945809505
Ta            1.3040088639        7.3758268370        2.0462355028
Ta            1.3077100218        7.3650834536        8.0860038984
Ta            4.0327479448        1.3141219956        2.0587774387
Ta            4.0372123934        1.3083903818        8.0945808214
Ta            4.0359910010        7.3758269246        2.0462356160
Ta            4.0322898379        7.3650835702        8.0860038739
Zr            2.6700000816        5.8662868834        3.5273832623
Zr            1.2438261524        4.3220776890        1.9999932729
Zr            1.2403766970        4.3541235380        8.1497623991
Zr            4.0961732621        4.3220775458        1.9999933413
Zr            4.0996228185        4.3541235486        8.1497622315
H             4.7714097989        5.1215174155        5.0721615038


     kinetic energy (Ekin) =           1.83764883 Ry
     temperature           =       13816.27629488 K 
     Ekin + Etot (const)   =       -2940.54458317 Ry

     File outdir/pwscf.msd.dat deleted, as requested

     Writing config-only to output data dir outdir/pwscf.save/
     NEW-OLD atomic charge density approx. for the potential

     Check: negative core charge=   -0.000002

     negative rho (up, down):  9.066E-01 9.066E-01
     Generating pointlists ...
     new r_m :   0.1332 (alat units)  1.8475 (a.u.) for type    1

     total cpu time spent up to now is      496.4 secs

     Self-consistent Calculation

     iteration #  1     ecut=   120.00 Ry     beta= 0.70
     Davidson diagonalization with overlap
     ethr =  1.00E-06,  avg # of iterations =  7.0

     negative rho (up, down):  9.067E-01 9.067E-01

     total cpu time spent up to now is      561.5 secs

     total energy              =   -2942.42773212 Ry
     estimated scf accuracy    <       0.02306701 Ry

     total magnetization       =    -0.01 Bohr mag/cell
     absolute magnetization    =     0.01 Bohr mag/cell

     iteration #  2     ecut=   120.00 Ry     beta= 0.70
     Davidson diagonalization with overlap
     ethr =  8.33E-06,  avg # of iterations =  2.0

     negative rho (up, down):  9.066E-01 9.066E-01

     total cpu time spent up to now is      596.9 secs

     total energy              =   -2942.42898036 Ry
     estimated scf accuracy    <       0.00361835 Ry

     total magnetization       =    -0.01 Bohr mag/cell
     absolute magnetization    =     0.01 Bohr mag/cell

     iteration #  3     ecut=   120.00 Ry     beta= 0.70
     Davidson diagonalization with overlap
     ethr =  1.31E-06,  avg # of iterations =  2.0

     negative rho (up, down):  9.066E-01 9.066E-01

     Magnetic moment per site  (integrated on atomic sphere of radius R)
     atom   1 (R=0.133)  charge=  8.9447   -0.0000
     atom   2 (R=0.133)  charge=  8.6371    0.0000
     atom   3 (R=0.133)  charge=  8.6383   -0.0000
     atom   4 (R=0.133)  charge=  8.6414   -0.0000
     atom   5 (R=0.133)  charge=  8.6263   -0.0000
     atom   6 (R=0.140)  charge= 10.3524   -0.0000
     atom   7 (R=0.140)  charge= 10.3499   -0.0001
     atom   8 (R=0.056)  charge=  1.3401   -0.0000
     atom   9 (R=0.056)  charge=  1.3563   -0.0000
     atom  10 (R=0.056)  charge=  1.3376    0.0000
     atom  11 (R=0.056)  charge=  1.3372   -0.0000
     atom  12 (R=0.056)  charge=  1.3370   -0.0000
     atom  13 (R=0.056)  charge=  1.3373    0.0000
     atom  14 (R=0.056)  charge=  1.3384   -0.0000
     atom  15 (R=0.056)  charge=  1.3388    0.0000
     atom  16 (R=0.056)  charge=  1.3368   -0.0000
     atom  17 (R=0.056)  charge=  1.3382   -0.0000
     atom  18 (R=0.141)  charge=  9.4556   -0.0000
     atom  19 (R=0.141)  charge=  8.9911   -0.0007
     atom  20 (R=0.141)  charge=  8.9930   -0.0001
     atom  21 (R=0.141)  charge=  8.9939   -0.0007
     atom  22 (R=0.141)  charge=  8.9948   -0.0002
     atom  23 (R=0.056)  charge=  0.7547   -0.0000

     total cpu time spent up to now is      630.8 secs

     End of self-consistent calculation

 ------ SPIN UP ------------


          k = 0.0000 0.0000 0.0000 ( 48454 PWs)   bands (ev):

   -57.8514 -57.8395 -57.8061 -57.7945 -57.7750 -57.7623 -57.7307 -57.7185
   -57.6010 -57.3912 -51.4062 -51.3583 -51.2759 -51.2087 -49.7341 -43.2408
   -43.2259 -38.6292 -38.6267 -38.5431 -38.5279 -36.8059 -25.8740 -24.8683
   -24.8557 -24.7797 -24.7734 -24.6641 -24.6463 -24.5503 -24.5213 -24.3913
   -24.3729 -24.3325 -24.3135 -24.3038 -24.2819 -24.2629 -24.2367 -24.2057
   -24.1972 -24.1342 -24.0414 -24.0298 -24.0186 -24.0138 -23.9763 -23.9574
   -23.9382 -23.9177 -23.6582 -23.6332 -21.1899 -20.9769 -20.6661 -20.5875
   -20.3163 -20.1826 -20.1598 -20.0534 -19.9443 -19.8758 -19.8545 -19.6342
   -19.4948 -19.4439 -19.3901 -19.3381 -19.2678 -19.2176 -18.8045 -18.7164
   -18.6644 -17.1848 -16.8876 -16.8574 -16.8179 -16.6339 -16.6154 -16.6098
   -16.5921 -16.5713 -16.5420 -16.3102 -16.3080 -15.1604 -14.9514 -14.8226
     4.0254   5.0614   5.7954   6.1369   6.2435   6.4916   6.5412   6.5935
     6.6036   6.8217   6.9341   7.0289   7.2180   7.3782   7.4428   7.5851
     7.7264   7.7589   7.9494   8.0295   8.0866   8.1520   8.2145   8.2534
     8.3715   8.4650   8.5499   8.6150   8.6619   8.6974   8.7514   8.7856
     8.8443   9.0069   9.0514   9.1508   9.1824   9.2555   9.3008   9.3154
     9.3730   9.4913   9.6390   9.7563   9.7933   9.9480   9.9662  10.0921
    10.1578  10.1771  10.3062  10.3491  10.3952  10.4260  10.5425  10.5920
    10.6971  10.7635  10.9119  10.9232  11.0172  11.0372  11.1355  11.2188
    11.2641  11.3696  11.3917  11.5793  11.6850  11.7606  11.8018  11.8175
    12.0018  12.1147  12.1425  12.1865  12.1883  12.2090  12.2284

 ------ SPIN DOWN ----------


          k = 0.0000 0.0000 0.0000 ( 48454 PWs)   bands (ev):

   -57.8515 -57.8396 -57.8061 -57.7946 -57.7750 -57.7624 -57.7307 -57.7186
   -57.6010 -57.3912 -51.4062 -51.3583 -51.2759 -51.2087 -49.7341 -43.2408
   -43.2259 -38.6298 -38.6269 -38.5433 -38.5285 -36.8059 -25.8740 -24.8684
   -24.8558 -24.7797 -24.7735 -24.6642 -24.6464 -24.5503 -24.5214 -24.3914
   -24.3730 -24.3325 -24.3136 -24.3040 -24.2819 -24.2630 -24.2367 -24.2058
   -24.1973 -24.1342 -24.0415 -24.0299 -24.0188 -24.0139 -23.9764 -23.9575
   -23.9383 -23.9179 -23.6581 -23.6332 -21.1899 -20.9770 -20.6661 -20.5875
   -20.3163 -20.1826 -20.1598 -20.0534 -19.9443 -19.8758 -19.8545 -19.6342
   -19.4949 -19.4440 -19.3901 -19.3381 -19.2678 -19.2176 -18.8046 -18.7164
   -18.6645 -17.1854 -16.8879 -16.8579 -16.8189 -16.6341 -16.6155 -16.6103
   -16.5927 -16.5717 -16.5422 -16.3106 -16.3088 -15.1605 -14.9514 -14.8228
     4.0254   5.0614   5.7952   6.1368   6.2435   6.4915   6.5411   6.5934
     6.6035   6.8216   6.9339   7.0288   7.2178   7.3781   7.4427   7.5850
     7.7263   7.7587   7.9492   8.0293   8.0865   8.1519   8.2143   8.2533
     8.3714   8.4648   8.5496   8.6146   8.6617   8.6972   8.7514   8.7855
     8.8442   9.0068   9.0512   9.1507   9.1823   9.2553   9.3007   9.3153
     9.3728   9.4911   9.6389   9.7561   9.7932   9.9478   9.9661  10.0915
    10.1575  10.1769  10.3054  10.3483  10.3950  10.4257  10.5423  10.5918
    10.6971  10.7632  10.9115  10.9229  11.0169  11.0371  11.1354  11.2187
    11.2638  11.3694  11.3916  11.5791  11.6848  11.7604  11.8015  11.8172
    12.0015  12.1146  12.1424  12.1863  12.1882  12.2087  12.2283

     the Fermi energy is    10.2697 ev

!    total energy              =   -2942.42885836 Ry
     estimated scf accuracy    <       0.00068881 Ry
     smearing contrib. (-TS)   =      -0.09662873 Ry
     internal energy E=F+TS    =   -2942.33222963 Ry

     total magnetization       =    -0.01 Bohr mag/cell
     absolute magnetization    =     0.01 Bohr mag/cell

     convergence has been achieved in   3 iterations

     negative rho (up, down):  9.066E-01 9.066E-01

     Forces acting on atoms (cartesian axes, Ry/au):

     atom    1 type  1   force =     0.01126205   -0.02116688    0.01292663
     atom    2 type  1   force =    -0.12968019   -0.02444457   -0.00013153
     atom    3 type  1   force =    -0.12893078    0.02304629    0.00692905
     atom    4 type  1   force =     0.15604566   -0.02518542   -0.00200311
     atom    5 type  1   force =     0.12660941   -0.01179852    0.00763690
     atom    6 type  2   force =     0.00737441   -0.01993175    0.00022393
     atom    7 type  2   force =    -0.00087193    0.01568831    0.00029810
     atom    8 type  3   force =    -0.14288414    0.00704253   -0.00312831
     atom    9 type  3   force =    -1.21647914   -1.62610397    0.01713243
     atom   10 type  3   force =    -0.03857831   -0.02150848   -0.06531609
     atom   11 type  3   force =    -0.03742998   -0.02927537    0.05879062
     atom   12 type  3   force =    -0.02544928    0.03036649   -0.05859216
     atom   13 type  3   force =    -0.02567718    0.02367038    0.05533108
     atom   14 type  3   force =     0.02620693   -0.02538983   -0.06098463
     atom   15 type  3   force =     0.02733255   -0.02999547    0.05546612
     atom   16 type  3   force =     0.02567657    0.03307724   -0.05523408
     atom   17 type  3   force =     0.02544574    0.02674288    0.05489888
     atom   18 type  4   force =     0.00146949    0.02235832   -0.01072496
     atom   19 type  4   force =    -0.15128701   -0.00689887   -0.11898423
     atom   20 type  4   force =    -0.15539729    0.00160993    0.11703960
     atom   21 type  4   force =     0.14300735   -0.00799422   -0.11733700
     atom   22 type  4   force =     0.14843403    0.00288709    0.11364122
     atom   23 type  5   force =     1.35380103    1.66320389   -0.00787846
     The non-local contrib.  to forces
     atom    1 type  1   force =     0.02098412    0.00732322    0.01439848
     atom    2 type  1   force =    -0.24709938   -0.17021483    0.01636838
     atom    3 type  1   force =    -0.24300644    0.16341372   -0.02702570
     atom    4 type  1   force =     0.25312991   -0.16992415    0.01754161
     atom    5 type  1   force =     0.23354114    0.14042700   -0.02759772
     atom    6 type  2   force =     0.00099788   -0.06309534   -0.06325018
     atom    7 type  2   force =    -0.00212914    0.09232147    0.04438039
     atom    8 type  3   force =    -0.26052117   -0.00161610   -0.00261621
     atom    9 type  3   force =     0.73291261    0.64445109    0.01338656
     atom   10 type  3   force =    -0.24828435    0.00454088   -0.22780043
     atom   11 type  3   force =    -0.24890087    0.00434181    0.21721726
     atom   12 type  3   force =    -0.22304739   -0.02591599   -0.19158544
     atom   13 type  3   force =    -0.23416216   -0.00255935    0.21767261
     atom   14 type  3   force =     0.23040490    0.00533690   -0.22460598
     atom   15 type  3   force =     0.23772884    0.00951196    0.21439757
     atom   16 type  3   force =     0.22444873   -0.02491156   -0.19093549
     atom   17 type  3   force =     0.23358575   -0.00628118    0.21615686
     atom   18 type  4   force =    -0.00400200    0.08402695   -0.04140678
     atom   19 type  4   force =     0.07713329    0.00591301    0.05668626
     atom   20 type  4   force =     0.07435975   -0.00141334   -0.05435003
     atom   21 type  4   force =    -0.06949274    0.00262329    0.04956913
     atom   22 type  4   force =    -0.06421846    0.00305382   -0.04264879
     atom   23 type  5   force =    -0.12103597   -0.15468315   -0.00349507
     The ionic contribution  to forces
     atom    1 type  1   force =    -0.21486464   -4.90362888   15.01899391
     atom    2 type  1   force =   -27.83526974   -6.24011682    0.78150220
     atom    3 type  1   force =   -27.85338565    6.38553575   -0.71337686
     atom    4 type  1   force =    27.75748812   -6.34181181    0.78076361
     atom    5 type  1   force =    27.51221814    7.19092303   -0.70761262
     atom    6 type  2   force =    -0.22476386   -3.87282826  -14.99945611
     atom    7 type  2   force =    -0.57830613    3.84732010   15.32593209
     atom    8 type  3   force =   -38.71038523   -0.08904075   -0.06739964
     atom    9 type  3   force =    34.17610237   -5.41117288   -0.07446379
     atom   10 type  3   force =   -24.85288544   -2.12406023  -24.62259193
     atom   11 type  3   force =   -23.92561267   -0.85755131   23.61851011
     atom   12 type  3   force =   -24.05599424    0.87490069  -23.71817748
     atom   13 type  3   force =   -24.84064770    2.28273318   24.65826445
     atom   14 type  3   force =    24.81531083   -2.15072703  -24.67197654
     atom   15 type  3   force =    23.88859224   -0.88377827   23.66765105
     atom   16 type  3   force =    23.97808899    0.97849074  -23.86224618
     atom   17 type  3   force =    24.76102243    2.38788433   24.80453904
     atom   18 type  4   force =    -0.54328523    4.60675166  -15.15160543
     atom   19 type  4   force =   -25.11855648    0.91692097  -27.14913646
     atom   20 type  4   force =   -25.07485145   -1.02552939   27.12917125
     atom   21 type  4   force =    25.00282289    0.83803735  -27.44896444
     atom   22 type  4   force =    24.95959272   -1.10164328   27.43096101
     atom   23 type  5   force =     6.97756975    4.69239108   -0.02928125
     The local contribution  to forces
     atom    1 type  1   force =     0.20357462    4.85503213  -15.00296143
     atom    2 type  1   force =    27.96242378    6.37693157   -0.78231131
     atom    3 type  1   force =    27.97721737   -6.51438649    0.76394504
     atom    4 type  1   force =   -27.86613844    6.47833750   -0.78639727
     atom    5 type  1   force =   -27.62041439   -7.34353860    0.75884453
     atom    6 type  2   force =     0.23256334    3.89446023   15.07313793
     atom    7 type  2   force =     0.58471640   -3.90564182  -15.35749655
     atom    8 type  3   force =    38.86407974    0.09329749    0.08838643
     atom    9 type  3   force =   -36.19023361    3.12523039    0.09737344
     atom   10 type  3   force =    25.08716491    2.07385318   24.79847252
     atom   11 type  3   force =    24.16617372    0.79963143  -23.79656270
     atom   12 type  3   force =    24.27673378   -0.78617423   23.86809556
     atom   13 type  3   force =    25.07498380   -2.22190241  -24.84428202
     atom   14 type  3   force =   -25.04385280    2.09440229   24.84965894
     atom   15 type  3   force =   -24.12959684    0.81944705  -23.84619055
     atom   16 type  3   force =   -24.19785788   -0.88973908   24.01377971
     atom   17 type  3   force =   -24.99349863   -2.32404182  -24.98776731
     atom   18 type  4   force =     0.55397338   -4.64896338   15.19624676
     atom   19 type  4   force =    24.89558497   -0.93593909   26.98319126
     atom   20 type  4   force =    24.85337593    1.02022434  -26.97557889
     atom   21 type  4   force =   -24.79484784   -0.85297517   27.29342775
     atom   22 type  4   force =   -24.75465730    1.09586492  -27.29382556
     atom   23 type  5   force =    -5.50689836   -2.87073603    0.02753820
     The core correction contribution to forces
     atom    1 type  1   force =     0.00194922    0.00542430   -0.00238236
     atom    2 type  1   force =    -0.01110579   -0.00165426    0.00083927
     atom    3 type  1   force =    -0.01123044    0.00275766   -0.00193114
     atom    4 type  1   force =     0.01247956   -0.00237404    0.00123551
     atom    5 type  1   force =     0.00528305    0.00634503   -0.00227835
     atom    6 type  2   force =     0.00042917    0.00336220    0.00306727
     atom    7 type  2   force =     0.00023855   -0.00459532   -0.00150924
     atom    8 type  3   force =    -0.03075955    0.00046731   -0.00043546
     atom    9 type  3   force =     0.04196106    0.02692897    0.00202799
     atom   10 type  3   force =    -0.02680430    0.00624600   -0.01694443
     atom   11 type  3   force =    -0.02788601    0.00716251    0.01694343
     atom   12 type  3   force =    -0.02476837   -0.00766274   -0.01475623
     atom   13 type  3   force =    -0.02546981   -0.00558008    0.01590754
     atom   14 type  3   force =     0.02557771    0.00603339   -0.01769540
     atom   15 type  3   force =     0.02695946    0.00758367    0.01787546
     atom   16 type  3   force =     0.02451114   -0.00681270   -0.01415464
     atom   17 type  3   force =     0.02476060   -0.00491184    0.01516799
     atom   18 type  4   force =     0.00033956   -0.00458325    0.00197640
     atom   19 type  4   force =    -0.01044273    0.00022983   -0.00859682
     atom   20 type  4   force =    -0.01042696   -0.00039420    0.00854339
     atom   21 type  4   force =     0.00998952    0.00035555   -0.00803856
     atom   22 type  4   force =     0.00976729   -0.00077400    0.00762043
     atom   23 type  5   force =     0.00000000    0.00000000    0.00000000
     The Hubbard contrib.    to forces
     atom    1 type  1   force =     0.00000000    0.00000000    0.00000000
     atom    2 type  1   force =     0.00000000    0.00000000    0.00000000
     atom    3 type  1   force =     0.00000000    0.00000000    0.00000000
     atom    4 type  1   force =     0.00000000    0.00000000    0.00000000
     atom    5 type  1   force =     0.00000000    0.00000000    0.00000000
     atom    6 type  2   force =     0.00000000    0.00000000    0.00000000
     atom    7 type  2   force =     0.00000000    0.00000000    0.00000000
     atom    8 type  3   force =     0.00000000    0.00000000    0.00000000
     atom    9 type  3   force =     0.00000000    0.00000000    0.00000000
     atom   10 type  3   force =     0.00000000    0.00000000    0.00000000
     atom   11 type  3   force =     0.00000000    0.00000000    0.00000000
     atom   12 type  3   force =     0.00000000    0.00000000    0.00000000
     atom   13 type  3   force =     0.00000000    0.00000000    0.00000000
     atom   14 type  3   force =     0.00000000    0.00000000    0.00000000
     atom   15 type  3   force =     0.00000000    0.00000000    0.00000000
     atom   16 type  3   force =     0.00000000    0.00000000    0.00000000
     atom   17 type  3   force =     0.00000000    0.00000000    0.00000000
     atom   18 type  4   force =     0.00000000    0.00000000    0.00000000
     atom   19 type  4   force =     0.00000000    0.00000000    0.00000000
     atom   20 type  4   force =     0.00000000    0.00000000    0.00000000
     atom   21 type  4   force =     0.00000000    0.00000000    0.00000000
     atom   22 type  4   force =     0.00000000    0.00000000    0.00000000
     atom   23 type  5   force =     0.00000000    0.00000000    0.00000000
     The SCF correction term to forces
     atom    1 type  1   force =    -0.00000000    0.00000000   -0.00000000
     atom    2 type  1   force =     0.00000000    0.00000000   -0.00000000
     atom    3 type  1   force =     0.00000000   -0.00000000   -0.00000000
     atom    4 type  1   force =    -0.00000000    0.00000000   -0.00000000
     atom    5 type  1   force =    -0.00000000   -0.00000000   -0.00000000
     atom    6 type  2   force =    -0.00000000    0.00000000   -0.00000000
     atom    7 type  2   force =    -0.00000000   -0.00000000   -0.00000000
     atom    8 type  3   force =    -0.00000000    0.00000000   -0.00000000
     atom    9 type  3   force =     0.00000000   -0.00000000   -0.00000000
     atom   10 type  3   force =     0.00210351    0.01797338    0.00466117
     atom   11 type  3   force =    -0.00133151    0.01720188    0.00379550
     atom   12 type  3   force =     0.00149959   -0.02471954   -0.00105558
     atom   13 type  3   force =    -0.00050867   -0.02895927    0.00888148
     atom   14 type  3   force =    -0.00136106    0.01962631    0.00474733
     atom   15 type  3   force =     0.00352150    0.01730182    0.00284556
     atom   16 type  3   force =    -0.00364178   -0.02388846   -0.00056451
     atom   17 type  3   force =    -0.00055176   -0.02584491    0.00791528
     atom   18 type  4   force =    -0.00568357   -0.01481197   -0.01482294
     atom   19 type  4   force =     0.00486658    0.00603809   -0.00001548
     atom   20 type  4   force =     0.00201808    0.00878420    0.01036686
     atom   21 type  4   force =    -0.00559185    0.00402645   -0.00221790
     atom   22 type  4   force =    -0.00217758    0.00644732    0.01264710
     atom   23 type  5   force =     0.00403825   -0.00370633   -0.00152737

     Total force =     2.187248     Total SCF correction =     0.072452

     Entering Dynamics:    iteration =     2
                           time      =   0.0004 pico-seconds


ATOMIC_POSITIONS (angstrom)
Hf            2.6699999570        2.8271230292        6.6039642186    0   0   0
Hf            1.2529906802        1.2862841814        5.0584662261    0   0   0
Hf            1.2554868986        7.3898042948        5.0880677674    0   0   0
Hf            4.0870092338        1.2862841814        5.0584662261    0   0   0
Hf            4.0845130154        7.3898042948        5.0880677674    0   0   0
Nb            2.6699999570        2.7969306055        3.5155832167    0   0   0
Nb            2.6699999570        5.8763786763        6.6349979432    0   0   0
Ta            1.2093730560        4.3409278516        5.0711258323    0   0   0
Ta            4.1306268580        4.3409278516        5.0711258323    0   0   0
Ta            1.3072484144        1.3141203454        2.0587717911
Ta            1.3027840728        1.3083879173        8.0945860262
Ta            1.3040066653        7.3758292686        2.0462305094
Ta            1.3077077918        7.3650852985        8.0860087077
Ta            4.0327501431        1.3141199648        2.0587723155
Ta            4.0372147339        1.3083879298        8.0945855797
Ta            4.0359931634        7.3758295974        2.0462309260
Ta            4.0322920003        7.3650857056        8.0860086342
Zr            2.6700003711        5.8662904336        3.5273813901
Zr            1.2438007010        4.3220766389        1.9999731876
Zr            1.2403505349        4.3541239722        8.1497823889
Zr            4.0961972844        4.3220762296        1.9999735093
Zr            4.0996478002        4.3541241367        8.1497816721
H             4.7119703410        5.2043858649        5.0721031490


     kinetic energy (Ekin) =           1.88376738 Ry
     temperature           =       14163.01647104 K 
     Ekin + Etot (const)   =       -2940.54509098 Ry

     Writing config-only to output data dir outdir/pwscf.save/
     NEW-OLD atomic charge density approx. for the potential

     Check: negative core charge=   -0.000002

     negative rho (up, down):  9.067E-01 9.067E-01
     Generating pointlists ...
     new r_m :   0.1278 (alat units)  1.7724 (a.u.) for type    1

     total cpu time spent up to now is      651.7 secs

     Self-consistent Calculation

     iteration #  1     ecut=   120.00 Ry     beta= 0.70
     Davidson diagonalization with overlap
     ethr =  1.00E-06,  avg # of iterations = 14.0

     negative rho (up, down):  9.062E-01 9.062E-01

     total cpu time spent up to now is      721.2 secs

     total energy              =   -2942.53229471 Ry
     estimated scf accuracy    <       0.16052380 Ry

     total magnetization       =    -0.01 Bohr mag/cell
     absolute magnetization    =     0.01 Bohr mag/cell

     iteration #  2     ecut=   120.00 Ry     beta= 0.70
     Davidson diagonalization with overlap
     ethr =  5.80E-05,  avg # of iterations =  2.0

     negative rho (up, down):  9.066E-01 9.065E-01

     total cpu time spent up to now is      754.5 secs

     total energy              =   -2942.54245147 Ry
     estimated scf accuracy    <       0.05155948 Ry

     total magnetization       =    -0.00 Bohr mag/cell
     absolute magnetization    =     0.01 Bohr mag/cell

     iteration #  3     ecut=   120.00 Ry     beta= 0.70
     Davidson diagonalization with overlap
     ethr =  1.86E-05,  avg # of iterations =  2.0

     negative rho (up, down):  9.067E-01 9.067E-01

     total cpu time spent up to now is      787.3 secs

     total energy              =   -2942.54569267 Ry
     estimated scf accuracy    <       0.00267023 Ry

     total magnetization       =    -0.00 Bohr mag/cell
     absolute magnetization    =     0.01 Bohr mag/cell

     iteration #  4     ecut=   120.00 Ry     beta= 0.70
     Davidson diagonalization with overlap
     ethr =  9.64E-07,  avg # of iterations =  2.0

     negative rho (up, down):  9.067E-01 9.067E-01

     total cpu time spent up to now is      822.1 secs

     total energy              =   -2942.54579056 Ry
     estimated scf accuracy    <       0.00110453 Ry

     total magnetization       =    -0.00 Bohr mag/cell
     absolute magnetization    =     0.01 Bohr mag/cell

     iteration #  5     ecut=   120.00 Ry     beta= 0.70
     Davidson diagonalization with overlap
     ethr =  3.99E-07,  avg # of iterations =  7.0

     negative rho (up, down):  9.067E-01 9.067E-01

     Magnetic moment per site  (integrated on atomic sphere of radius R)
     atom   1 (R=0.128)  charge=  8.6207   -0.0000
     atom   2 (R=0.128)  charge=  8.3610   -0.0000
     atom   3 (R=0.128)  charge=  8.3623   -0.0000
     atom   4 (R=0.128)  charge=  8.3670   -0.0001
     atom   5 (R=0.128)  charge=  8.3519   -0.0000
     atom   6 (R=0.140)  charge= 10.3532    0.0000
     atom   7 (R=0.140)  charge= 10.3518   -0.0000
     atom   8 (R=0.056)  charge=  1.3404   -0.0000
     atom   9 (R=0.056)  charge=  1.3553    0.0000
     atom  10 (R=0.056)  charge=  1.3376    0.0000
     atom  11 (R=0.056)  charge=  1.3368   -0.0000
     atom  12 (R=0.056)  charge=  1.3371    0.0000
     atom  13 (R=0.056)  charge=  1.3370    0.0000
     atom  14 (R=0.056)  charge=  1.3384   -0.0000
     atom  15 (R=0.056)  charge=  1.3384   -0.0000
     atom  16 (R=0.056)  charge=  1.3368   -0.0000
     atom  17 (R=0.056)  charge=  1.3379   -0.0000
     atom  18 (R=0.141)  charge=  9.4574   -0.0000
     atom  19 (R=0.141)  charge=  8.9970   -0.0004
     atom  20 (R=0.141)  charge=  8.9925   -0.0001
     atom  21 (R=0.141)  charge=  8.9999   -0.0004
     atom  22 (R=0.141)  charge=  8.9937   -0.0001
     atom  23 (R=0.056)  charge=  0.7142    0.0000

     total cpu time spent up to now is      855.9 secs

     End of self-consistent calculation

 ------ SPIN UP ------------


          k = 0.0000 0.0000 0.0000 ( 48454 PWs)   bands (ev):

   -57.8397 -57.8380 -57.7947 -57.7930 -57.7625 -57.7595 -57.7186 -57.7155
   -57.5988 -57.2885 -51.4135 -51.3675 -51.2812 -51.2050 -49.7366 -43.2496
   -43.2213 -38.6366 -38.6217 -38.5383 -38.5353 -36.8033 -25.6080 -24.8574
   -24.8547 -24.7733 -24.7683 -24.6538 -24.6433 -24.5346 -24.5215 -24.3851
   -24.3681 -24.3275 -24.3048 -24.2992 -24.2751 -24.2574 -24.2326 -24.2004
   -24.1870 -24.1338 -24.0297 -24.0188 -24.0182 -24.0116 -23.9644 -23.9573
   -23.9240 -23.9180 -23.6474 -23.6155 -21.1918 -20.9785 -20.6685 -20.5911
   -20.3197 -20.1914 -20.1635 -20.0562 -19.9463 -19.8812 -19.8557 -19.6367
   -19.4950 -19.4440 -19.3945 -19.3432 -19.2682 -19.2172 -18.8034 -18.7180
   -18.6649 -17.1913 -16.8827 -16.8646 -16.8259 -16.6295 -16.6168 -16.6132
   -16.5967 -16.5716 -16.5398 -16.3164 -16.3041 -15.1573 -14.9510 -14.8222
     3.9382   4.9831   5.7992   6.1382   6.2480   6.4947   6.5362   6.5969
     6.6078   6.8189   6.9361   7.0584   7.2171   7.3968   7.4478   7.5882
     7.7272   7.7879   7.9574   8.0315   8.0941   8.1538   8.2144   8.2582
     8.3746   8.4665   8.5503   8.6028   8.6635   8.6832   8.7432   8.7979
     8.8460   9.0101   9.0504   9.1533   9.1855   9.2584   9.3067   9.3258
     9.3723   9.4988   9.6512   9.7517   9.7924   9.9319   9.9665  10.0968
    10.1620  10.1773  10.2997  10.3491  10.3969  10.4324  10.5462  10.5917
    10.6954  10.7671  10.9137  10.9245  11.0170  11.0459  11.1376  11.2216
    11.2635  11.3835  11.3948  11.5786  11.6836  11.7622  11.8027  11.8211
    12.0024  12.0998  12.1384  12.1878  12.1914  12.2107  12.2300

 ------ SPIN DOWN ----------


          k = 0.0000 0.0000 0.0000 ( 48454 PWs)   bands (ev):

   -57.8397 -57.8380 -57.7947 -57.7931 -57.7625 -57.7595 -57.7187 -57.7156
   -57.5988 -57.2885 -51.4135 -51.3675 -51.2812 -51.2050 -49.7366 -43.2496
   -43.2213 -38.6370 -38.6218 -38.5384 -38.5356 -36.8033 -25.6080 -24.8574
   -24.8548 -24.7733 -24.7683 -24.6539 -24.6434 -24.5347 -24.5215 -24.3851
   -24.3681 -24.3275 -24.3048 -24.2993 -24.2751 -24.2575 -24.2327 -24.2005
   -24.1871 -24.1338 -24.0297 -24.0188 -24.0183 -24.0117 -23.9645 -23.9574
   -23.9241 -23.9181 -23.6473 -23.6155 -21.1918 -20.9785 -20.6685 -20.5911
   -20.3197 -20.1914 -20.1635 -20.0563 -19.9463 -19.8813 -19.8557 -19.6367
   -19.4950 -19.4440 -19.3945 -19.3432 -19.2683 -19.2172 -18.8035 -18.7181
   -18.6649 -17.1917 -16.8829 -16.8649 -16.8265 -16.6296 -16.6171 -16.6133
   -16.5971 -16.5718 -16.5399 -16.3169 -16.3042 -15.1574 -14.9510 -14.8222
     3.9382   4.9830   5.7991   6.1381   6.2480   6.4947   6.5361   6.5968
     6.6077   6.8188   6.9360   7.0583   7.2170   7.3967   7.4478   7.5881
     7.7270   7.7877   7.9573   8.0314   8.0940   8.1537   8.2142   8.2581
     8.3746   8.4663   8.5501   8.6027   8.6634   8.6830   8.7431   8.7979
     8.8459   9.0101   9.0503   9.1532   9.1854   9.2582   9.3066   9.3257
     9.3722   9.4987   9.6511   9.7516   9.7923   9.9318   9.9664  10.0965
    10.1618  10.1772  10.2991  10.3487  10.3968  10.4322  10.5461  10.5916
    10.6953  10.7669  10.9135  10.9243  11.0168  11.0458  11.1375  11.2215
    11.2634  11.3833  11.3947  11.5784  11.6834  11.7620  11.8025  11.8209
    12.0022  12.0997  12.1384  12.1877  12.1913  12.2106  12.2300

     the Fermi energy is    10.2703 ev

!    total energy              =   -2942.54564041 Ry
     estimated scf accuracy    <       0.00022645 Ry
     smearing contrib. (-TS)   =      -0.09614772 Ry
     internal energy E=F+TS    =   -2942.44949269 Ry

     total magnetization       =    -0.00 Bohr mag/cell
     absolute magnetization    =     0.01 Bohr mag/cell

     convergence has been achieved in   5 iterations

     negative rho (up, down):  9.067E-01 9.067E-01

     Forces acting on atoms (cartesian axes, Ry/au):

     atom    1 type  1   force =     0.00741199   -0.01443782    0.00819272
     atom    2 type  1   force =    -0.12931865   -0.01871526   -0.00790278
     atom    3 type  1   force =    -0.12864805    0.01558058    0.00012478
     atom    4 type  1   force =     0.15841848   -0.01979817   -0.00973770
     atom    5 type  1   force =     0.12207323   -0.02039041    0.00197947
     atom    6 type  2   force =     0.00547401   -0.01948188    0.00200006
     atom    7 type  2   force =    -0.00470312    0.01417507    0.00428692
     atom    8 type  3   force =    -0.14172737    0.00675573   -0.00491258
     atom    9 type  3   force =    -0.90552580   -1.50111552    0.01240311
     atom   10 type  3   force =    -0.03930363   -0.01766697   -0.06148664
     atom   11 type  3   force =    -0.03835049   -0.02406221    0.06139984
     atom   12 type  3   force =    -0.02434757    0.02560696   -0.05701076
     atom   13 type  3   force =    -0.02444334    0.01711159    0.05962487
     atom   14 type  3   force =     0.02689395   -0.02184627   -0.05833776
     atom   15 type  3   force =     0.02893958   -0.02644746    0.05906806
     atom   16 type  3   force =     0.02506122    0.02817619   -0.05369485
     atom   17 type  3   force =     0.02514198    0.02054470    0.05920688
     atom   18 type  4   force =    -0.00400123    0.01840931   -0.01531753
     atom   19 type  4   force =    -0.15026652   -0.00547540   -0.11762572
     atom   20 type  4   force =    -0.15369560    0.00350587    0.12089815
     atom   21 type  4   force =     0.14198296   -0.00640831   -0.11744252
     atom   22 type  4   force =     0.14726994    0.00415930    0.11941938
     atom   23 type  5   force =     1.05566405    1.54182038   -0.00513539
     The non-local contrib.  to forces
     atom    1 type  1   force =     0.01833771    0.00897068    0.01292573
     atom    2 type  1   force =    -0.24637457   -0.16747928    0.01169416
     atom    3 type  1   force =    -0.24248966    0.15969870   -0.03060325
     atom    4 type  1   force =     0.25271629   -0.16453976    0.01326253
     atom    5 type  1   force =     0.22826385    0.12814873   -0.03038803
     atom    6 type  2   force =     0.00106371   -0.06284196   -0.06096352
     atom    7 type  2   force =    -0.00003800    0.09120051    0.04555854
     atom    8 type  3   force =    -0.26117045    0.00011124   -0.00608192
     atom    9 type  3   force =     0.60808873    0.60656238    0.00767269
     atom   10 type  3   force =    -0.24826810    0.00823804   -0.22485418
     atom   11 type  3   force =    -0.25059033    0.00958844    0.21741542
     atom   12 type  3   force =    -0.22289963   -0.02957280   -0.19312088
     atom   13 type  3   force =    -0.23471924   -0.00823358    0.22051993
     atom   14 type  3   force =     0.23296653    0.00686534   -0.22342217
     atom   15 type  3   force =     0.24150478    0.01167861    0.21522813
     atom   16 type  3   force =     0.22432963   -0.02756529   -0.19088274
     atom   17 type  3   force =     0.23469691   -0.01044260    0.21800943
     atom   18 type  4   force =    -0.00344441    0.08100024   -0.04799577
     atom   19 type  4   force =     0.07593293    0.00648593    0.05551256
     atom   20 type  4   force =     0.07346027    0.00009567   -0.05176375
     atom   21 type  4   force =    -0.06979670    0.00393222    0.04741020
     atom   22 type  4   force =    -0.06495568    0.00422186   -0.03946272
     atom   23 type  5   force =    -0.10125525   -0.16306643   -0.00312473
     The ionic contribution  to forces
     atom    1 type  1   force =    -0.20660963   -4.90349958   15.01439856
     atom    2 type  1   force =   -27.83967628   -6.22898666    0.78151948
     atom    3 type  1   force =   -27.86966500    6.39064433   -0.71327658
     atom    4 type  1   force =    27.76462413   -6.31414302    0.78081457
     atom    5 type  1   force =    27.49746649    7.30016098   -0.70651768
     atom    6 type  2   force =    -0.21610905   -3.87223749  -14.99445197
     atom    7 type  2   force =    -0.61946715    3.83706538   15.36821038
     atom    8 type  3   force =   -38.74039129   -0.10426179   -0.06740553
     atom    9 type  3   force =    34.94684261   -5.46346502   -0.07347343
     atom   10 type  3   force =   -24.85479685   -2.11819178  -24.62133172
     atom   11 type  3   force =   -23.92752123   -0.85168965   23.61726281
     atom   12 type  3   force =   -24.06098137    0.87601994  -23.72256184
     atom   13 type  3   force =   -24.84567525    2.28381445   24.66267278
     atom   14 type  3   force =    24.81773147   -2.14095679  -24.66963790
     atom   15 type  3   force =    23.89099745   -0.87403278   23.66534602
     atom   16 type  3   force =    23.97937179    0.98440144  -23.87796143
     atom   17 type  3   force =    24.76225884    2.39379902   24.82046183
     atom   18 type  4   force =    -0.58214650    4.59691930  -15.19096134
     atom   19 type  4   force =   -25.12413953    0.91159682  -27.14681243
     atom   20 type  4   force =   -25.08046445   -1.03090639   27.12691353
     atom   21 type  4   force =    25.01179721    0.82565800  -27.44294822
     atom   22 type  4   force =    24.96853676   -1.11423264   27.42526247
     atom   23 type  5   force =     6.32801684    4.61652393   -0.03552236
     The local contribution  to forces
     atom    1 type  1   force =     0.19068337    4.88492803  -15.02703419
     atom    2 type  1   force =    27.96787621    6.38449183   -0.81361319
     atom    3 type  1   force =    27.99403598   -6.54462463    0.73446781
     atom    4 type  1   force =   -27.87259157    6.46286929   -0.81643125
     atom    5 type  1   force =   -27.60712448   -7.45858390    0.72986924
     atom    6 type  2   force =     0.21663267    3.92271199   15.04322737
     atom    7 type  2   force =     0.61029682   -3.91853690  -15.41756634
     atom    8 type  3   force =    38.88468219    0.11202318    0.05670509
     atom    9 type  3   force =   -36.49070039    3.33227344    0.06479889
     atom   10 type  3   force =    25.08907639    2.09227989   24.80551349
     atom   11 type  3   force =    24.16954629    0.82186317  -23.79074756
     atom   12 type  3   force =    24.28314745   -0.82311252   23.87573397
     atom   13 type  3   force =    25.08252041   -2.26820710  -24.83844359
     atom   14 type  3   force =   -25.04830042    2.11241939   24.85629248
     atom   15 type  3   force =   -24.13209243    0.83847210  -23.83986648
     atom   16 type  3   force =   -24.20303460   -0.93067740   24.03146236
     atom   17 type  3   force =   -24.99830868   -2.37161764  -24.99361195
     atom   18 type  4   force =     0.57735055   -4.66121334   15.20943315
     atom   19 type  4   force =    24.90607815   -0.92104107   26.98222229
     atom   20 type  4   force =    24.86459143    1.03749644  -26.96010958
     atom   21 type  4   force =   -24.80853512   -0.83420623   27.28298183
     atom   22 type  4   force =   -24.76798333    1.11744055  -27.26852232
     atom   23 type  5   force =    -5.17034997   -2.91168735    0.03154766
     The core correction contribution to forces
     atom    1 type  1   force =     0.00183373    0.00510950   -0.00179394
     atom    2 type  1   force =    -0.01103584   -0.00144354    0.00085979
     atom    3 type  1   force =    -0.01107366    0.00291544   -0.00185732
     atom    4 type  1   force =     0.01276497   -0.00218763    0.00128347
     atom    5 type  1   force =     0.00393311    0.00662544   -0.00209824
     atom    6 type  2   force =     0.00035763    0.00332235    0.00289322
     atom    7 type  2   force =     0.00009565   -0.00454334   -0.00151182
     atom    8 type  3   force =    -0.03050130    0.00047385   -0.00037840
     atom    9 type  3   force =     0.03332359    0.02295414    0.00148196
     atom   10 type  3   force =    -0.02690435    0.00636470   -0.01668631
     atom   11 type  3   force =    -0.02820196    0.00730144    0.01699268
     atom   12 type  3   force =    -0.02469847   -0.00753303   -0.01486817
     atom   13 type  3   force =    -0.02549946   -0.00556757    0.01604994
     atom   14 type  3   force =     0.02569811    0.00593607   -0.01775151
     atom   15 type  3   force =     0.02719275    0.00753786    0.01807639
     atom   16 type  3   force =     0.02468472   -0.00667376   -0.01413146
     atom   17 type  3   force =     0.02502395   -0.00487911    0.01522754
     atom   18 type  4   force =     0.00023209   -0.00457302    0.00212506
     atom   19 type  4   force =    -0.01038811    0.00025196   -0.00854105
     atom   20 type  4   force =    -0.01032847   -0.00040399    0.00847830
     atom   21 type  4   force =     0.01001488    0.00032996   -0.00798534
     atom   22 type  4   force =     0.00977520   -0.00077279    0.00757821
     atom   23 type  5   force =     0.00000000    0.00000000    0.00000000
     The Hubbard contrib.    to forces
     atom    1 type  1   force =     0.00000000    0.00000000    0.00000000
     atom    2 type  1   force =     0.00000000    0.00000000    0.00000000
     atom    3 type  1   force =     0.00000000    0.00000000    0.00000000
     atom    4 type  1   force =     0.00000000    0.00000000    0.00000000
     atom    5 type  1   force =     0.00000000    0.00000000    0.00000000
     atom    6 type  2   force =     0.00000000    0.00000000    0.00000000
     atom    7 type  2   force =     0.00000000    0.00000000    0.00000000
     atom    8 type  3   force =     0.00000000    0.00000000    0.00000000
     atom    9 type  3   force =     0.00000000    0.00000000    0.00000000
     atom   10 type  3   force =     0.00000000    0.00000000    0.00000000
     atom   11 type  3   force =     0.00000000    0.00000000    0.00000000
     atom   12 type  3   force =     0.00000000    0.00000000    0.00000000
     atom   13 type  3   force =     0.00000000    0.00000000    0.00000000
     atom   14 type  3   force =     0.00000000    0.00000000    0.00000000
     atom   15 type  3   force =     0.00000000    0.00000000    0.00000000
     atom   16 type  3   force =     0.00000000    0.00000000    0.00000000
     atom   17 type  3   force =     0.00000000    0.00000000    0.00000000
     atom   18 type  4   force =     0.00000000    0.00000000    0.00000000
     atom   19 type  4   force =     0.00000000    0.00000000    0.00000000
     atom   20 type  4   force =     0.00000000    0.00000000    0.00000000
     atom   21 type  4   force =     0.00000000    0.00000000    0.00000000
     atom   22 type  4   force =     0.00000000    0.00000000    0.00000000
     atom   23 type  5   force =     0.00000000    0.00000000    0.00000000
     The SCF correction term to forces
     atom    1 type  1   force =     0.00000000   -0.00000000    0.00000000
     atom    2 type  1   force =    -0.00000000   -0.00000000    0.00000000
     atom    3 type  1   force =     0.00000000    0.00000000    0.00000000
     atom    4 type  1   force =     0.00000000   -0.00000000    0.00000000
     atom    5 type  1   force =    -0.00000000    0.00000000    0.00000000
     atom    6 type  2   force =     0.00000000   -0.00000000    0.00000000
     atom    7 type  2   force =     0.00000000    0.00000000    0.00000000
     atom    8 type  3   force =     0.00000000   -0.00000000    0.00000000
     atom    9 type  3   force =    -0.00000000    0.00000000    0.00000000
     atom   10 type  3   force =     0.00146577   -0.00631412   -0.00505827
     atom   11 type  3   force =    -0.00170679   -0.01108190   -0.00045387
     atom   12 type  3   force =     0.00096094    0.00984908   -0.00312421
     atom   13 type  3   force =    -0.00119333    0.01534909   -0.00210455
     atom   14 type  3   force =    -0.00132526   -0.00606658   -0.00474901
     atom   15 type  3   force =     0.00121351   -0.01005955   -0.00064635
     atom   16 type  3   force =    -0.00041384    0.00873490   -0.00311194
     atom   17 type  3   force =     0.00134744    0.01372874   -0.00181033
     atom   18 type  4   force =     0.00388352    0.00631985    0.01115100
     atom   19 type  4   force =     0.00212652   -0.00272534   -0.00093745
     atom   20 type  4   force =    -0.00107790   -0.00273215   -0.00355071
     atom   21 type  4   force =    -0.00162083   -0.00207857    0.00216866
     atom   22 type  4   force =     0.00177346   -0.00245397   -0.00636662
     atom   23 type  5   force =    -0.00087108    0.00009394    0.00103369

     Total force =     1.917239     Total SCF correction =     0.035542

     Entering Dynamics:    iteration =     3
                           time      =   0.0006 pico-seconds


ATOMIC_POSITIONS (angstrom)
Hf            2.6699999570        2.8271230292        6.6039642186    0   0   0
Hf            1.2529906802        1.2862841814        5.0584662261    0   0   0
Hf            1.2554868986        7.3898042948        5.0880677674    0   0   0
Hf            4.0870092338        1.2862841814        5.0584662261    0   0   0
Hf            4.0845130154        7.3898042948        5.0880677674    0   0   0
Nb            2.6699999570        2.7969306055        3.5155832167    0   0   0
Nb            2.6699999570        5.8763786763        6.6349979432    0   0   0
Ta            1.2093730560        4.3409278516        5.0711258323    0   0   0
Ta            4.1306268580        4.3409278516        5.0711258323    0   0   0
Ta            1.3072429632        1.3141176148        2.0587628030
Ta            1.3027787222        1.3083841175        8.0945945771
Ta            1.3040030886        7.3758331496        2.0462222893
Ta            1.3077041784        7.3650881119        8.0860168917
Ta            4.0327538636        1.3141166974        2.0587638904
Ta            4.0372187125        1.3083839809        8.0945936813
Ta            4.0359967443        7.3758338648        2.0462231969
Ta            4.0322955859        7.3650890038        8.0860167457
Zr            2.6700002114        5.8662960506        3.5273777982
Zr            1.2437583792        4.3220749741        1.9999398965
Zr            1.2403071176        4.3541248000        8.1498159518
Zr            4.0962372471        4.3220741939        1.9999404921
Zr            4.0996893158        4.3541251919        8.1498145198
H             4.6578991719        5.2950948172        5.0720186797


     kinetic energy (Ekin) =           1.99812098 Ry
     temperature           =       15022.77859191 K 
     Ekin + Etot (const)   =       -2940.54751943 Ry

     Writing config-only to output data dir outdir/pwscf.save/
     NEW-OLD atomic charge density approx. for the potential

     Check: negative core charge=   -0.000002

     negative rho (up, down):  9.068E-01 9.068E-01
     Generating pointlists ...
     new r_m :   0.1221 (alat units)  1.6930 (a.u.) for type    1

     total cpu time spent up to now is      876.8 secs

     Self-consistent Calculation

     iteration #  1     ecut=   120.00 Ry     beta= 0.70
     Davidson diagonalization with overlap
     ethr =  1.00E-06,  avg # of iterations = 16.0

     negative rho (up, down):  9.069E-01 9.069E-01

     total cpu time spent up to now is      946.9 secs

     total energy              =   -2942.69026405 Ry
     estimated scf accuracy    <       0.09732293 Ry

     total magnetization       =    -0.00 Bohr mag/cell
     absolute magnetization    =     0.00 Bohr mag/cell

[...]
   -24.7711 -24.7660 -24.6658 -24.6413 -24.5348 -24.5231 -24.4518 -24.3789
   -24.3545 -24.3203 -24.3003 -24.2894 -24.2598 -24.2341 -24.2254 -24.1996
   -24.1791 -24.1439 -24.0329 -24.0287 -24.0217 -24.0146 -24.0104 -24.0061
   -23.9650 -23.9493 -23.9227 -23.9201 -21.2322 -21.0395 -20.6689 -20.5623
   -20.3114 -20.1825 -20.1133 -20.0319 -19.9490 -19.8969 -19.7930 -19.6149
   -19.5173 -19.4340 -19.3824 -19.3162 -19.2722 -19.2314 -18.7320 -18.6489
   -18.5886 -17.1786 -16.8763 -16.8613 -16.8141 -16.6506 -16.6205 -16.6107
   -16.5941 -16.5798 -16.5352 -16.3035 -16.2979 -15.2048 -14.9948 -14.8412
     2.8895   4.6919   5.8036   6.1241   6.2582   6.4623   6.5031   6.5913
     6.6029   6.8089   6.9332   7.1207   7.1989   7.4009   7.4932   7.5815
     7.6918   7.8583   8.0231   8.0406   8.1260   8.1573   8.2291   8.2658
     8.3788   8.4532   8.5304   8.5697   8.6487   8.6727   8.7020   8.7866
     8.8590   9.0163   9.0553   9.1506   9.1931   9.2476   9.3032   9.3566
     9.4032   9.4998   9.6977   9.7297   9.7940   9.8518   9.9731  10.1022
    10.1695  10.2470  10.3546  10.3902  10.3966  10.4456  10.5441  10.5869
    10.7248  10.7550  10.9189  10.9756  11.0165  11.0218  11.1901  11.2236
    11.2624  11.3728  11.3842  11.5754  11.7032  11.7737  11.7923  11.8114
    11.9960  12.0158  12.1056  12.1366  12.1910  12.1988  12.2077

     the Fermi energy is    10.2918 ev

!    total energy              =   -2943.17114971 Ry
     estimated scf accuracy    <       0.00066178 Ry
     smearing contrib. (-TS)   =      -0.09505637 Ry
     internal energy E=F+TS    =   -2943.07609334 Ry

     total magnetization       =    -0.00 Bohr mag/cell
     absolute magnetization    =     0.00 Bohr mag/cell

     convergence has been achieved in   4 iterations

     negative rho (up, down):  9.080E-01 9.080E-01

     Forces acting on atoms (cartesian axes, Ry/au):

     atom    1 type  1   force =     0.00288493   -0.02938331    0.01600582
     atom    2 type  1   force =    -0.13480672   -0.01481708    0.00473771
     atom    3 type  1   force =    -0.12632951    0.01211921    0.01224617
     atom    4 type  1   force =     0.14689060   -0.01156530    0.00185547
     atom    5 type  1   force =     0.06973752    0.26306426    0.02434644
     atom    6 type  2   force =     0.00737566   -0.02048401    0.00613872
     atom    7 type  2   force =    -0.01534863    0.01014481    0.01428491
     atom    8 type  3   force =    -0.12606275    0.00084408   -0.00103359
     atom    9 type  3   force =     0.09410384   -0.10721635   -0.00137061
     atom   10 type  3   force =    -0.03975665   -0.02037506   -0.06123577
     atom   11 type  3   force =    -0.04199775   -0.02707557    0.05243695
     atom   12 type  3   force =    -0.01975763    0.02757741   -0.06332040
     atom   13 type  3   force =    -0.02158476    0.02402345    0.05759641
     atom   14 type  3   force =     0.02946638   -0.02422690   -0.06268362
     atom   15 type  3   force =     0.03460195   -0.03150208    0.05429191
     atom   16 type  3   force =     0.02584555    0.03676422   -0.06410590
     atom   17 type  3   force =     0.02486046    0.03199213    0.05664500
     atom   18 type  4   force =    -0.01522403    0.01675712   -0.02304173
     atom   19 type  4   force =    -0.14129196   -0.00441707   -0.12442183
     atom   20 type  4   force =    -0.14681149    0.00607642    0.11811106
     atom   21 type  4   force =     0.13899751   -0.00544334   -0.12452561
     atom   22 type  4   force =     0.14629405    0.00206943    0.11845914
     atom   23 type  5   force =     0.10791345   -0.13492645   -0.01141666
     The non-local contrib.  to forces
     atom    1 type  1   force =    -0.00350103   -0.00415326    0.04503870
     atom    2 type  1   force =    -0.24712667   -0.16641885    0.01677085
     atom    3 type  1   force =    -0.24029049    0.15815482   -0.02287059
     atom    4 type  1   force =     0.24612962   -0.23983311    0.01710716
     atom    5 type  1   force =     0.19906731    0.17611144   -0.01615798
     atom    6 type  2   force =     0.00177370   -0.06207769   -0.05133951
     atom    7 type  2   force =     0.00268700    0.07381294    0.06391809
     atom    8 type  3   force =    -0.25964370    0.00557375   -0.00294100
     atom    9 type  3   force =     0.18454490    0.03190841   -0.00258769
     atom   10 type  3   force =    -0.24108683    0.01816212   -0.22272390
     atom   11 type  3   force =    -0.24863279    0.01846994    0.21629209
     atom   12 type  3   force =    -0.21368967   -0.03243529   -0.20198892
     atom   13 type  3   force =    -0.22666775   -0.01255725    0.22458047
     atom   14 type  3   force =     0.23850889    0.00742916   -0.21969198
     atom   15 type  3   force =     0.24484427    0.01187359    0.20828873
     atom   16 type  3   force =     0.22665941   -0.02558258   -0.19288500
     atom   17 type  3   force =     0.23230520   -0.00813389    0.21775716
     atom   18 type  4   force =     0.00200378    0.06776008   -0.06894613
     atom   19 type  4   force =     0.07060196    0.00044665    0.05995834
     atom   20 type  4   force =     0.06786789    0.00099318   -0.05684760
     atom   21 type  4   force =    -0.07686461   -0.00003115    0.04776727
     atom   22 type  4   force =    -0.07216983   -0.00270573   -0.04273677
     atom   23 type  5   force =    -0.02915133    0.01093805   -0.00287562
     The ionic contribution  to forces
     atom    1 type  1   force =    -0.12719559   -4.82191227   14.96000606
     atom    2 type  1   force =   -27.86166774   -6.12253219    0.78172370
     atom    3 type  1   force =   -28.02449367    6.40782761   -0.71164076
     atom    4 type  1   force =    27.79229742   -6.05953526    0.78109473
     atom    5 type  1   force =    27.23028041    9.06284677   -0.68045899
     atom    6 type  2   force =    -0.13358529   -3.78260551  -14.93591118
     atom    7 type  2   force =    -0.85558025    3.54922040   15.66880416
     atom    8 type  3   force =   -38.83499434   -0.20403016   -0.06744016
     atom    9 type  3   force =    38.22478098   -2.62181878   -0.06733572
     atom   10 type  3   force =   -24.86064588   -2.06014719  -24.61325361
     atom   11 type  3   force =   -23.93335700   -0.79381422   23.60924984
     atom   12 type  3   force =   -24.09666792    0.86733053  -23.76130625
     atom   13 type  3   force =   -24.88080347    2.27417250   24.70083161
     atom   14 type  3   force =    24.82482026   -2.04568494  -24.66000699
     atom   15 type  3   force =    23.89804936   -0.77914225   23.65587598
     atom   16 type  3   force =    23.98747180    0.99233402  -24.02343238
     atom   17 type  3   force =    24.76934698    2.40064262   24.96684872
     atom   18 type  4   force =    -0.80580355    4.32362154  -15.46958245
     atom   19 type  4   force =   -25.13201740    0.87616558  -27.10710002
     atom   20 type  4   force =   -25.08834294   -1.06645016   27.08741659
     atom   21 type  4   force =    25.05306048    0.76405064  -27.32160301
     atom   22 type  4   force =    25.00961508   -1.17792594   27.30499531
     atom   23 type  5   force =     3.84543227    0.01738666   -0.09777519
     The local contribution  to forces
     atom    1 type  1   force =     0.13132072    4.79164346  -14.97588754
     atom    2 type  1   force =    27.98542602    6.28019441   -0.76348079
     atom    3 type  1   force =    28.14201048   -6.56403470    0.78112131
     atom    4 type  1   force =   -27.90704107    6.30796027   -0.76540934
     atom    5 type  1   force =   -27.36530095   -8.97927858    0.75528422
     atom    6 type  2   force =     0.13550816    3.82683328   15.01570751
     atom    7 type  2   force =     0.82519849   -3.61324759  -15.69052167
     atom    8 type  3   force =    38.99989626    0.19955927    0.10191738
     atom    9 type  3   force =   -38.34388989    2.46416747    0.10243678
     atom   10 type  3   force =    25.08994976    2.01998545   24.77987444
     atom   11 type  3   force =    24.16266862    0.73488049  -23.79510465
     atom   12 type  3   force =    24.31359857   -0.80284695   23.90502727
     atom   13 type  3   force =    25.10499797   -2.22562461  -24.89088862
     atom   14 type  3   force =   -25.06568153    2.01882704   24.82457132
     atom   15 type  3   force =   -24.13394532    0.72660382  -23.83335342
     atom   16 type  3   force =   -24.22022223   -0.92759305   24.15120263
     atom   17 type  3   force =   -25.00155880   -2.35049429  -25.14505441
     atom   18 type  4   force =     0.77648495   -4.38310069   15.53093635
     atom   19 type  4   force =    24.93357259   -0.88305673   26.92707083
     atom   20 type  4   force =    24.87831845    1.07193431  -26.92922322
     atom   21 type  4   force =   -24.85430983   -0.77399551   27.14967208
     atom   22 type  4   force =   -24.79867963    1.18106130  -27.15689595
     atom   23 type  5   force =    -3.70979063   -0.16254136    0.09384249
     The core correction contribution to forces
     atom    1 type  1   force =     0.00008810    0.00370182    0.00219563
     atom    2 type  1   force =    -0.01221327   -0.00135824    0.00114697
     atom    3 type  1   force =    -0.00867450    0.00531237   -0.00183230
     atom    4 type  1   force =     0.01344846   -0.00786576    0.00094348
     atom    5 type  1   force =     0.00344798   -0.00318897   -0.00115409
     atom    6 type  2   force =    -0.00022727    0.00309582    0.00179631
     atom    7 type  2   force =     0.00028865   -0.00375385   -0.00250312
     atom    8 type  3   force =    -0.03033247   -0.00070285   -0.00027625
     atom    9 type  3   force =     0.01784785   -0.00402667   -0.00109800
     atom   10 type  3   force =    -0.02650013    0.00716707   -0.01576990
     atom   11 type  3   force =    -0.02795094    0.00770422    0.01667229
     atom   12 type  3   force =    -0.02378248   -0.00789218   -0.01578218
     atom   13 type  3   force =    -0.02446688   -0.00626651    0.01670674
     atom   14 type  3   force =     0.02586778    0.00575612   -0.01677779
     atom   15 type  3   force =     0.02722437    0.00750488    0.01676788
     atom   16 type  3   force =     0.02550667   -0.00734253   -0.01387763
     atom   17 type  3   force =     0.02487324   -0.00599138    0.01479217
     atom   18 type  4   force =     0.00012153   -0.00383883    0.00358517
     atom   19 type  4   force =    -0.00998751    0.00046258   -0.00889412
     atom   20 type  4   force =    -0.01002523   -0.00049938    0.00873867
     atom   21 type  4   force =     0.01039909    0.00059781   -0.00808055
     atom   22 type  4   force =     0.01029821   -0.00028405    0.00778985
     atom   23 type  5   force =     0.00000000    0.00000000    0.00000000
     The Hubbard contrib.    to forces
     atom    1 type  1   force =     0.00000000    0.00000000    0.00000000
     atom    2 type  1   force =     0.00000000    0.00000000    0.00000000
     atom    3 type  1   force =     0.00000000    0.00000000    0.00000000
     atom    4 type  1   force =     0.00000000    0.00000000    0.00000000
     atom    5 type  1   force =     0.00000000    0.00000000    0.00000000
     atom    6 type  2   force =     0.00000000    0.00000000    0.00000000
     atom    7 type  2   force =     0.00000000    0.00000000    0.00000000
     atom    8 type  3   force =     0.00000000    0.00000000    0.00000000
     atom    9 type  3   force =     0.00000000    0.00000000    0.00000000
     atom   10 type  3   force =     0.00000000    0.00000000    0.00000000
     atom   11 type  3   force =     0.00000000    0.00000000    0.00000000
     atom   12 type  3   force =     0.00000000    0.00000000    0.00000000
     atom   13 type  3   force =     0.00000000    0.00000000    0.00000000
     atom   14 type  3   force =     0.00000000    0.00000000    0.00000000
     atom   15 type  3   force =     0.00000000    0.00000000    0.00000000
     atom   16 type  3   force =     0.00000000    0.00000000    0.00000000
     atom   17 type  3   force =     0.00000000    0.00000000    0.00000000
     atom   18 type  4   force =     0.00000000    0.00000000    0.00000000
     atom   19 type  4   force =     0.00000000    0.00000000    0.00000000
     atom   20 type  4   force =     0.00000000    0.00000000    0.00000000
     atom   21 type  4   force =     0.00000000    0.00000000    0.00000000
     atom   22 type  4   force =     0.00000000    0.00000000    0.00000000
     atom   23 type  5   force =     0.00000000    0.00000000    0.00000000
     The SCF correction term to forces
     atom    1 type  1   force =     0.00000000    0.00000000   -0.00000000
     atom    2 type  1   force =     0.00000000   -0.00000000   -0.00000000
     atom    3 type  1   force =     0.00000000    0.00000000   -0.00000000
     atom    4 type  1   force =     0.00000000   -0.00000000   -0.00000000
     atom    5 type  1   force =     0.00000000    0.00000000   -0.00000000
     atom    6 type  2   force =     0.00000000   -0.00000000   -0.00000000
     atom    7 type  2   force =     0.00000000    0.00000000   -0.00000000
     atom    8 type  3   force =    -0.00000000    0.00000000   -0.00000000
     atom    9 type  3   force =     0.00000000    0.00000000   -0.00000000
     atom   10 type  3   force =    -0.00191639   -0.00564068    0.01249475
     atom   11 type  3   force =     0.00483154    0.00558583    0.00718493
     atom   12 type  3   force =     0.00034104    0.00332313    0.01258722
     atom   13 type  3   force =     0.00491254   -0.00579885    0.00822374
     atom   14 type  3   force =     0.00550816   -0.01065245    0.01107936
     atom   15 type  3   force =    -0.00201356    0.00155970    0.00857028
     atom   16 type  3   force =     0.00598709    0.00485020    0.01674402
     atom   17 type  3   force =    -0.00054899   -0.00412910    0.00415890
     atom   18 type  4   force =     0.01152644    0.01221685   -0.01717713
     atom   19 type  4   force =    -0.00390442    0.00146669    0.00640067
     atom   20 type  4   force =     0.00492751    0.00000030    0.00988415
     atom   21 type  4   force =     0.00626956    0.00383670    0.00957613
     atom   22 type  4   force =    -0.00321260    0.00182568    0.00716424
     atom   23 type  5   force =     0.00098032   -0.00080797   -0.00275081

     Total force =     0.462967     Total SCF correction =     0.047865
     SCF correction compared to forces is large: reduce conv_thr to get better values

     Entering Dynamics:    iteration =    10
                           time      =   0.0020 pico-seconds


ATOMIC_POSITIONS (angstrom)
Hf            2.6699999570        2.8271230292        6.6039642186    0   0   0
Hf            1.2529906802        1.2862841814        5.0584662261    0   0   0
Hf            1.2554868986        7.3898042948        5.0880677674    0   0   0
Hf            4.0870092338        1.2862841814        5.0584662261    0   0   0
Hf            4.0845130154        7.3898042948        5.0880677674    0   0   0
Nb            2.6699999570        2.7969306055        3.5155832167    0   0   0
Nb            2.6699999570        5.8763786763        6.6349979432    0   0   0
Ta            1.2093730560        4.3409278516        5.0711258323    0   0   0
Ta            4.1306268580        4.3409278516        5.0711258323    0   0   0
Ta            1.3071412971        1.3140670487        2.0586044048
Ta            1.3026772318        1.3083169261        8.0947457831
Ta            1.3039456725        7.3759050482        2.0460716818
Ta            1.3076446944        7.3651436058        8.0861672993
Ta            4.0328241752        1.3140549240        2.0586090064
Ta            4.0372963569        1.3083078946        8.0947435937
Ta            4.0360611362        7.3759170178        2.0460776197
Ta            4.0323592353        7.3651551856        8.0861660964
Zr            2.6699624943        5.8663974275        3.5272897362
Zr            1.2430031455        4.3220462519        1.9993313354
Zr            1.2395308819        4.3541432206        8.1504267956
Zr            4.0969578914        4.3220410130        1.9993331127
Zr            4.1004402784        4.3541401506        8.1504193388
H             4.3388921317        6.0420646465        5.0705373536


     kinetic energy (Ekin) =           2.61947001 Ry
     temperature           =       19694.36207959 K 
     Ekin + Etot (const)   =       -2940.55167970 Ry

     The maximum number of steps has been reached.

     End of molecular dynamics calculation

     diffusion coefficients :
     atom     1   D =       0.00000000 cm^2/s
     atom     2   D =       0.00000000 cm^2/s
     atom     3   D =       0.00000000 cm^2/s
     atom     4   D =       0.00000000 cm^2/s
     atom     5   D =       0.00000000 cm^2/s
     atom     6   D =       0.00000000 cm^2/s
     atom     7   D =       0.00000000 cm^2/s
     atom     8   D =       0.00000000 cm^2/s
     atom     9   D =       0.00000000 cm^2/s
     atom    10   D =       0.00000000 cm^2/s
     atom    11   D =       0.00000000 cm^2/s
     atom    12   D =       0.00000000 cm^2/s
     atom    13   D =       0.00000000 cm^2/s
     atom    14   D =       0.00000000 cm^2/s
     atom    15   D =       0.00000000 cm^2/s
     atom    16   D =       0.00000000 cm^2/s
     atom    17   D =       0.00000000 cm^2/s
     atom    18   D =       0.00000000 cm^2/s
     atom    19   D =       0.00000001 cm^2/s
     atom    20   D =       0.00000001 cm^2/s
     atom    21   D =       0.00000001 cm^2/s
     atom    22   D =       0.00000001 cm^2/s
     atom    23   D =       0.01016134 cm^2/s

     < D > =       0.00072581 cm^2/s

     Writing all to output data dir outdir/pwscf.save/

     init_run     :     22.34s CPU     22.81s WALL (       1 calls)
     electrons    :   2088.32s CPU   2120.51s WALL (      10 calls)
     update_pot   :     21.99s CPU     22.09s WALL (       9 calls)
     forces       :    159.27s CPU    161.40s WALL (      10 calls)

     Called by init_run:
     wfcinit      :     17.53s CPU     17.72s WALL (       1 calls)
     potinit      :      1.09s CPU      1.12s WALL (       1 calls)
     hinit0       :      1.68s CPU      1.71s WALL (       1 calls)

     Called by electrons:
     c_bands      :   1692.75s CPU   1703.51s WALL (      52 calls)
     sum_band     :    281.07s CPU    292.75s WALL (      52 calls)
     v_of_rho     :     12.59s CPU     13.06s WALL (      62 calls)
     newd         :    122.29s CPU    132.89s WALL (      62 calls)
     mix_rho      :      0.97s CPU      1.00s WALL (      52 calls)

     Called by c_bands:
     init_us_2    :      2.73s CPU      2.74s WALL (     230 calls)
     init_us_2:cp :      2.72s CPU      2.74s WALL (     230 calls)
     regterg      :   1678.49s CPU   1689.18s WALL (     104 calls)

     Called by *egterg:
     rdiaghg      :     29.84s CPU     30.20s WALL (     729 calls)
     h_psi        :    690.83s CPU    698.89s WALL (     749 calls)
     s_psi        :    250.19s CPU    250.54s WALL (     749 calls)
     g_psi        :      0.53s CPU      0.53s WALL (     643 calls)

     Called by h_psi:
     h_psi:calbec :    315.84s CPU    316.41s WALL (     749 calls)
     vloc_psi     :    123.53s CPU    130.70s WALL (     749 calls)
     add_vuspsi   :    250.36s CPU    250.68s WALL (     749 calls)

     General routines
     calbec       :    532.00s CPU    532.92s WALL (     933 calls)
     fft          :     13.33s CPU     13.86s WALL (    1089 calls)
     ffts         :      0.28s CPU      0.31s WALL (      52 calls)
     fftw         :    127.78s CPU    135.18s WALL (   53980 calls)

     Parallel routines

     PWSCF        :  38m31.66s CPU  39m 8.61s WALL


   This run was terminated on:   9:39:30  11Jun2023            

=------------------------------------------------------------------------------=
   JOB DONE.
=------------------------------------------------------------------------------=
