
     Program PWSCF v.7.2 starts on 11Jun2023 at  4:19:21 

     This program is part of the open-source Quantum ESPRESSO suite
     for quantum simulation of materials; please cite
         "P. Giannozzi et al., J. Phys.:Condens. Matter 21 395502 (2009);
         "P. Giannozzi et al., J. Phys.:Condens. Matter 29 465901 (2017);
         "P. Giannozzi et al., J. Chem. Phys. 152 154105 (2020);
          URL http://www.quantum-espresso.org", 
     in publications or presentations arising from this work. More details at
     http://www.quantum-espresso.org/quote

     Parallel version (MPI), running on    12 processors

     MPI processes distributed on     1 nodes
     75688 MiB available memory on the printing compute node when the environment starts

     Reading input from md_data/md_Hf5Nb2Ta10Zr5H_10steps_50eV_incident0_polar0.in
Warning: card &CELL ignored
Warning: card / ignored

     Current dimensions of program PWSCF are:
     Max number of different atomic species (ntypx) = 10
     Max number of k-points (npk) =  40000
     Max angular momentum in pseudopotentials (lmaxx) =  4

     File outdir/pwscf.update deleted, as requested

     File outdir/pwscf.md deleted, as requested

     gamma-point specific algorithms are used

     R & G space division:  proc/nbgrp/npool/nimage =      12
     Subspace diagonalization in iterative solution of the eigenvalue problem:
     one sub-group per band group will be used
     custom distributed-memory algorithm (size of sub-group:  2*  2 procs)


     Parallelization info
     --------------------
     sticks:   dense  smooth     PW     G-vecs:    dense   smooth      PW
     Min         723     723    180                64572    64572    8072
     Max         724     724    182                64584    64584    8078
     Sum        8687    8687   2177               774967   774967   96907

     Using Slab Decomposition



     bravais-lattice index     =            0
     lattice parameter (alat)  =      13.8706  a.u.
     unit-cell volume          =    4363.8306 (a.u.)^3
     number of atoms/cell      =           23
     number of atomic types    =            5
     number of electrons       =       277.00
     number of Kohn-Sham states=          167
     kinetic-energy cutoff     =     120.0000  Ry
     charge density cutoff     =     480.0000  Ry
     scf convergence threshold =      1.0E-03
     mixing beta               =       0.7000
     number of iterations used =            8  TF        mixing
     energy convergence thresh.=      0.0E+00
     force convergence thresh. =      0.0E+00
     Exchange-correlation=  SLA  PW   PBX  PBC
                           (   1   4   3   4   0   0   0)
     nstep                     =           10


     celldm(1)=  13.870589  celldm(2)=   0.000000  celldm(3)=   0.000000
     celldm(4)=   0.000000  celldm(5)=   0.000000  celldm(6)=   0.000000

     crystal axes: (cart. coord. in units of alat)
               a(1) = (   1.000000   0.000000   0.000000 )  
               a(2) = (   0.000000   1.182561   0.000000 )  
               a(3) = (   0.000000   0.000000   1.382801 )  

     reciprocal axes: (cart. coord. in units 2 pi/alat)
               b(1) = (  1.000000  0.000000  0.000000 )  
               b(2) = (  0.000000  0.845622  0.000000 )  
               b(3) = (  0.000000  0.000000  0.723170 )  


     PseudoPot. # 1 for Hf read from file:
     q-e/pseudo/hf_pbe_v1.uspp.F.UPF
     MD5 check sum: 8ee9378dfe14276e333edf04c5e4aa26
     Pseudo is Ultrasoft + core correction, Zval = 12.0
     Generated by new atomic code, or converted to UPF format
     Using radial grid of  921 points,  8 beta functions with: 
                l(1) =   0
                l(2) =   0
                l(3) =   0
                l(4) =   1
                l(5) =   1
                l(6) =   2
                l(7) =   2
                l(8) =   3
     Q(r) pseudized with  6 coefficients,  rinner =    1.200   1.200   1.200
                                                       1.200   1.200   1.200
                                                       1.200

     PseudoPot. # 2 for Nb read from file:
     q-e/pseudo/nb_pbe_v1.uspp.F.UPF
     MD5 check sum: 573aab8a2fa660278ed4a62cd769473f
     Pseudo is Ultrasoft + core correction, Zval = 13.0
     Generated by new atomic code, or converted to UPF format
     Using radial grid of  887 points,  6 beta functions with: 
                l(1) =   0
                l(2) =   0
                l(3) =   1
                l(4) =   1
                l(5) =   2
                l(6) =   2
     Q(r) pseudized with  6 coefficients,  rinner =    1.000   1.000   1.000
                                                       1.000   1.000

     PseudoPot. # 3 for Ta read from file:
     q-e/pseudo/ta_pbe_v1.uspp.F.UPF
     MD5 check sum: f8bbe9446314a3b8ea5d9f3e3836c939
     Pseudo is Ultrasoft + core correction, Zval = 13.0
     Generated by new atomic code, or converted to UPF format
     Using radial grid of  921 points,  7 beta functions with: 
                l(1) =   0
                l(2) =   0
                l(3) =   1
                l(4) =   1
                l(5) =   2
                l(6) =   2
                l(7) =   3
     Q(r) pseudized with  6 coefficients,  rinner =    1.300   1.300   1.300
                                                       1.300   1.300   1.300
                                                       1.300

     PseudoPot. # 4 for Zr read from file:
     q-e/pseudo/zr_pbe_v1.uspp.F.UPF
     MD5 check sum: 5db81b1e868ab7776c4564c113de050b
     Pseudo is Ultrasoft + core correction, Zval = 12.0
     Generated by new atomic code, or converted to UPF format
     Using radial grid of  887 points,  6 beta functions with: 
                l(1) =   0
                l(2) =   0
                l(3) =   1
                l(4) =   1
                l(5) =   2
                l(6) =   2
     Q(r) pseudized with  6 coefficients,  rinner =    1.200   1.200   1.200
                                                       1.200   1.200

     PseudoPot. # 5 for H  read from file:
     q-e/pseudo/h_pbe_v1.4.uspp.F.UPF
     MD5 check sum: 761ae9a214b05c3daf00ab9f6b793d6f
     Pseudo is Ultrasoft, Zval =  1.0
     Generated by new atomic code, or converted to UPF format
     Using radial grid of  615 points,  2 beta functions with: 
                l(1) =   0
                l(2) =   0
     Q(r) pseudized with  8 coefficients,  rinner =    0.700

     atomic species   valence    mass     pseudopotential
        Hf            12.00   178.49000     Hf( 1.00)
        Nb            13.00    92.90637     Nb( 1.00)
        Ta            13.00   180.94788     Ta( 1.00)
        Zr            12.00    91.22400     Zr( 1.00)
        H              1.00     2.01400     H ( 1.00)

     Starting magnetic structure 
     atomic species   magnetization
        Hf           0.000
        Nb           0.000
        Ta           0.000
        Zr           0.000
        H            0.000

     No symmetry found



   Cartesian axes

     site n.     atom                  positions (alat units)
         1           Hf  tau(   1) = (   0.3637602   0.3851666   0.8997227  )
         2           Hf  tau(   2) = (   0.1707072   0.1752431   0.6891644  )
         3           Hf  tau(   3) = (   0.1710473   1.0067854   0.6931973  )
         4           Hf  tau(   4) = (   0.5568133   0.1752431   0.6891644  )
         5           Hf  tau(   5) = (   0.5564732   1.0067854   0.6931973  )
         6           Nb  tau(   6) = (   0.3637602   0.3810532   0.4789623  )
         7           Nb  tau(   7) = (   0.3637602   0.8005966   0.9039507  )
         8           Ta  tau(   8) = (   0.1647647   0.5914071   0.6908891  )
         9           Ta  tau(   9) = (   0.5627557   0.5914071   0.6908891  )
        10           Ta  tau(  10) = (   0.1780998   0.1790358   0.2804876  )
        11           Ta  tau(  11) = (   0.1774916   0.1782549   1.1028038  )
        12           Ta  tau(  12) = (   0.1776580   1.0048810   0.2787789  )
        13           Ta  tau(  13) = (   0.1781622   1.0034173   1.1016352  )
        14           Ta  tau(  14) = (   0.5494206   0.1790358   0.2804876  )
        15           Ta  tau(  15) = (   0.5500289   0.1782549   1.1028038  )
        16           Ta  tau(  16) = (   0.5498625   1.0048810   0.2787789  )
        17           Ta  tau(  17) = (   0.5493582   1.0034173   1.1016352  )
        18           Zr  tau(  18) = (   0.3637602   0.7992215   0.4805700  )
        19           Zr  tau(  19) = (   0.1694598   0.5888390   0.2724796  )
        20           Zr  tau(  20) = (   0.1689898   0.5932048   1.1103210  )
        21           Zr  tau(  21) = (   0.5580607   0.5888390   0.2724796  )
        22           Zr  tau(  22) = (   0.5585306   0.5932048   1.1103210  )
        23           H   tau(  23) = (   0.6989955   0.5912807   0.6910327  )

     number of k points=     1  Gaussian smearing, width (Ry)=  0.0220
                       cart. coord. in units 2pi/alat
        k(    1) = (   0.0000000   0.0000000   0.0000000), wk =   1.0000000

     Dense  grid:   387484 G-vectors     FFT dimensions: ( 100, 120, 135)

     Estimated max dynamical RAM per process >     326.54 MB

     Estimated total dynamical RAM >       3.83 GB

     Check: negative core charge=   -0.000002
     Generating pointlists ...
     new r_m :   0.1421 (alat units)  1.9717 (a.u.) for type    1
     new r_m :   0.1397 (alat units)  1.9374 (a.u.) for type    2
     new r_m :   0.0562 (alat units)  0.7795 (a.u.) for type    3
     new r_m :   0.1415 (alat units)  1.9625 (a.u.) for type    4
     new r_m :   0.0562 (alat units)  0.7795 (a.u.) for type    5

     Initial potential from superposition of free atoms

     starting charge     266.9726, renormalised to     277.0000

     negative rho (up, down):  9.202E-01 9.202E-01
     Starting wfcs are  287 randomized atomic wfcs

     total cpu time spent up to now is       23.4 secs

     Self-consistent Calculation

     iteration #  1     ecut=   120.00 Ry     beta= 0.70
     Davidson diagonalization with overlap
     ethr =  1.00E-02,  avg # of iterations =  3.0

     negative rho (up, down):  9.523E-01 9.523E-01

     total cpu time spent up to now is       62.7 secs

     total energy              =   -2932.99768458 Ry
     estimated scf accuracy    <     321.72424075 Ry

     total magnetization       =     0.00 Bohr mag/cell
     absolute magnetization    =     0.08 Bohr mag/cell

     iteration #  2     ecut=   120.00 Ry     beta= 0.70
     Davidson diagonalization with overlap
     ethr =  1.00E-02,  avg # of iterations =  5.0

     negative rho (up, down):  8.880E-01 8.880E-01

     total cpu time spent up to now is      103.3 secs

     total energy              =   -2941.21112155 Ry
     estimated scf accuracy    <      47.14940084 Ry

     total magnetization       =     0.01 Bohr mag/cell
     absolute magnetization    =     0.09 Bohr mag/cell

     iteration #  3     ecut=   120.00 Ry     beta= 0.70
     Davidson diagonalization with overlap
     ethr =  1.00E-02,  avg # of iterations =  4.0

     negative rho (up, down):  9.124E-01 9.122E-01

     total cpu time spent up to now is      139.7 secs

     total energy              =   -2941.68235792 Ry
     estimated scf accuracy    <      18.61760869 Ry

     total magnetization       =    -0.01 Bohr mag/cell
     absolute magnetization    =     0.11 Bohr mag/cell

     iteration #  4     ecut=   120.00 Ry     beta= 0.70
     Davidson diagonalization with overlap
     ethr =  6.72E-03,  avg # of iterations =  2.0

     negative rho (up, down):  9.195E-01 9.193E-01

     total cpu time spent up to now is      176.9 secs

     total energy              =   -2942.04883001 Ry
     estimated scf accuracy    <       3.64995524 Ry

     total magnetization       =    -0.00 Bohr mag/cell
     absolute magnetization    =     0.12 Bohr mag/cell

     iteration #  5     ecut=   120.00 Ry     beta= 0.70
     Davidson diagonalization with overlap
     ethr =  1.32E-03,  avg # of iterations =  7.5

     negative rho (up, down):  9.142E-01 9.140E-01

     total cpu time spent up to now is      218.0 secs

     total energy              =   -2942.26422786 Ry
     estimated scf accuracy    <       2.05746500 Ry

     total magnetization       =    -0.04 Bohr mag/cell
     absolute magnetization    =     0.19 Bohr mag/cell

     iteration #  6     ecut=   120.00 Ry     beta= 0.70
     Davidson diagonalization with overlap
     ethr =  7.43E-04,  avg # of iterations =  3.5

     negative rho (up, down):  9.131E-01 9.130E-01

     total cpu time spent up to now is      251.2 secs

     total energy              =   -2942.25968746 Ry
     estimated scf accuracy    <       0.82026692 Ry

     total magnetization       =    -0.01 Bohr mag/cell
     absolute magnetization    =     0.13 Bohr mag/cell

     iteration #  7     ecut=   120.00 Ry     beta= 0.70
     Davidson diagonalization with overlap
     ethr =  2.96E-04,  avg # of iterations =  6.0

     negative rho (up, down):  9.063E-01 9.063E-01

     total cpu time spent up to now is      285.9 secs

     total energy              =   -2942.29271821 Ry
     estimated scf accuracy    <       0.13018790 Ry

     total magnetization       =    -0.02 Bohr mag/cell
     absolute magnetization    =     0.14 Bohr mag/cell

     iteration #  8     ecut=   120.00 Ry     beta= 0.70
     Davidson diagonalization with overlap
     ethr =  4.70E-05,  avg # of iterations = 10.0

     negative rho (up, down):  9.041E-01 9.041E-01

     total cpu time spent up to now is      328.7 secs

     total energy              =   -2942.29586657 Ry
     estimated scf accuracy    <       0.07449705 Ry

     total magnetization       =    -0.02 Bohr mag/cell
     absolute magnetization    =     0.09 Bohr mag/cell

     iteration #  9     ecut=   120.00 Ry     beta= 0.70
     Davidson diagonalization with overlap
     ethr =  2.69E-05,  avg # of iterations =  2.0

     negative rho (up, down):  9.049E-01 9.049E-01

     total cpu time spent up to now is      364.6 secs

     total energy              =   -2942.30019279 Ry
     estimated scf accuracy    <       0.04673807 Ry

     total magnetization       =    -0.01 Bohr mag/cell
     absolute magnetization    =     0.07 Bohr mag/cell

     iteration # 10     ecut=   120.00 Ry     beta= 0.70
     Davidson diagonalization with overlap
     ethr =  1.69E-05,  avg # of iterations =  2.0

     negative rho (up, down):  9.059E-01 9.059E-01

     total cpu time spent up to now is      398.8 secs

     total energy              =   -2942.30262196 Ry
     estimated scf accuracy    <       0.00530251 Ry

     total magnetization       =    -0.01 Bohr mag/cell
     absolute magnetization    =     0.07 Bohr mag/cell

     iteration # 11     ecut=   120.00 Ry     beta= 0.70
     Davidson diagonalization with overlap
     ethr =  1.91E-06,  avg # of iterations = 13.5

     negative rho (up, down):  9.065E-01 9.065E-01

     total cpu time spent up to now is      445.9 secs

     total energy              =   -2942.30319094 Ry
     estimated scf accuracy    <       0.00194301 Ry

     total magnetization       =    -0.01 Bohr mag/cell
     absolute magnetization    =     0.05 Bohr mag/cell

     iteration # 12     ecut=   120.00 Ry     beta= 0.70
     Davidson diagonalization with overlap
     ethr =  7.01E-07,  avg # of iterations =  2.0

     negative rho (up, down):  9.064E-01 9.064E-01

     Magnetic moment per site  (integrated on atomic sphere of radius R)
     atom   1 (R=0.142)  charge=  9.4636   -0.0002
     atom   2 (R=0.142)  charge=  9.0584   -0.0001
     atom   3 (R=0.142)  charge=  9.0592   -0.0002
     atom   4 (R=0.142)  charge=  9.0571    0.0000
     atom   5 (R=0.142)  charge=  9.0583   -0.0001
     atom   6 (R=0.140)  charge= 10.3564    0.0000
     atom   7 (R=0.140)  charge= 10.3540   -0.0001
     atom   8 (R=0.056)  charge=  1.3451   -0.0000
     atom   9 (R=0.056)  charge=  1.3616   -0.0000
     atom  10 (R=0.056)  charge=  1.3417   -0.0000
     atom  11 (R=0.056)  charge=  1.3410    0.0001
     atom  12 (R=0.056)  charge=  1.3413    0.0000
     atom  13 (R=0.056)  charge=  1.3414    0.0000
     atom  14 (R=0.056)  charge=  1.3427   -0.0000
     atom  15 (R=0.056)  charge=  1.3426    0.0000
     atom  16 (R=0.056)  charge=  1.3412   -0.0000
     atom  17 (R=0.056)  charge=  1.3424   -0.0000
     atom  18 (R=0.141)  charge=  9.4600   -0.0002
     atom  19 (R=0.141)  charge=  9.0010   -0.0021
     atom  20 (R=0.141)  charge=  8.9985    0.0007
     atom  21 (R=0.141)  charge=  8.9987   -0.0017
     atom  22 (R=0.141)  charge=  8.9973    0.0010
     atom  23 (R=0.056)  charge=  0.7591   -0.0000

     total cpu time spent up to now is      482.7 secs

     End of self-consistent calculation

 ------ SPIN UP ------------


          k = 0.0000 0.0000 0.0000 ( 48454 PWs)   bands (ev):

   -57.8511 -57.8486 -57.8048 -57.8028 -57.7939 -57.7667 -57.7627 -57.7230
   -57.7185 -57.4775 -51.3889 -51.3429 -51.2648 -51.2195 -49.6960 -43.2129
   -43.1933 -38.5834 -38.5713 -38.4856 -38.4809 -36.7957 -26.1338 -24.8504
   -24.8479 -24.7653 -24.7601 -24.6783 -24.6680 -24.6065 -24.5468 -24.5354
   -24.3818 -24.3720 -24.3497 -24.3188 -24.3109 -24.2744 -24.2618 -24.2569
   -24.2042 -24.1967 -24.0343 -24.0330 -24.0241 -24.0123 -23.9585 -23.9509
   -23.9346 -23.9337 -23.7125 -23.6302 -21.1795 -20.9715 -20.6508 -20.5722
   -20.3084 -20.1661 -20.1396 -20.0427 -19.9352 -19.8551 -19.8461 -19.6254
   -19.4740 -19.4121 -19.3587 -19.3176 -19.2549 -19.2063 -18.7652 -18.6856
   -18.6389 -17.1437 -16.8266 -16.8149 -16.7688 -16.5815 -16.5728 -16.5652
   -16.5494 -16.5232 -16.4912 -16.2610 -16.2513 -15.1621 -14.9340 -14.8070
     4.0771   4.9307   5.8048   6.1318   6.3044   6.4345   6.5182   6.6065
     6.6148   6.8194   6.9556   7.1530   7.2272   7.4132   7.5436   7.5830
     7.7023   7.7445   7.9420   8.0407   8.0537   8.1951   8.2560   8.3091
     8.3576   8.4329   8.5325   8.5572   8.6381   8.6960   8.7567   8.8176
     8.8715   9.0076   9.0957   9.1827   9.1890   9.2688   9.3176   9.3932
     9.4136   9.4487   9.5674   9.8152   9.8584   9.9534  10.0285  10.1293
    10.1723  10.1961  10.3534  10.4018  10.4224  10.5082  10.5586  10.5712
    10.6646  10.8350  10.8398  10.9172  10.9635  11.0296  11.1322  11.2283
    11.2741  11.2936  11.3061  11.3977  11.5991  11.7250  11.8089  11.8345
    11.9140  12.0105  12.1793  12.1859  12.2013  12.2190  12.2252

 ------ SPIN DOWN ----------


          k = 0.0000 0.0000 0.0000 ( 48454 PWs)   bands (ev):

   -57.8508 -57.8489 -57.8044 -57.8030 -57.7940 -57.7669 -57.7619 -57.7230
   -57.7177 -57.4777 -51.3890 -51.3431 -51.2650 -51.2196 -49.6962 -43.2129
   -43.1934 -38.5850 -38.5704 -38.4849 -38.4825 -36.7959 -26.1341 -24.8502
   -24.8478 -24.7655 -24.7593 -24.6782 -24.6683 -24.6068 -24.5461 -24.5355
   -24.3818 -24.3719 -24.3498 -24.3186 -24.3108 -24.2745 -24.2613 -24.2563
   -24.2041 -24.1957 -24.0339 -24.0334 -24.0233 -24.0126 -23.9576 -23.9511
   -23.9345 -23.9333 -23.7127 -23.6304 -21.1796 -20.9716 -20.6509 -20.5724
   -20.3086 -20.1663 -20.1398 -20.0429 -19.9354 -19.8553 -19.8462 -19.6255
   -19.4742 -19.4123 -19.3588 -19.3177 -19.2550 -19.2063 -18.7654 -18.6858
   -18.6391 -17.1455 -16.8255 -16.8163 -16.7712 -16.5807 -16.5741 -16.5645
   -16.5507 -16.5225 -16.4905 -16.2635 -16.2503 -15.1623 -14.9343 -14.8075
     4.0769   4.9305   5.8047   6.1318   6.3040   6.4345   6.5179   6.6064
     6.6149   6.8192   6.9556   7.1528   7.2270   7.4131   7.5434   7.5830
     7.7020   7.7443   7.9417   8.0406   8.0536   8.1949   8.2563   8.3091
     8.3574   8.4327   8.5322   8.5571   8.6373   8.6960   8.7566   8.8173
     8.8714   9.0075   9.0957   9.1828   9.1888   9.2688   9.3175   9.3929
     9.4137   9.4485   9.5672   9.8153   9.8585   9.9534  10.0285  10.1284
    10.1718  10.1954  10.3523  10.4017  10.4226  10.5084  10.5590  10.5705
    10.6643  10.8348  10.8398  10.9168  10.9633  11.0299  11.1320  11.2285
    11.2738  11.2935  11.3059  11.3977  11.5993  11.7247  11.8086  11.8343
    11.9140  12.0104  12.1795  12.1860  12.2011  12.2193  12.2255

     the Fermi energy is    10.3030 ev

!    total energy              =   -2942.30333592 Ry
     estimated scf accuracy    <       0.00021832 Ry
     smearing contrib. (-TS)   =      -0.09814819 Ry
     internal energy E=F+TS    =   -2942.20518774 Ry

     total magnetization       =    -0.00 Bohr mag/cell
     absolute magnetization    =     0.03 Bohr mag/cell

     convergence has been achieved in  12 iterations

     negative rho (up, down):  9.064E-01 9.064E-01

     Forces acting on atoms (cartesian axes, Ry/au):

     atom    1 type  1   force =     0.00095493   -0.02509687    0.02048986
     atom    2 type  1   force =    -0.12982855   -0.01507474   -0.00318190
     atom    3 type  1   force =    -0.12761562    0.01230063    0.00260156
     atom    4 type  1   force =     0.13221942   -0.01574325   -0.00323021
     atom    5 type  1   force =     0.13002859    0.01284431    0.00313029
     atom    6 type  2   force =    -0.00068405   -0.01977160   -0.00944475
     atom    7 type  2   force =    -0.00074977    0.01819767    0.01245485
     atom    8 type  3   force =    -0.14827679    0.00304205   -0.00376470
     atom    9 type  3   force =    -2.09796458    0.00239549   -0.00539942
     atom   10 type  3   force =    -0.03201325   -0.02421962   -0.05818224
     atom   11 type  3   force =    -0.03601874   -0.03047394    0.05837000
     atom   12 type  3   force =    -0.02884440    0.02946765   -0.05704176
     atom   13 type  3   force =    -0.02689838    0.02347957    0.05831380
     atom   14 type  3   force =     0.03045775   -0.02128064   -0.05705185
     atom   15 type  3   force =     0.03483883   -0.02804171    0.05687192
     atom   16 type  3   force =     0.02745526    0.02693419   -0.05539462
     atom   17 type  3   force =     0.02558854    0.02066295    0.05692959
     atom   18 type  4   force =     0.00028136    0.02716988   -0.02539777
     atom   19 type  4   force =    -0.14577751   -0.00317535   -0.12022428
     atom   20 type  4   force =    -0.14939923    0.00559682    0.12297227
     atom   21 type  4   force =     0.14582880   -0.00416543   -0.12160867
     atom   22 type  4   force =     0.14980624    0.00645343    0.12420711
     atom   23 type  5   force =     2.24661118   -0.00150150    0.00358092
     The non-local contrib.  to forces
     atom    1 type  1   force =     0.00138686   -0.00182535    0.03279048
     atom    2 type  1   force =    -0.24508181   -0.16137629    0.01718618
     atom    3 type  1   force =    -0.24083588    0.15624481   -0.03100844
     atom    4 type  1   force =     0.24772562   -0.15901962    0.01726453
     atom    5 type  1   force =     0.24439410    0.15324682   -0.03106459
     atom    6 type  2   force =    -0.00635218   -0.08238150   -0.06539718
     atom    7 type  2   force =    -0.00683262    0.09489145    0.05920224
     atom    8 type  3   force =    -0.26700940   -0.00131374   -0.00380746
     atom    9 type  3   force =     1.01566732   -0.00188321   -0.00422822
     atom   10 type  3   force =    -0.22622063    0.00788881   -0.22044259
     atom   11 type  3   force =    -0.23202984    0.01015257    0.21365819
     atom   12 type  3   force =    -0.21161896   -0.02397164   -0.19542343
     atom   13 type  3   force =    -0.22073121   -0.00977900    0.21801030
     atom   14 type  3   force =     0.22637282    0.00836291   -0.22169416
     atom   15 type  3   force =     0.23407879    0.01011505    0.21447674
     atom   16 type  3   force =     0.21351829   -0.02408039   -0.19589106
     atom   17 type  3   force =     0.22083350   -0.01024401    0.21907722
     atom   18 type  4   force =    -0.00481804    0.09411040   -0.07406539
     atom   19 type  4   force =     0.08260666    0.00212243    0.04898918
     atom   20 type  4   force =     0.07825520   -0.00063303   -0.04446590
     atom   21 type  4   force =    -0.08221627    0.00183316    0.05163904
     atom   22 type  4   force =    -0.07818027   -0.00008549   -0.04714036
     atom   23 type  5   force =    -0.19466407    0.00026885    0.00015857
     The ionic contribution  to forces
     atom    1 type  1   force =    -0.29214385   -4.86967578   15.07382228
     atom    2 type  1   force =   -27.79521002   -6.33843383    0.78124131
     atom    3 type  1   force =   -27.79139218    6.32369256   -0.71391173
     atom    4 type  1   force =    27.65947235   -6.61479109    0.77983593
     atom    5 type  1   force =    27.65456033    6.60095391   -0.71227775
     atom    6 type  2   force =    -0.30660581   -3.84083407  -15.05911641
     atom    7 type  2   force =    -0.30666060    3.87749208   15.09425924
     atom    8 type  3   force =   -38.49361835    0.07371315   -0.06742486
     atom    9 type  3   force =    31.46015993    0.08021618   -0.07481392
     atom   10 type  3   force =   -24.83666062   -2.17127880  -24.64259975
     atom   11 type  3   force =   -23.90943669   -0.90473999   23.63837120
     atom   12 type  3   force =   -24.03263876    0.85020322  -23.68498018
     atom   13 type  3   force =   -24.81693060    2.25824197   24.62471082
     atom   14 type  3   force =    24.78942440   -2.22959461  -24.71280010
     atom   15 type  3   force =    23.86298590   -0.96244780   23.70805210
     atom   16 type  3   force =    23.98629240    0.90751224  -23.75427106
     atom   17 type  3   force =    24.76964803    2.31656023   24.69492182
     atom   18 type  4   force =    -0.28772781    4.63605768  -14.93633404
     atom   19 type  4   force =   -25.07659647    0.97403460  -27.16233438
     atom   20 type  4   force =   -25.03294361   -0.96807936   27.14157245
     atom   21 type  4   force =    24.95149644    0.97231436  -27.45336452
     atom   22 type  4   force =    24.90930157   -0.96673101   27.43147794
     atom   23 type  5   force =     8.93522402   -0.00438586    0.00596362
     The local contribution  to forces
     atom    1 type  1   force =     0.29111809    4.84181831  -15.08386329
     atom    2 type  1   force =    27.92111662    6.48327300   -0.80679398
     atom    3 type  1   force =    27.91618526   -6.46718298    0.74677289
     atom    4 type  1   force =   -27.78622574    6.75781387   -0.80577106
     atom    5 type  1   force =   -27.78081878   -6.74220854    0.74725541
     atom    6 type  2   force =     0.31128818    3.90405601   15.10107607
     atom    7 type  2   force =     0.31289860   -3.95036856  -15.13217089
     atom    8 type  3   force =    38.63916792   -0.06917654    0.06139690
     atom    9 type  3   force =   -34.63446204   -0.07450756    0.06832994
     atom   10 type  3   force =    25.05735538    2.12888755   24.81701951
     atom   11 type  3   force =    24.13128197    0.84970608  -23.80630029
     atom   12 type  3   force =    24.24426897   -0.78897895   23.83093532
     atom   13 type  3   force =    25.03714068   -2.22027128  -24.79135166
     atom   14 type  3   force =   -25.01354018    2.19160678   24.88978912
     atom   15 type  3   force =   -24.08936549    0.90961176  -23.87799014
     atom   16 type  3   force =   -24.20483804   -0.84758683   23.90174774
     atom   17 type  3   force =   -24.99226242   -2.28148850  -24.86418483
     atom   18 type  4   force =     0.29034089   -4.70078750   14.96873656
     atom   19 type  4   force =    24.86301889   -0.97725604   26.99655246
     atom   20 type  4   force =    24.81827778    0.98035815  -26.97455161
     atom   21 type  4   force =   -24.73941246   -0.97812331   27.28492648
     atom   22 type  4   force =   -24.69447846    0.97969977  -27.26216075
     atom   23 type  5   force =    -6.49328969    0.00261318   -0.00309460
     The core correction contribution to forces
     atom    1 type  1   force =     0.00072486    0.00762283   -0.00204473
     atom    2 type  1   force =    -0.01218577   -0.00007661    0.00116104
     atom    3 type  1   force =    -0.01247918    0.00067208   -0.00193032
     atom    4 type  1   force =     0.01232612   -0.00077417    0.00126445
     atom    5 type  1   force =     0.01259625    0.00129513   -0.00202841
     atom    6 type  2   force =     0.00038415    0.00403815    0.00246578
     atom    7 type  2   force =     0.00040310   -0.00468525   -0.00189613
     atom    8 type  3   force =    -0.03110292    0.00053901   -0.00071615
     atom    9 type  3   force =     0.06588191   -0.00047575   -0.00003732
     atom   10 type  3   force =    -0.02405100    0.00632470   -0.01628656
     atom   11 type  3   force =    -0.02556819    0.00769290    0.01696687
     atom   12 type  3   force =    -0.02351656   -0.00737970   -0.01555650
     atom   13 type  3   force =    -0.02351006   -0.00590567    0.01629595
     atom   14 type  3   force =     0.02487412    0.00648735   -0.01608507
     atom   15 type  3   force =     0.02634839    0.00789924    0.01676006
     atom   16 type  3   force =     0.02430680   -0.00765071   -0.01530627
     atom   17 type  3   force =     0.02428916   -0.00614221    0.01602361
     atom   18 type  4   force =     0.00031497   -0.00534076    0.00352491
     atom   19 type  4   force =    -0.01056755    0.00052392   -0.00811962
     atom   20 type  4   force =    -0.01042773   -0.00035447    0.00800377
     atom   21 type  4   force =     0.01066121    0.00052838   -0.00819406
     atom   22 type  4   force =     0.01054283   -0.00038303    0.00808392
     atom   23 type  5   force =     0.00000000    0.00000000    0.00000000
     The Hubbard contrib.    to forces
     atom    1 type  1   force =     0.00000000    0.00000000    0.00000000
     atom    2 type  1   force =     0.00000000    0.00000000    0.00000000
     atom    3 type  1   force =     0.00000000    0.00000000    0.00000000
     atom    4 type  1   force =     0.00000000    0.00000000    0.00000000
     atom    5 type  1   force =     0.00000000    0.00000000    0.00000000
     atom    6 type  2   force =     0.00000000    0.00000000    0.00000000
     atom    7 type  2   force =     0.00000000    0.00000000    0.00000000
     atom    8 type  3   force =     0.00000000    0.00000000    0.00000000
     atom    9 type  3   force =     0.00000000    0.00000000    0.00000000
     atom   10 type  3   force =     0.00000000    0.00000000    0.00000000
     atom   11 type  3   force =     0.00000000    0.00000000    0.00000000
     atom   12 type  3   force =     0.00000000    0.00000000    0.00000000
     atom   13 type  3   force =     0.00000000    0.00000000    0.00000000
     atom   14 type  3   force =     0.00000000    0.00000000    0.00000000
     atom   15 type  3   force =     0.00000000    0.00000000    0.00000000
     atom   16 type  3   force =     0.00000000    0.00000000    0.00000000
     atom   17 type  3   force =     0.00000000    0.00000000    0.00000000
     atom   18 type  4   force =     0.00000000    0.00000000    0.00000000
     atom   19 type  4   force =     0.00000000    0.00000000    0.00000000
     atom   20 type  4   force =     0.00000000    0.00000000    0.00000000
     atom   21 type  4   force =     0.00000000    0.00000000    0.00000000
     atom   22 type  4   force =     0.00000000    0.00000000    0.00000000
     atom   23 type  5   force =     0.00000000    0.00000000    0.00000000
     The SCF correction term to forces
     atom    1 type  1   force =    -0.00000000   -0.00000000   -0.00000000
     atom    2 type  1   force =     0.00000000    0.00000000    0.00000000
     atom    3 type  1   force =     0.00000000   -0.00000000    0.00000000
     atom    4 type  1   force =    -0.00000000    0.00000000    0.00000000
     atom    5 type  1   force =    -0.00000000   -0.00000000    0.00000000
     atom    6 type  2   force =     0.00000000   -0.00000000    0.00000000
     atom    7 type  2   force =    -0.00000000    0.00000000   -0.00000000
     atom    8 type  3   force =     0.00000000   -0.00000000    0.00000000
     atom    9 type  3   force =    -0.00000000   -0.00000000    0.00000000
     atom   10 type  3   force =    -0.00247710    0.00393393    0.00381704
     atom   11 type  3   force =    -0.00030670    0.00669032   -0.00463607
     atom   12 type  3   force =    -0.00537980   -0.00042948    0.00767293
     atom   13 type  3   force =    -0.00290791    0.00116936   -0.00966171
     atom   14 type  3   force =     0.00328587    0.00183274    0.00342826
     atom   15 type  3   force =     0.00075053    0.00675585   -0.00473693
     atom   16 type  3   force =     0.00813509   -0.00128430    0.00801594
     atom   17 type  3   force =     0.00303955    0.00195325   -0.00921833
     atom   18 type  4   force =     0.00213064    0.00310588    0.01243009
     atom   19 type  4   force =    -0.00427975   -0.00262444    0.00437798
     atom   20 type  4   force =    -0.00260159   -0.00571864   -0.00789655
     atom   21 type  4   force =     0.00525917   -0.00074220    0.00307428
     atom   22 type  4   force =     0.00257986   -0.00607100   -0.00636375
     atom   23 type  5   force =    -0.00069980   -0.00002186    0.00024323

     Total force =     2.287975     Total SCF correction =     0.032488

     Molecular Dynamics Calculation

     Starting temperature  =   300.00 K

     temperature is set once at start

     mass Hf               =   178.49
     mass Nb               =    92.91
     mass Ta               =   180.95
     mass Zr               =    91.22
     mass H                =     2.01
     Time step             =     4.20 a.u.,  0.2032 femto-seconds

     Entering Dynamics:    iteration =     1
                           time      =   0.0002 pico-seconds


ATOMIC_POSITIONS (angstrom)
Hf            2.6699999570        2.8271230292        6.6039642186    0   0   0
Hf            1.2529906802        1.2862841814        5.0584662261    0   0   0
Hf            1.2554868986        7.3898042948        5.0880677674    0   0   0
Hf            4.0870092338        1.2862841814        5.0584662261    0   0   0
Hf            4.0845130154        7.3898042948        5.0880677674    0   0   0
Nb            2.6699999570        2.7969306055        3.5155832167    0   0   0
Nb            2.6699999570        5.8763786763        6.6349979432    0   0   0
Ta            1.2093730560        4.3409278516        5.0711258323    0   0   0
Ta            4.1306268580        4.3409278516        5.0711258323    0   0   0
Ta            1.3072517781        1.3141219040        2.0587774635
Ta            1.3027872949        1.3083902736        8.0945808543
Ta            1.3040088058        7.3758269580        2.0462355655
Ta            1.3077100372        7.3650836129        8.0860038711
Ta            4.0327480919        1.3141219872        2.0587774955
Ta            4.0372125857        1.3083903424        8.0945808119
Ta            4.0359910689        7.3758268863        2.0462356121
Ta            4.0322898398        7.3650835332        8.0860038319
Zr            2.6699999728        5.8662873686        3.5273825047
Zr            1.2438264358        4.3220777863        1.9999932513
Zr            1.2403770262        4.3541235987        8.1497624523
Zr            4.0961734810        4.3220777307        1.9999931735
Zr            4.0996229106        4.3541236468        8.1497625216
H             5.0660178180        4.3399961325        5.0721888997


     kinetic energy (Ekin) =           0.91882441 Ry
     temperature           =        6908.13814744 K 
     Ekin + Etot (const)   =       -2941.38451151 Ry

     File outdir/pwscf.msd.dat deleted, as requested

     Writing config-only to output data dir outdir/pwscf.save/
     NEW-OLD atomic charge density approx. for the potential

     Check: negative core charge=   -0.000002

     negative rho (up, down):  9.061E-01 9.061E-01
     Generating pointlists ...
     new r_m :   0.0526 (alat units)  0.7291 (a.u.) for type    3
     new r_m :   0.0526 (alat units)  0.7291 (a.u.) for type    5

     total cpu time spent up to now is      504.0 secs

     Self-consistent Calculation

     iteration #  1     ecut=   120.00 Ry     beta= 0.70
     Davidson diagonalization with overlap
     ethr =  1.00E-06,  avg # of iterations =  8.0

     negative rho (up, down):  9.064E-01 9.064E-01

     total cpu time spent up to now is      565.4 secs

     total energy              =   -2941.98248812 Ry
     estimated scf accuracy    <       0.02485587 Ry

     total magnetization       =    -0.00 Bohr mag/cell
     absolute magnetization    =     0.02 Bohr mag/cell

     iteration #  2     ecut=   120.00 Ry     beta= 0.70
     Davidson diagonalization with overlap
     ethr =  8.97E-06,  avg # of iterations =  2.0

     negative rho (up, down):  9.064E-01 9.064E-01

     total cpu time spent up to now is      600.6 secs

     total energy              =   -2941.98454521 Ry
     estimated scf accuracy    <       0.00787569 Ry

     total magnetization       =    -0.00 Bohr mag/cell
     absolute magnetization    =     0.02 Bohr mag/cell

     iteration #  3     ecut=   120.00 Ry     beta= 0.70
     Davidson diagonalization with overlap
     ethr =  2.84E-06,  avg # of iterations =  1.0

     negative rho (up, down):  9.064E-01 9.064E-01

     Magnetic moment per site  (integrated on atomic sphere of radius R)
     atom   1 (R=0.142)  charge=  9.4651   -0.0001
     atom   2 (R=0.142)  charge=  9.0585   -0.0000
     atom   3 (R=0.142)  charge=  9.0599   -0.0001
     atom   4 (R=0.142)  charge=  9.0581    0.0000
     atom   5 (R=0.142)  charge=  9.0596   -0.0001
     atom   6 (R=0.140)  charge= 10.3544    0.0000
     atom   7 (R=0.140)  charge= 10.3547   -0.0000
     atom   8 (R=0.053)  charge=  0.9651   -0.0000
     atom   9 (R=0.053)  charge=  0.9738   -0.0000
     atom  10 (R=0.053)  charge=  0.9571   -0.0000
     atom  11 (R=0.053)  charge=  0.9573    0.0000
     atom  12 (R=0.053)  charge=  0.9577    0.0000
     atom  13 (R=0.053)  charge=  0.9567    0.0000
     atom  14 (R=0.053)  charge=  0.9564   -0.0000
     atom  15 (R=0.053)  charge=  0.9558    0.0000
     atom  16 (R=0.053)  charge=  0.9571   -0.0000
     atom  17 (R=0.053)  charge=  0.9559   -0.0000
     atom  18 (R=0.141)  charge=  9.4572   -0.0001
     atom  19 (R=0.141)  charge=  8.9990   -0.0014
     atom  20 (R=0.141)  charge=  8.9990    0.0006
     atom  21 (R=0.141)  charge=  8.9980   -0.0013
     atom  22 (R=0.141)  charge=  8.9981    0.0006
     atom  23 (R=0.053)  charge=  0.7302   -0.0000

     total cpu time spent up to now is      632.2 secs

     End of self-consistent calculation

 ------ SPIN UP ------------


          k = 0.0000 0.0000 0.0000 ( 48454 PWs)   bands (ev):

   -57.8664 -57.8547 -57.8423 -57.8339 -57.8086 -57.7962 -57.7667 -57.7607
   -57.7226 -57.7166 -51.3886 -51.3426 -51.2644 -51.2190 -49.7053 -43.2227
   -43.2065 -38.5905 -38.5754 -38.4898 -38.4880 -36.8003 -26.8356 -24.8570
   -24.8437 -24.7647 -24.7583 -24.7206 -24.6687 -24.6459 -24.5516 -24.5289
   -24.3986 -24.3897 -24.3729 -24.3372 -24.3125 -24.3035 -24.2662 -24.2574
   -24.2034 -24.2008 -24.0374 -24.0291 -24.0256 -24.0064 -23.9631 -23.9442
   -23.9384 -23.9261 -23.7968 -23.7114 -21.1824 -20.9741 -20.6545 -20.5749
   -20.3095 -20.1688 -20.1412 -20.0457 -19.9377 -19.8560 -19.8493 -19.6271
   -19.4874 -19.4246 -19.3664 -19.3255 -19.2606 -19.2139 -18.7733 -18.6940
   -18.6494 -17.1483 -16.8303 -16.8202 -16.7741 -16.5868 -16.5803 -16.5701
   -16.5564 -16.5274 -16.4957 -16.2663 -16.2557 -15.1680 -14.9390 -14.8111
     4.1309   4.9542   5.8049   6.1267   6.2968   6.4210   6.5061   6.5969
     6.6066   6.8084   6.9527   7.1490   7.2209   7.4120   7.5552   7.5797
     7.6932   7.7693   7.9397   8.0430   8.0445   8.1928   8.2582   8.3183
     8.3491   8.4264   8.5139   8.5491   8.6408   8.6936   8.7522   8.8077
     8.8703   9.0051   9.0932   9.1785   9.1865   9.2668   9.3122   9.3877
     9.4107   9.4359   9.5937   9.8110   9.8530   9.9564  10.0271  10.1401
    10.1700  10.1964  10.3477  10.3993  10.4229  10.5044  10.5596  10.5857
    10.6816  10.8355  10.8444  10.9151  10.9330  11.0321  11.1279  11.2275
    11.2682  11.2741  11.2838  11.3900  11.5985  11.6989  11.8074  11.8283
    11.8995  12.0077  12.1710  12.1808  12.1991  12.2144  12.2237

 ------ SPIN DOWN ----------


          k = 0.0000 0.0000 0.0000 ( 48454 PWs)   bands (ev):

   -57.8665 -57.8546 -57.8426 -57.8340 -57.8084 -57.7964 -57.7663 -57.7609
   -57.7222 -57.7167 -51.3887 -51.3426 -51.2645 -51.2190 -49.7054 -43.2227
   -43.2066 -38.5918 -38.5748 -38.4897 -38.4888 -36.8004 -26.8357 -24.8567
   -24.8440 -24.7643 -24.7585 -24.7207 -24.6686 -24.6461 -24.5511 -24.5291
   -24.3986 -24.3896 -24.3730 -24.3371 -24.3124 -24.3037 -24.2657 -24.2575
   -24.2030 -24.2008 -24.0371 -24.0287 -24.0260 -24.0067 -23.9626 -23.9444
   -23.9379 -23.9264 -23.7969 -23.7115 -21.1824 -20.9741 -20.6546 -20.5749
   -20.3096 -20.1688 -20.1413 -20.0458 -19.9377 -19.8560 -19.8494 -19.6271
   -19.4875 -19.4246 -19.3665 -19.3255 -19.2607 -19.2139 -18.7733 -18.6941
   -18.6495 -17.1495 -16.8295 -16.8213 -16.7760 -16.5863 -16.5813 -16.5697
   -16.5574 -16.5269 -16.4952 -16.2682 -16.2549 -15.1681 -14.9391 -14.8113
     4.1308   4.9541   5.8049   6.1267   6.2967   6.4210   6.5060   6.5968
     6.6067   6.8083   6.9527   7.1490   7.2207   7.4119   7.5550   7.5797
     7.6930   7.7692   7.9395   8.0429   8.0444   8.1926   8.2583   8.3183
     8.3490   8.4263   8.5138   8.5490   8.6402   8.6936   8.7522   8.8076
     8.8702   9.0050   9.0931   9.1785   9.1864   9.2667   9.3122   9.3875
     9.4107   9.4358   9.5936   9.8110   9.8530   9.9562  10.0271  10.1395
    10.1698  10.1958  10.3469  10.3994  10.4230  10.5045  10.5597  10.5854
    10.6812  10.8355  10.8443  10.9149  10.9329  11.0321  11.1278  11.2276
    11.2680  11.2739  11.2838  11.3900  11.5985  11.6987  11.8072  11.8281
    11.8995  12.0074  12.1710  12.1808  12.1990  12.2145  12.2237

     the Fermi energy is    10.3039 ev

!    total energy              =   -2941.98459369 Ry
     estimated scf accuracy    <       0.00064340 Ry
     smearing contrib. (-TS)   =      -0.09781329 Ry
     internal energy E=F+TS    =   -2941.88678041 Ry

     total magnetization       =    -0.00 Bohr mag/cell
     absolute magnetization    =     0.02 Bohr mag/cell

     convergence has been achieved in   3 iterations

     negative rho (up, down):  9.064E-01 9.064E-01

     Forces acting on atoms (cartesian axes, Ry/au):

     atom    1 type  1   force =     0.00067847   -0.02857979    0.02390837
     atom    2 type  1   force =    -0.12855067   -0.01469228    0.00421352
     atom    3 type  1   force =    -0.12658913    0.01325234    0.00982170
     atom    4 type  1   force =     0.13140161   -0.01833214    0.00387333
     atom    5 type  1   force =     0.12945446    0.01684293    0.00945430
     atom    6 type  2   force =     0.00145419   -0.02066340   -0.01124376
     atom    7 type  2   force =     0.00139575    0.01919742    0.01164873
     atom    8 type  3   force =    -0.13900439    0.00252351   -0.00136093
     atom    9 type  3   force =    -2.87993743    0.00212888   -0.00453902
     atom   10 type  3   force =    -0.03379954   -0.02250273   -0.05902847
     atom   11 type  3   force =    -0.03586570   -0.02964101    0.05331681
     atom   12 type  3   force =    -0.03098621    0.02925987   -0.05632761
     atom   13 type  3   force =    -0.02752090    0.02461124    0.05180336
     atom   14 type  3   force =     0.03330761   -0.01965167   -0.05816786
     atom   15 type  3   force =     0.03557061   -0.02696478    0.05253276
     atom   16 type  3   force =     0.03080099    0.02693511   -0.05515836
     atom   17 type  3   force =     0.02710028    0.02172545    0.05117247
     atom   18 type  4   force =     0.00101136    0.02840518   -0.02407802
     atom   19 type  4   force =    -0.14614099   -0.00484126   -0.11960980
     atom   20 type  4   force =    -0.15103186    0.00382443    0.11741924
     atom   21 type  4   force =     0.14750567   -0.00549485   -0.12266991
     atom   22 type  4   force =     0.15243002    0.00468534    0.12018375
     atom   23 type  5   force =     3.00731579   -0.00202778    0.00283542
     The non-local contrib.  to forces
     atom    1 type  1   force =    -0.00049225   -0.00214164    0.03408726
     atom    2 type  1   force =    -0.24643515   -0.16150083    0.02154110
     atom    3 type  1   force =    -0.24281071    0.15716877   -0.02691266
     atom    4 type  1   force =     0.24745733   -0.15971717    0.02162555
     atom    5 type  1   force =     0.24457271    0.15469383   -0.02741920
     atom    6 type  2   force =    -0.00663842   -0.08203664   -0.06426649
     atom    7 type  2   force =    -0.00710837    0.09441872    0.05830054
     atom    8 type  3   force =    -0.25499230   -0.00194760    0.00028538
     atom    9 type  3   force =     1.31481603   -0.00341003   -0.00061237
     atom   10 type  3   force =    -0.22946026    0.01021789   -0.22032291
     atom   11 type  3   force =    -0.23402789    0.01228408    0.21066530
     atom   12 type  3   force =    -0.21659707   -0.02588541   -0.19357037
     atom   13 type  3   force =    -0.22241326   -0.01004942    0.21348168
     atom   14 type  3   force =     0.22921863    0.00934401   -0.22198969
     atom   15 type  3   force =     0.23565963    0.01129390    0.21215149
     atom   16 type  3   force =     0.21872638   -0.02464602   -0.19470500
     atom   17 type  3   force =     0.22202614   -0.00927271    0.21531455
     atom   18 type  4   force =    -0.00478283    0.09317405   -0.06896709
     atom   19 type  4   force =     0.08154518    0.00135405    0.04796690
     atom   20 type  4   force =     0.07773146   -0.00218483   -0.04547141
     atom   21 type  4   force =    -0.08172700    0.00148244    0.04988539
     atom   22 type  4   force =    -0.07824062   -0.00185732   -0.04734388
     atom   23 type  5   force =    -0.17523114    0.00035802    0.00004449
     The ionic contribution  to forces
     atom    1 type  1   force =    -0.30690978   -4.88066209   15.08524679
     atom    2 type  1   force =   -27.80361284   -6.33740009    0.78124822
     atom    3 type  1   force =   -27.79982021    6.32266706   -0.71391260
     atom    4 type  1   force =    27.66549978   -6.62484884    0.77978680
     atom    5 type  1   force =    27.66058124    6.61107250   -0.71221540
     atom    6 type  2   force =    -0.32193313   -3.85242577  -15.07113861
     atom    7 type  2   force =    -0.32199414    3.88904222   15.10632561
     atom    8 type  3   force =   -38.53451567    0.07371775   -0.06743015
     atom    9 type  3   force =    30.41337831    0.08175528   -0.07660352
     atom   10 type  3   force =   -24.83999983   -2.17103757  -24.64225998
     atom   11 type  3   force =   -23.91274789   -0.90449374   23.63802436
     atom   12 type  3   force =   -24.03595639    0.84997303  -23.68464865
     atom   13 type  3   force =   -24.82027039    2.25800743   24.62437096
     atom   14 type  3   force =    24.79151735   -2.23137417  -24.71485731
     atom   15 type  3   force =    23.86507297   -0.96419841   23.71008156
     atom   16 type  3   force =    23.98838730    0.90926373  -23.75630105
     atom   17 type  3   force =    24.77173969    2.31834725   24.69697983
     atom   18 type  4   force =    -0.30218983    4.64686524  -14.94758154
     atom   19 type  4   force =   -25.08418593    0.97403210  -27.16093535
     atom   20 type  4   force =   -25.04049320   -0.96808340   27.14015759
     atom   21 type  4   force =    24.95700822    0.97224529  -27.46341256
     atom   22 type  4   force =    24.91481377   -0.96668241   27.44144515
     atom   23 type  5   force =    10.09663061   -0.00578239    0.00762984
     The local contribution  to forces
     atom    1 type  1   force =     0.29987714    4.83875312  -15.07725504
     atom    2 type  1   force =    27.93356007    6.48254694   -0.77719810
     atom    3 type  1   force =    27.92803754   -6.46297487    0.77559077
     atom    4 type  1   force =   -27.79541326    6.75780383   -0.77711780
     atom    5 type  1   force =   -27.78943236   -6.73835550    0.77318294
     atom    6 type  2   force =     0.32084961    3.90734231   15.13456567
     atom    7 type  2   force =     0.32112219   -3.94978912  -15.13040607
     atom    8 type  3   force =    38.68452857   -0.07268024    0.08921359
     atom    9 type  3   force =   -34.73973436   -0.07862411    0.09570132
     atom   10 type  3   force =    25.05221938    2.14066636   24.82243011
     atom   11 type  3   force =    24.13257819    0.85230416  -23.82347557
     atom   12 type  3   force =    24.23619451   -0.79009040   23.84312231
     atom   13 type  3   force =    25.03505472   -2.21039280  -24.81780223
     atom   14 type  3   force =   -25.00451264    2.20187756   24.89489483
     atom   15 type  3   force =   -24.08922348    0.91398207  -23.89494930
     atom   16 type  3   force =   -24.19229240   -0.84968879   23.91459299
     atom   17 type  3   force =   -24.98838145   -2.27275449  -24.88977127
     atom   18 type  4   force =     0.29924480   -4.70667882   15.00329393
     atom   19 type  4   force =    24.86230891   -0.98550310   27.00076389
     atom   20 type  4   force =    24.81655722    0.96995848  -26.99314281
     atom   21 type  4   force =   -24.73572465   -0.98462096   27.28872408
     atom   22 type  4   force =   -24.69139674    0.96928010  -27.28073910
     atom   23 type  5   force =    -6.91723317    0.00315896   -0.00178553
     The core correction contribution to forces
     atom    1 type  1   force =     0.00053178    0.00756619   -0.00193019
     atom    2 type  1   force =    -0.01246527   -0.00009313    0.00112337
     atom    3 type  1   force =    -0.01276746    0.00074757   -0.00190191
     atom    4 type  1   force =     0.01240194   -0.00082261    0.00118953
     atom    5 type  1   force =     0.01268970    0.00139262   -0.00198623
     atom    6 type  2   force =     0.00040790    0.00403486    0.00248529
     atom    7 type  2   force =     0.00042663   -0.00471101   -0.00191852
     atom    8 type  3   force =    -0.03063707    0.00050106   -0.00060620
     atom    9 type  3   force =     0.09653664   -0.00059800   -0.00000171
     atom   10 type  3   force =    -0.02420313    0.00634261   -0.01633524
     atom   11 type  3   force =    -0.02549609    0.00787243    0.01676576
     atom   12 type  3   force =    -0.02364258   -0.00748858   -0.01553067
     atom   13 type  3   force =    -0.02348194   -0.00603956    0.01610001
     atom   14 type  3   force =     0.02498790    0.00633872   -0.01621178
     atom   15 type  3   force =     0.02624544    0.00784615    0.01667042
     atom   16 type  3   force =     0.02441937   -0.00748376   -0.01538647
     atom   17 type  3   force =     0.02426174   -0.00605614    0.01597462
     atom   18 type  4   force =     0.00026115   -0.00524685    0.00342796
     atom   19 type  4   force =    -0.01055584    0.00050542   -0.00801164
     atom   20 type  4   force =    -0.01049969   -0.00034018    0.00793781
     atom   21 type  4   force =     0.01067045    0.00050143   -0.00810636
     atom   22 type  4   force =     0.01061748   -0.00035748    0.00802355
     atom   23 type  5   force =     0.00000000    0.00000000    0.00000000
     The Hubbard contrib.    to forces
     atom    1 type  1   force =     0.00000000    0.00000000    0.00000000
     atom    2 type  1   force =     0.00000000    0.00000000    0.00000000
     atom    3 type  1   force =     0.00000000    0.00000000    0.00000000
     atom    4 type  1   force =     0.00000000    0.00000000    0.00000000
     atom    5 type  1   force =     0.00000000    0.00000000    0.00000000
     atom    6 type  2   force =     0.00000000    0.00000000    0.00000000
     atom    7 type  2   force =     0.00000000    0.00000000    0.00000000
     atom    8 type  3   force =     0.00000000    0.00000000    0.00000000
     atom    9 type  3   force =     0.00000000    0.00000000    0.00000000
     atom   10 type  3   force =     0.00000000    0.00000000    0.00000000
     atom   11 type  3   force =     0.00000000    0.00000000    0.00000000
     atom   12 type  3   force =     0.00000000    0.00000000    0.00000000
     atom   13 type  3   force =     0.00000000    0.00000000    0.00000000
     atom   14 type  3   force =     0.00000000    0.00000000    0.00000000
     atom   15 type  3   force =     0.00000000    0.00000000    0.00000000
     atom   16 type  3   force =     0.00000000    0.00000000    0.00000000
     atom   17 type  3   force =     0.00000000    0.00000000    0.00000000
     atom   18 type  4   force =     0.00000000    0.00000000    0.00000000
     atom   19 type  4   force =     0.00000000    0.00000000    0.00000000
     atom   20 type  4   force =     0.00000000    0.00000000    0.00000000
     atom   21 type  4   force =     0.00000000    0.00000000    0.00000000
     atom   22 type  4   force =     0.00000000    0.00000000    0.00000000
     atom   23 type  5   force =     0.00000000    0.00000000    0.00000000
     The SCF correction term to forces
     atom    1 type  1   force =     0.00000000    0.00000000   -0.00000000
     atom    2 type  1   force =    -0.00000000    0.00000000   -0.00000000
     atom    3 type  1   force =     0.00000000   -0.00000000   -0.00000000
     atom    4 type  1   force =     0.00000000    0.00000000   -0.00000000
     atom    5 type  1   force =     0.00000000   -0.00000000   -0.00000000
     atom    6 type  2   force =     0.00000000    0.00000000   -0.00000000
     atom    7 type  2   force =     0.00000000   -0.00000000   -0.00000000
     atom    8 type  3   force =    -0.00000000    0.00000000   -0.00000000
     atom    9 type  3   force =     0.00000000    0.00000000   -0.00000000
     atom   10 type  3   force =     0.00702770   -0.00873476   -0.00114483
     atom   11 type  3   force =     0.00321138    0.00234934    0.01273258
     atom   12 type  3   force =     0.00839872    0.00270849   -0.00430460
     atom   13 type  3   force =     0.00297338   -0.00695714    0.01704856
     atom   14 type  3   force =    -0.00852023   -0.00588053    0.00139171
     atom   15 type  3   force =    -0.00280055    0.00406878    0.00997422
     atom   16 type  3   force =    -0.00905625   -0.00055278   -0.00196321
     atom   17 type  3   force =    -0.00316244   -0.00858120    0.01407036
     atom   18 type  4   force =     0.00786148    0.00024882   -0.01285564
     atom   19 type  4   force =     0.00413009    0.00472754    0.00200201
     atom   20 type  4   force =     0.00505574    0.00443162    0.00933367
     atom   21 type  4   force =    -0.00333795    0.00485421    0.01163515
     atom   22 type  4   force =    -0.00398046    0.00425971    0.00019365
     atom   23 type  5   force =     0.00253289    0.00019490   -0.00165776

     Total force =     3.038015     Total SCF correction =     0.044342

     Entering Dynamics:    iteration =     2
                           time      =   0.0004 pico-seconds


ATOMIC_POSITIONS (angstrom)
Hf            2.6699999570        2.8271230292        6.6039642186    0   0   0
Hf            1.2529906802        1.2862841814        5.0584662261    0   0   0
Hf            1.2554868986        7.3898042948        5.0880677674    0   0   0
Hf            4.0870092338        1.2862841814        5.0584662261    0   0   0
Hf            4.0845130154        7.3898042948        5.0880677674    0   0   0
Nb            2.6699999570        2.7969306055        3.5155832167    0   0   0
Nb            2.6699999570        5.8763786763        6.6349979432    0   0   0
Ta            1.2093730560        4.3409278516        5.0711258323    0   0   0
Ta            4.1306268580        4.3409278516        5.0711258323    0   0   0
Ta            1.3072489591        1.3141199449        2.0587724760
Ta            1.3027842455        1.3083877335        8.0945855239
Ta            1.3040062357        7.3758294481        2.0462307631
Ta            1.3077077183        7.3650856703        8.0860084534
Ta            4.0327508390        1.3141202726        2.0587725887
Ta            4.0372155850        1.3083880226        8.0945853947
Ta            4.0359935892        7.3758291731        2.0462309225
Ta            4.0322920978        7.3650853476        8.0860083394
Zr            2.6700001021        5.8662920828        3.5273783758
Zr            1.2438018456        4.3220770645        1.9999730740
Zr            1.2403516836        4.3541243422        8.1497825379
Zr            4.0961982274        4.3220768799        1.9999725750
Zr            4.0996484331        4.3541245350        8.1497829869
H             5.0167016544        4.3399820030        5.0722124233


     kinetic energy (Ekin) =           0.60290824 Ry
     temperature           =        4532.93723630 K 
     Ekin + Etot (const)   =       -2941.38168546 Ry

     Writing config-only to output data dir outdir/pwscf.save/
     NEW-OLD atomic charge density approx. for the potential

     Check: negative core charge=   -0.000002

     negative rho (up, down):  9.061E-01 9.061E-01
     Generating pointlists ...
     new r_m :   0.0498 (alat units)  0.6907 (a.u.) for type    3
     new r_m :   0.0498 (alat units)  0.6907 (a.u.) for type    5

     total cpu time spent up to now is      654.2 secs

     Self-consistent Calculation

     iteration #  1     ecut=   120.00 Ry     beta= 0.70
     Davidson diagonalization with overlap
     c_bands:  2 eigenvalues not converged
     c_bands:  2 eigenvalues not converged
     ethr =  1.00E-06,  avg # of iterations = 20.0

     negative rho (up, down):  9.065E-01 9.065E-01

     total cpu time spent up to now is      728.0 secs

     total energy              =   -2941.65229323 Ry
     estimated scf accuracy    <       0.19320992 Ry

     total magnetization       =    -0.00 Bohr mag/cell
     absolute magnetization    =     0.02 Bohr mag/cell

     iteration #  2     ecut=   120.00 Ry     beta= 0.70
     Davidson diagonalization with overlap
     ethr =  6.98E-05,  avg # of iterations =  2.0

     negative rho (up, down):  9.065E-01 9.065E-01

     total cpu time spent up to now is      761.2 secs

     total energy              =   -2941.66431068 Ry
     estimated scf accuracy    <       0.08816788 Ry

     total magnetization       =    -0.00 Bohr mag/cell
     absolute magnetization    =     0.01 Bohr mag/cell

     iteration #  3     ecut=   120.00 Ry     beta= 0.70
     Davidson diagonalization with overlap
     ethr =  3.18E-05,  avg # of iterations =  2.0

     negative rho (up, down):  9.065E-01 9.065E-01

     total cpu time spent up to now is      795.7 secs

     total energy              =   -2941.66929905 Ry
     estimated scf accuracy    <       0.00240637 Ry

     total magnetization       =    -0.00 Bohr mag/cell
     absolute magnetization    =     0.01 Bohr mag/cell

     iteration #  4     ecut=   120.00 Ry     beta= 0.70
     Davidson diagonalization with overlap
     c_bands:  1 eigenvalues not converged
     c_bands:  1 eigenvalues not converged
     ethr =  8.69E-07,  avg # of iterations = 20.0

     negative rho (up, down):  9.065E-01 9.065E-01

     total cpu time spent up to now is      837.8 secs

     total energy              =   -2941.66940259 Ry
     estimated scf accuracy    <       0.00129888 Ry

     total magnetization       =    -0.00 Bohr mag/cell
     absolute magnetization    =     0.01 Bohr mag/cell

     iteration #  5     ecut=   120.00 Ry     beta= 0.70
     Davidson diagonalization with overlap
     ethr =  4.69E-07,  avg # of iterations =  1.0

     negative rho (up, down):  9.065E-01 9.065E-01

     Magnetic moment per site  (integrated on atomic sphere of radius R)
     atom   1 (R=0.142)  charge=  9.4630   -0.0000
     atom   2 (R=0.142)  charge=  9.0577   -0.0000
     atom   3 (R=0.142)  charge=  9.0592   -0.0000
     atom   4 (R=0.142)  charge=  9.0563   -0.0000
     atom   5 (R=0.142)  charge=  9.0578   -0.0000
     atom   6 (R=0.140)  charge= 10.3532   -0.0000
     atom   7 (R=0.140)  charge= 10.3536   -0.0000
     atom   8 (R=0.050)  charge=  0.7055   -0.0000
     atom   9 (R=0.050)  charge=  0.7186   -0.0000
     atom  10 (R=0.050)  charge=  0.7063   -0.0000
     atom  11 (R=0.050)  charge=  0.7049    0.0000
     atom  12 (R=0.050)  charge=  0.7051    0.0000
     atom  13 (R=0.050)  charge=  0.7058    0.0000
     atom  14 (R=0.050)  charge=  0.7064   -0.0000
     atom  15 (R=0.050)  charge=  0.7066    0.0000
     atom  16 (R=0.050)  charge=  0.7061   -0.0000
     atom  17 (R=0.050)  charge=  0.7060   -0.0000
     atom  18 (R=0.141)  charge=  9.4562   -0.0000
     atom  19 (R=0.141)  charge=  8.9992   -0.0008
     atom  20 (R=0.141)  charge=  8.9950    0.0004
     atom  21 (R=0.141)  charge=  8.9977   -0.0008
     atom  22 (R=0.141)  charge=  8.9932    0.0004
     atom  23 (R=0.050)  charge=  0.7095    0.0000

     total cpu time spent up to now is      868.8 secs

     End of self-consistent calculation

 ------ SPIN UP ------------


          k = 0.0000 0.0000 0.0000 ( 48454 PWs)   bands (ev):

   -58.2059 -57.9003 -57.8494 -57.8433 -57.8034 -57.7969 -57.7676 -57.7605
   -57.7235 -57.7160 -51.3971 -51.3511 -51.2729 -51.2274 -49.7220 -43.2315
   -43.2242 -38.5885 -38.5687 -38.4852 -38.4825 -36.8064 -27.4121 -24.8594
   -24.8471 -24.7699 -24.7635 -24.7548 -24.6647 -24.6514 -24.5479 -24.5328
   -24.4215 -24.3975 -24.3731 -24.3493 -24.3147 -24.3037 -24.2661 -24.2601
   -24.2094 -24.1972 -24.0316 -24.0267 -24.0238 -24.0144 -23.9593 -23.9516
   -23.9333 -23.9305 -23.8977 -23.8175 -21.1910 -20.9828 -20.6623 -20.5811
   -20.3170 -20.1778 -20.1495 -20.0548 -19.9462 -19.8622 -19.8573 -19.6332
   -19.5009 -19.4380 -19.3765 -19.3365 -19.2690 -19.2249 -18.7854 -18.7081
   -18.6633 -17.1475 -16.8230 -16.8198 -16.7719 -16.5827 -16.5799 -16.5640
   -16.5540 -16.5235 -16.4917 -16.2631 -16.2471 -15.1747 -14.9451 -14.8149
     4.1690   4.9802   5.8042   6.1238   6.2901   6.4090   6.4956   6.5848
     6.6027   6.8005   6.9504   7.1469   7.2146   7.4093   7.5598   7.5784
     7.6839   7.7919   7.9371   8.0346   8.0453   8.1892   8.2562   8.3255
     8.3404   8.4181   8.4982   8.5448   8.6356   8.6953   8.7484   8.7988
     8.8673   9.0020   9.0916   9.1737   9.1863   9.2663   9.3081   9.3841
     9.4063   9.4249   9.6090   9.8084   9.8525   9.9591  10.0247  10.1483
    10.1663  10.1964  10.3431  10.3968  10.4255  10.4966  10.5572  10.5937
    10.7006  10.8317  10.8597  10.8948  10.9196  11.0330  11.1253  11.2275
    11.2398  11.2685  11.2733  11.3825  11.6013  11.6686  11.8053  11.8288
    11.8872  12.0028  12.1650  12.1755  12.1964  12.2115  12.2224

 ------ SPIN DOWN ----------


          k = 0.0000 0.0000 0.0000 ( 48454 PWs)   bands (ev):

   -58.2060 -57.9003 -57.8496 -57.8432 -57.8035 -57.7968 -57.7677 -57.7603
   -57.7236 -57.7158 -51.3971 -51.3511 -51.2729 -51.2274 -49.7221 -43.2315
   -43.2242 -38.5892 -38.5683 -38.4859 -38.4822 -36.8064 -27.4121 -24.8594
   -24.8471 -24.7699 -24.7636 -24.7546 -24.6648 -24.6514 -24.5478 -24.5328
   -24.4215 -24.3976 -24.3731 -24.3492 -24.3148 -24.3036 -24.2662 -24.2600
   -24.2095 -24.1970 -24.0318 -24.0266 -24.0236 -24.0145 -23.9593 -23.9517
   -23.9334 -23.9304 -23.8977 -23.8175 -21.1910 -20.9828 -20.6623 -20.5812
   -20.3170 -20.1778 -20.1495 -20.0548 -19.9462 -19.8622 -19.8573 -19.6332
   -19.5009 -19.4381 -19.3766 -19.3365 -19.2690 -19.2249 -18.7854 -18.7081
   -18.6633 -17.1482 -16.8225 -16.8202 -16.7730 -16.5827 -16.5803 -16.5638
   -16.5546 -16.5232 -16.4914 -16.2642 -16.2466 -15.1747 -14.9451 -14.8150
     4.1690   4.9801   5.8042   6.1238   6.2901   6.4090   6.4955   6.5848
     6.6028   6.8004   6.9504   7.1469   7.2146   7.4093   7.5597   7.5784
     7.6838   7.7919   7.9370   8.0346   8.0452   8.1891   8.2562   8.3255
     8.3403   8.4180   8.4982   8.5447   8.6353   8.6953   8.7484   8.7988
     8.8672   9.0020   9.0915   9.1737   9.1863   9.2663   9.3081   9.3840
     9.4063   9.4249   9.6090   9.8084   9.8525   9.9590  10.0247  10.1480
    10.1662  10.1960  10.3428  10.3968  10.4256  10.4966  10.5572  10.5935
    10.7004  10.8317  10.8596  10.8947  10.9194  11.0330  11.1253  11.2275
    11.2397  11.2683  11.2733  11.3825  11.6013  11.6685  11.8052  11.8287
    11.8872  12.0027  12.1649  12.1754  12.1963  12.2114  12.2224

     the Fermi energy is    10.3037 ev

!    total energy              =   -2941.66923629 Ry
     estimated scf accuracy    <       0.00023716 Ry
     smearing contrib. (-TS)   =      -0.09774410 Ry
     internal energy E=F+TS    =   -2941.57149219 Ry

     total magnetization       =    -0.00 Bohr mag/cell
     absolute magnetization    =     0.01 Bohr mag/cell

     convergence has been achieved in   5 iterations

     negative rho (up, down):  9.065E-01 9.065E-01

     Forces acting on atoms (cartesian axes, Ry/au):

     atom    1 type  1   force =     0.00497794   -0.02406269    0.01743868
     atom    2 type  1   force =    -0.12997355   -0.01354531   -0.00687735
     atom    3 type  1   force =    -0.12823060    0.01089704   -0.00122779
     atom    4 type  1   force =     0.13209785   -0.01282666   -0.00662171
     atom    5 type  1   force =     0.13021066    0.01011652   -0.00136840
     atom    6 type  2   force =     0.00368079   -0.02025000   -0.00961240
     atom    7 type  2   force =     0.00345700    0.01833014    0.01378031
     atom    8 type  3   force =    -0.13516207    0.00291283   -0.00380975
     atom    9 type  3   force =    -3.67295547    0.00329095   -0.00682452
     atom   10 type  3   force =    -0.03335468   -0.02471100   -0.05624328
     atom   11 type  3   force =    -0.03569104   -0.02867458    0.05884207
     atom   12 type  3   force =    -0.02999506    0.03019676   -0.05432925
     atom   13 type  3   force =    -0.02837313    0.02245967    0.05897526
     atom   14 type  3   force =     0.03058933   -0.02131388   -0.05522585
     atom   15 type  3   force =     0.03404831   -0.02581740    0.05798529
     atom   16 type  3   force =     0.02829714    0.02698303   -0.05323848
     atom   17 type  3   force =     0.02608004    0.01915183    0.05787308
     atom   18 type  4   force =     0.00456370    0.02769380   -0.02548996
     atom   19 type  4   force =    -0.14805414   -0.00397492   -0.11770879
     atom   20 type  4   force =    -0.15093256    0.00486198    0.12240918
     atom   21 type  4   force =     0.14816099   -0.00440448   -0.11717953
     atom   22 type  4   force =     0.15120412    0.00557723    0.12199485
     atom   23 type  5   force =     3.79535442   -0.00289087    0.00645831
     The non-local contrib.  to forces
     atom    1 type  1   force =     0.00182123    0.00145847    0.02862307
     atom    2 type  1   force =    -0.24711093   -0.16201162    0.01504518
     atom    3 type  1   force =    -0.24362507    0.15719777   -0.03262968
     atom    4 type  1   force =     0.24668909   -0.15715762    0.01560108
     atom    5 type  1   force =     0.24390915    0.15190441   -0.03302960
     atom    6 type  2   force =    -0.00762527   -0.08316363   -0.06361823
     atom    7 type  2   force =    -0.00790696    0.09491679    0.05695362
     atom    8 type  3   force =    -0.24875611   -0.00169427   -0.00373213
     atom    9 type  3   force =     1.53824922   -0.00405173   -0.00286028
     atom   10 type  3   force =    -0.22878902    0.00845063   -0.22036329
     atom   11 type  3   force =    -0.23589323    0.01347232    0.21304691
     atom   12 type  3   force =    -0.21551859   -0.02547281   -0.19401309
     atom   13 type  3   force =    -0.22423427   -0.01140816    0.21792072
     atom   14 type  3   force =     0.22796812    0.00766274   -0.22170432
     atom   15 type  3   force =     0.23772418    0.01203213    0.21429576
     atom   16 type  3   force =     0.21769797   -0.02414147   -0.19524797
     atom   17 type  3   force =     0.22367581   -0.01045915    0.21903892
     atom   18 type  4   force =    -0.00446257    0.09278230   -0.07053455
     atom   19 type  4   force =     0.08155058    0.00240600    0.04738929
     atom   20 type  4   force =     0.07863754   -0.00164032   -0.04300080
     atom   21 type  4   force =    -0.08157412    0.00263956    0.05123952
     atom   22 type  4   force =    -0.07908927   -0.00132105   -0.04669570
     atom   23 type  5   force =    -0.13580137    0.00035938    0.00030762
     The ionic contribution  to forces
     atom    1 type  1   force =    -0.31802097   -4.88928324   15.09459880
     atom    2 type  1   force =   -27.80996501   -6.33679938    0.78125130
     atom    3 type  1   force =   -27.80619530    6.32206675   -0.71390385
     atom    4 type  1   force =    27.67046668   -6.63226376    0.77974784
     atom    5 type  1   force =    27.66555295    6.61852091   -0.71216199
     atom    6 type  2   force =    -0.33344190   -3.86148349  -15.08095594
     atom    7 type  2   force =    -0.33351035    3.89807649   15.11616438
     atom    8 type  3   force =   -38.56522525    0.07374191   -0.06746120
     atom    9 type  3   force =    29.45638775    0.08338627   -0.07854396
     atom   10 type  3   force =   -24.84238818   -2.17079950  -24.64183536
     atom   11 type  3   force =   -23.91511667   -0.90425047   23.63759815
     atom   12 type  3   force =   -24.03836746    0.84976496  -23.68425538
     atom   13 type  3   force =   -24.82266291    2.25778275   24.62395072
     atom   14 type  3   force =    24.79307072   -2.23257118  -24.71612602
     atom   15 type  3   force =    23.86662099   -0.96537378   23.71133465
     atom   16 type  3   force =    23.98998006    0.91046165  -23.75757499
     atom   17 type  3   force =    24.77329540    2.31955934   24.69825370
     atom   18 type  4   force =    -0.31305112    4.65525322  -14.95672554
     atom   19 type  4   force =   -25.08952404    0.97401418  -27.15956021
     atom   20 type  4   force =   -25.04579667   -0.96807681   27.13877753
     atom   21 type  4   force =    24.96116853    0.97218057  -27.47027098
     atom   22 type  4   force =    24.91896198   -0.96663783   27.44825953
     atom   23 type  5   force =    11.13776075   -0.00726958    0.00943883
     The local contribution  to forces
     atom    1 type  1   force =     0.32226168    4.86058113  -15.11622702
     atom    2 type  1   force =    27.93928530    6.48682979   -0.82147378
     atom    3 type  1   force =    27.93305761   -6.47042512    0.72924175
     atom    4 type  1   force =   -27.79572647    6.78032057   -0.82003757
     atom    5 type  1   force =   -27.78931614   -6.76429321    0.72810717
     atom    6 type  2   force =     0.34609672    3.91994125   15.11817844
     atom    7 type  2   force =     0.34629181   -3.97535502  -15.17212014
     atom    8 type  3   force =    38.70656019   -0.06981761    0.05162229
     atom    9 type  3   force =   -34.78857243   -0.07572242    0.05798343
     atom   10 type  3   force =    25.06230603    2.12652083   24.82418283
     atom   11 type  3   force =    24.14371533    0.85837181  -23.80451965
     atom   12 type  3   force =    24.24791713   -0.78373077   23.83972378
     atom   13 type  3   force =    25.04351186   -2.22261920  -24.79290296
     atom   14 type  3   force =   -25.01543990    2.19351655   24.90098045
     atom   15 type  3   force =   -24.09851894    0.92434188  -23.88069553
     atom   16 type  3   force =   -24.20387283   -0.85013984   23.91538696
     atom   17 type  3   force =   -24.99579022   -2.28890734  -24.86965795
     atom   18 type  4   force =     0.32350802   -4.71338651   14.98322122
     atom   19 type  4   force =    24.86845678   -0.97930936   27.00378114
     atom   20 type  4   force =    24.82886091    0.97545065  -26.97854157
     atom   21 type  4   force =   -24.73888621   -0.97810956   27.31342494
     atom   22 type  4   force =   -24.70028670    0.97431837  -27.28683297
     atom   23 type  5   force =    -7.20669843    0.00410161   -0.00605240
     The core correction contribution to forces
     atom    1 type  1   force =     0.00061919    0.00754323   -0.00171805
     atom    2 type  1   force =    -0.01256560   -0.00022483    0.00105060
     atom    3 type  1   force =    -0.01283092    0.00082359   -0.00181070
     atom    4 type  1   force =     0.01229835   -0.00076170    0.00112396
     atom    5 type  1   force =     0.01251584    0.00132197   -0.00184111
     atom    6 type  2   force =     0.00050272    0.00417777    0.00252212
     atom    7 type  2   force =     0.00050791   -0.00479385   -0.00194190
     atom    8 type  3   force =    -0.03026454    0.00047055   -0.00067589
     atom    9 type  3   force =     0.12515499   -0.00066932    0.00027576
     atom   10 type  3   force =    -0.02418340    0.00625483   -0.01631816
     atom   11 type  3   force =    -0.02566061    0.00794039    0.01682754
     atom   12 type  3   force =    -0.02346560   -0.00748490   -0.01546429
     atom   13 type  3   force =    -0.02365671   -0.00602094    0.01624676
     atom   14 type  3   force =     0.02493941    0.00610877   -0.01627308
     atom   15 type  3   force =     0.02644864    0.00768937    0.01685085
     atom   16 type  3   force =     0.02427941   -0.00727816   -0.01542988
     atom   17 type  3   force =     0.02444513   -0.00587698    0.01618480
     atom   18 type  4   force =     0.00034266   -0.00527305    0.00337425
     atom   19 type  4   force =    -0.01057209    0.00048603   -0.00799301
     atom   20 type  4   force =    -0.01048007   -0.00033476    0.00788709
     atom   21 type  4   force =     0.01067145    0.00047733   -0.00806614
     atom   22 type  4   force =     0.01059783   -0.00035598    0.00796283
     atom   23 type  5   force =     0.00000000    0.00000000    0.00000000
     The Hubbard contrib.    to forces
     atom    1 type  1   force =     0.00000000    0.00000000    0.00000000
     atom    2 type  1   force =     0.00000000    0.00000000    0.00000000
     atom    3 type  1   force =     0.00000000    0.00000000    0.00000000
     atom    4 type  1   force =     0.00000000    0.00000000    0.00000000
     atom    5 type  1   force =     0.00000000    0.00000000    0.00000000
     atom    6 type  2   force =     0.00000000    0.00000000    0.00000000
     atom    7 type  2   force =     0.00000000    0.00000000    0.00000000
     atom    8 type  3   force =     0.00000000    0.00000000    0.00000000
     atom    9 type  3   force =     0.00000000    0.00000000    0.00000000
     atom   10 type  3   force =     0.00000000    0.00000000    0.00000000
     atom   11 type  3   force =     0.00000000    0.00000000    0.00000000
     atom   12 type  3   force =     0.00000000    0.00000000    0.00000000
     atom   13 type  3   force =     0.00000000    0.00000000    0.00000000
     atom   14 type  3   force =     0.00000000    0.00000000    0.00000000
     atom   15 type  3   force =     0.00000000    0.00000000    0.00000000
     atom   16 type  3   force =     0.00000000    0.00000000    0.00000000
     atom   17 type  3   force =     0.00000000    0.00000000    0.00000000
     atom   18 type  4   force =     0.00000000    0.00000000    0.00000000
     atom   19 type  4   force =     0.00000000    0.00000000    0.00000000
     atom   20 type  4   force =     0.00000000    0.00000000    0.00000000
     atom   21 type  4   force =     0.00000000    0.00000000    0.00000000
     atom   22 type  4   force =     0.00000000    0.00000000    0.00000000
     atom   23 type  5   force =     0.00000000    0.00000000    0.00000000
     The SCF correction term to forces
     atom    1 type  1   force =    -0.00000000   -0.00000000    0.00000000
     atom    2 type  1   force =     0.00000000   -0.00000000    0.00000000
     atom    3 type  1   force =     0.00000000    0.00000000    0.00000000
     atom    4 type  1   force =    -0.00000000   -0.00000000    0.00000000
     atom    5 type  1   force =    -0.00000000    0.00000000    0.00000000
     atom    6 type  2   force =    -0.00000000    0.00000000    0.00000000
     atom    7 type  2   force =    -0.00000000    0.00000000    0.00000000
     atom    8 type  3   force =     0.00000000    0.00000000    0.00000000
     atom    9 type  3   force =    -0.00000000    0.00000000    0.00000000
     atom   10 type  3   force =    -0.00018623    0.00491376   -0.00318176
     atom   11 type  3   force =    -0.00262197   -0.00415709   -0.00538334
     atom   12 type  3   force =    -0.00044665   -0.00282818   -0.00159273
     atom   13 type  3   force =    -0.00121721    0.00477678   -0.00751245
     atom   14 type  3   force =     0.00016487    0.00402079   -0.00337534
     atom   15 type  3   force =     0.00188732   -0.00445545   -0.00507291
     atom   16 type  3   force =     0.00032643   -0.00186760   -0.00164506
     atom   17 type  3   force =     0.00056781    0.00488752   -0.00721885
     atom   18 type  4   force =    -0.00165939   -0.00163062    0.01390221
     atom   19 type  4   force =     0.00214853   -0.00152021   -0.00259845
     atom   20 type  4   force =    -0.00204039   -0.00048524   -0.00398553
     atom   21 type  4   force =    -0.00310478   -0.00154083   -0.00477934
     atom   22 type  4   force =     0.00113417   -0.00037474   -0.00197130
     atom   23 type  5   force =     0.00020737   -0.00003074    0.00149180

     Total force =     3.819901     Total SCF correction =     0.024766

     Entering Dynamics:    iteration =     3
                           time      =   0.0006 pico-seconds


ATOMIC_POSITIONS (angstrom)
Hf            2.6699999570        2.8271230292        6.6039642186    0   0   0
Hf            1.2529906802        1.2862841814        5.0584662261    0   0   0
Hf            1.2554868986        7.3898042948        5.0880677674    0   0   0
Hf            4.0870092338        1.2862841814        5.0584662261    0   0   0
Hf            4.0845130154        7.3898042948        5.0880677674    0   0   0
Nb            2.6699999570        2.7969306055        3.5155832167    0   0   0
Nb            2.6699999570        5.8763786763        6.6349979432    0   0   0
Ta            1.2093730560        4.3409278516        5.0711258323    0   0   0
Ta            4.1306268580        4.3409278516        5.0711258323    0   0   0
Ta            1.3072442522        1.3141165872        2.0587643050
Ta            1.3027791761        1.3083835704        8.0945935239
Ta            1.3040019679        7.3758336473        2.0462228856
Ta            1.3077037934        7.3650889990        8.0860163738
Ta            4.0327553175        1.3141173517        2.0587645560
Ta            4.0372205113        1.3083842416        8.0945932595
Ta            4.0359977111        7.3758329871        2.0462232196
Ta            4.0322958319        7.3650882460        8.0860161225
Zr            2.6700007438        5.8662999061        3.5273713851
Zr            1.2437606334        4.3220758964        1.9999396817
Zr            1.2403093958        4.3541256316        8.1498163662
Zr            4.0962396077        4.3220755347        1.9999388209
Zr            4.0996909312        4.3541260495        8.1498171484
H             4.9866857206        4.3399531728        5.0722687889


     kinetic energy (Ekin) =           0.29241709 Ry
     temperature           =        2198.52410931 K 
     Ekin + Etot (const)   =       -2941.37681921 Ry

     Writing config-only to output data dir outdir/pwscf.save/
     NEW-OLD atomic charge density approx. for the potential

     Check: negative core charge=   -0.000002

     negative rho (up, down):  9.063E-01 9.063E-01
     Generating pointlists ...
     new r_m :   0.0481 (alat units)  0.6673 (a.u.) for type    3
     new r_m :   0.0481 (alat units)  0.6673 (a.u.) for type    5

     total cpu time spent up to now is      891.2 secs

     Self-consistent Calculation

     iteration #  1     ecut=   120.00 Ry     beta= 0.70
[...]
   -43.1917 -38.5826 -38.5665 -38.4811 -38.4797 -36.7866 -25.2667 -24.8430
   -24.8376 -24.7569 -24.7562 -24.6640 -24.6562 -24.5463 -24.5269 -24.4982
   -24.3730 -24.3638 -24.3123 -24.3059 -24.3027 -24.2576 -24.2466 -24.2320
   -24.1966 -24.1932 -24.0297 -24.0250 -24.0203 -24.0032 -23.9548 -23.9418
   -23.9341 -23.9251 -23.6622 -23.5831 -21.1760 -20.9683 -20.6480 -20.5712
   -20.3052 -20.1630 -20.1380 -20.0402 -19.9315 -19.8542 -19.8435 -19.6245
   -19.4642 -19.4057 -19.3548 -19.3133 -19.2497 -19.2015 -18.7564 -18.6761
   -18.6285 -17.1400 -16.8232 -16.8115 -16.7678 -16.5780 -16.5735 -16.5612
   -16.5477 -16.5193 -16.4865 -16.2630 -16.2501 -15.1510 -14.9272 -14.8013
     4.0469   4.9557   5.8061   6.1355   6.3092   6.4524   6.5338   6.6115
     6.6289   6.8336   6.9598   7.1556   7.2298   7.4127   7.5269   7.5864
     7.7070   7.7249   7.9452   8.0392   8.0634   8.1988   8.2593   8.3017
     8.3671   8.4439   8.5499   8.5696   8.6434   8.6966   8.7598   8.8216
     8.8750   9.0130   9.0982   9.1884   9.1909   9.2690   9.3229   9.3967
     9.4209   9.4661   9.5331   9.8192   9.8610   9.9501  10.0313  10.1223
    10.1769  10.1982  10.3605  10.4052  10.4213  10.5161  10.5407  10.5698
    10.6527  10.8298  10.8440  10.9220  11.0019  11.0333  11.1368  11.2305
    11.2784  11.3214  11.3455  11.4051  11.6004  11.7686  11.8137  11.8397
    11.9369  12.0196  12.1846  12.1935  12.2062  12.2261  12.2326

     the Fermi energy is    10.3036 ev

!    total energy              =   -2942.65785564 Ry
     estimated scf accuracy    <       0.00015298 Ry
     smearing contrib. (-TS)   =      -0.09868115 Ry
     internal energy E=F+TS    =   -2942.55917449 Ry

     total magnetization       =    -0.00 Bohr mag/cell
     absolute magnetization    =     0.00 Bohr mag/cell

     convergence has been achieved in   5 iterations

     negative rho (up, down):  9.065E-01 9.065E-01

     Forces acting on atoms (cartesian axes, Ry/au):

     atom    1 type  1   force =    -0.00175240   -0.02686555    0.02282565
     atom    2 type  1   force =    -0.12901175   -0.01605115    0.00185780
     atom    3 type  1   force =    -0.12654731    0.01308078    0.00675801
     atom    4 type  1   force =     0.13132981   -0.01695798    0.00143658
     atom    5 type  1   force =     0.12898706    0.01414497    0.00714196
     atom    6 type  2   force =    -0.00328600   -0.01855843   -0.00888269
     atom    7 type  2   force =    -0.00355557    0.01721472    0.01062745
     atom    8 type  3   force =    -0.15360556    0.00322608   -0.00236162
     atom    9 type  3   force =    -1.27288806    0.00319944   -0.00576125
     atom   10 type  3   force =    -0.03227702   -0.02274645   -0.06011902
     atom   11 type  3   force =    -0.03542522   -0.03006831    0.05664617
     atom   12 type  3   force =    -0.02912740    0.02917592   -0.05870059
     atom   13 type  3   force =    -0.02750932    0.02399464    0.05572014
     atom   14 type  3   force =     0.03122311   -0.02078938   -0.05879174
     atom   15 type  3   force =     0.03436599   -0.02770036    0.05454719
     atom   16 type  3   force =     0.02802534    0.02671561   -0.05632555
     atom   17 type  3   force =     0.02655891    0.02183989    0.05431569
     atom   18 type  4   force =    -0.00196031    0.02706511   -0.02322072
     atom   19 type  4   force =    -0.14329874   -0.00349411   -0.12010279
     atom   20 type  4   force =    -0.14899549    0.00448749    0.11971804
     atom   21 type  4   force =     0.14351755   -0.00422142   -0.12237950
     atom   22 type  4   force =     0.14936098    0.00538715    0.12189434
     atom   23 type  5   force =     1.43587137   -0.00207868    0.00315648
     The non-local contrib.  to forces
     atom    1 type  1   force =     0.00036315   -0.00669902    0.03698918
     atom    2 type  1   force =    -0.24509270   -0.16098963    0.01966997
     atom    3 type  1   force =    -0.24096304    0.15596954   -0.02982871
     atom    4 type  1   force =     0.25000768   -0.15979992    0.01930512
     atom    5 type  1   force =     0.24658929    0.15427532   -0.02987974
     atom    6 type  2   force =    -0.00542541   -0.08100924   -0.06485278
     atom    7 type  2   force =    -0.00623747    0.09374384    0.05842478
     atom    8 type  3   force =    -0.28667334   -0.00134370   -0.00231607
     atom    9 type  3   force =     0.59801569   -0.00108022   -0.00356637
     atom   10 type  3   force =    -0.22664937    0.00973460   -0.22086735
     atom   11 type  3   force =    -0.22925822    0.01028945    0.21347884
     atom   12 type  3   force =    -0.21178646   -0.02450668   -0.19564511
     atom   13 type  3   force =    -0.21972703   -0.01030669    0.21667040
     atom   14 type  3   force =     0.22749647    0.00983882   -0.22210404
     atom   15 type  3   force =     0.23136590    0.01076766    0.21412686
     atom   16 type  3   force =     0.21363567   -0.02507535   -0.19555756
     atom   17 type  3   force =     0.22026700   -0.01073398    0.21803548
     atom   18 type  4   force =    -0.00460346    0.09470596   -0.07257650
     atom   19 type  4   force =     0.08211055    0.00163272    0.05047279
     atom   20 type  4   force =     0.07724359   -0.00108720   -0.04681029
     atom   21 type  4   force =    -0.08091169    0.00144972    0.05185290
     atom   22 type  4   force =    -0.07634014   -0.00052191   -0.04817063
     atom   23 type  5   force =    -0.19297598    0.00022839   -0.00007993
     The ionic contribution  to forces
     atom    1 type  1   force =    -0.26837761   -4.84393818   15.06169482
     atom    2 type  1   force =   -27.77882800   -6.33863109    0.78125340
     atom    3 type  1   force =   -27.77511872    6.32353318   -0.71361170
     atom    4 type  1   force =    27.64812434   -6.59615766    0.77985028
     atom    5 type  1   force =    27.64356587    6.58164324   -0.71206749
     atom    6 type  2   force =    -0.28159581   -3.81243868  -15.04572759
     atom    7 type  2   force =    -0.28180286    3.84966164   15.08016760
     atom    8 type  3   force =   -38.41880342    0.07453645   -0.06843701
     atom    9 type  3   force =    32.76295816    0.08236171   -0.07933341
     atom   10 type  3   force =   -24.82519088   -2.16733917  -24.63423443
     atom   11 type  3   force =   -23.89797433   -0.90085963   23.63009152
     atom   12 type  3   force =   -24.02263671    0.84705975  -23.67747006
     atom   13 type  3   force =   -24.80550621    2.25471081   24.61637581
     atom   14 type  3   force =    24.78035528   -2.22230414  -24.70028786
     atom   15 type  3   force =    23.85383597   -0.95531454   23.69570623
     atom   16 type  3   force =    23.97870845    0.90115262  -23.74273102
     atom   17 type  3   force =    24.76059982    2.30974248   24.68245204
     atom   18 type  4   force =    -0.26382121    4.60739042  -14.92205568
     atom   19 type  4   force =   -25.04710205    0.97349368  -27.14403307
     atom   20 type  4   force =   -25.00318019   -0.96781432   27.12357607
     atom   21 type  4   force =    24.92690480    0.97184787  -27.41506196
     atom   22 type  4   force =    24.88405207   -0.96654663   27.39406581
     atom   23 type  5   force =     7.43083325   -0.00578982    0.00981770
     The local contribution  to forces
     atom    1 type  1   force =     0.26486356    4.81181448  -15.06204837
     atom    2 type  1   force =    27.90803923    6.48272014   -0.78780327
     atom    3 type  1   force =    27.90344294   -6.46697263    0.76500839
     atom    4 type  1   force =   -27.78033061    6.73769232   -0.78650998
     atom    5 type  1   force =   -27.77539206   -6.72182863    0.76405647
     atom    6 type  2   force =     0.28281922    3.87162713   15.10622769
     atom    7 type  2   force =     0.28356870   -3.91596318  -15.11153441
     atom    8 type  3   force =    38.58073695   -0.06954100    0.08022894
     atom    9 type  3   force =   -34.66714794   -0.07688486    0.08854669
     atom   10 type  3   force =    25.04659335    2.13205673   24.80784614
     atom   11 type  3   force =    24.11666650    0.84927530  -23.80457277
     atom   12 type  3   force =    24.23167091   -0.78988501   23.82680259
     atom   13 type  3   force =    25.02133679   -2.21143890  -24.79500976
     atom   14 type  3   force =   -25.00413032    2.18840223   24.87623329
     atom   15 type  3   force =   -24.07612282    0.90510724  -23.87265113
     atom   16 type  3   force =   -24.19097094   -0.84535777   23.89403582
     atom   17 type  3   force =   -24.97831088   -2.26786320  -24.86366943
     atom   18 type  4   force =     0.26548297   -4.67033676   14.97476647
     atom   19 type  4   force =    24.83683734   -0.97895893   26.97880390
     atom   20 type  4   force =    24.78629460    0.97428814  -26.96484741
     atom   21 type  4   force =   -24.71762150   -0.97783754   27.24467349
     atom   22 type  4   force =   -24.66754087    0.97352334  -27.23047014
     atom   23 type  5   force =    -5.80144028    0.00348866   -0.00442121
     The core correction contribution to forces
     atom    1 type  1   force =     0.00076595    0.00736292   -0.00198498
     atom    2 type  1   force =    -0.01209399   -0.00011387    0.00123441
     atom    3 type  1   force =    -0.01246218    0.00077721   -0.00214304
     atom    4 type  1   force =     0.01243127   -0.00076407    0.00132268
     atom    5 type  1   force =     0.01279110    0.00138624   -0.00226358
     atom    6 type  2   force =     0.00029246    0.00381424    0.00235591
     atom    7 type  2   force =     0.00032544   -0.00449622   -0.00173982
     atom    8 type  3   force =    -0.03204629    0.00050624   -0.00062407
     atom    9 type  3   force =     0.03558021   -0.00034640   -0.00021312
     atom   10 type  3   force =    -0.02419169    0.00638299   -0.01642589
     atom   11 type  3   force =    -0.02546650    0.00749168    0.01706673
     atom   12 type  3   force =    -0.02373681   -0.00724191   -0.01573254
     atom   13 type  3   force =    -0.02352825   -0.00591847    0.01642625
     atom   14 type  3   force =     0.02500012    0.00674934   -0.01603566
     atom   15 type  3   force =     0.02616083    0.00802525    0.01665054
     atom   16 type  3   force =     0.02442755   -0.00780431   -0.01527451
     atom   17 type  3   force =     0.02424681   -0.00639193    0.01597097
     atom   18 type  4   force =     0.00028322   -0.00522161    0.00351062
     atom   19 type  4   force =    -0.01050569    0.00053499   -0.00818944
     atom   20 type  4   force =    -0.01039876   -0.00036930    0.00809948
     atom   21 type  4   force =     0.01058782    0.00055052   -0.00824089
     atom   22 type  4   force =     0.01049593   -0.00039761    0.00814636
     atom   23 type  5   force =     0.00000000    0.00000000    0.00000000
     The Hubbard contrib.    to forces
     atom    1 type  1   force =     0.00000000    0.00000000    0.00000000
     atom    2 type  1   force =     0.00000000    0.00000000    0.00000000
     atom    3 type  1   force =     0.00000000    0.00000000    0.00000000
     atom    4 type  1   force =     0.00000000    0.00000000    0.00000000
     atom    5 type  1   force =     0.00000000    0.00000000    0.00000000
     atom    6 type  2   force =     0.00000000    0.00000000    0.00000000
     atom    7 type  2   force =     0.00000000    0.00000000    0.00000000
     atom    8 type  3   force =     0.00000000    0.00000000    0.00000000
     atom    9 type  3   force =     0.00000000    0.00000000    0.00000000
     atom   10 type  3   force =     0.00000000    0.00000000    0.00000000
     atom   11 type  3   force =     0.00000000    0.00000000    0.00000000
     atom   12 type  3   force =     0.00000000    0.00000000    0.00000000
     atom   13 type  3   force =     0.00000000    0.00000000    0.00000000
     atom   14 type  3   force =     0.00000000    0.00000000    0.00000000
     atom   15 type  3   force =     0.00000000    0.00000000    0.00000000
     atom   16 type  3   force =     0.00000000    0.00000000    0.00000000
     atom   17 type  3   force =     0.00000000    0.00000000    0.00000000
     atom   18 type  4   force =     0.00000000    0.00000000    0.00000000
     atom   19 type  4   force =     0.00000000    0.00000000    0.00000000
     atom   20 type  4   force =     0.00000000    0.00000000    0.00000000
     atom   21 type  4   force =     0.00000000    0.00000000    0.00000000
     atom   22 type  4   force =     0.00000000    0.00000000    0.00000000
     atom   23 type  5   force =     0.00000000    0.00000000    0.00000000
     The SCF correction term to forces
     atom    1 type  1   force =     0.00000000    0.00000000   -0.00000000
     atom    2 type  1   force =    -0.00000000    0.00000000   -0.00000000
     atom    3 type  1   force =    -0.00000000   -0.00000000   -0.00000000
     atom    4 type  1   force =     0.00000000    0.00000000   -0.00000000
     atom    5 type  1   force =     0.00000000   -0.00000000   -0.00000000
     atom    6 type  2   force =     0.00000000   -0.00000000   -0.00000000
     atom    7 type  2   force =     0.00000000   -0.00000000   -0.00000000
     atom    8 type  3   force =     0.00000000   -0.00000000   -0.00000000
     atom    9 type  3   force =    -0.00000000   -0.00000000   -0.00000000
     atom   10 type  3   force =    -0.00281389   -0.00362556    0.00452417
     atom   11 type  3   force =     0.00063188    0.00369093    0.00154349
     atom   12 type  3   force =    -0.00261379    0.00370582    0.00430618
     atom   13 type  3   force =    -0.00006007   -0.00309607    0.00221909
     atom   14 type  3   force =     0.00252612   -0.00351960    0.00436418
     atom   15 type  3   force =    -0.00084934    0.00367007    0.00167634
     atom   16 type  3   force =     0.00224916    0.00375645    0.00416338
     atom   17 type  3   force =    -0.00021930   -0.00295744    0.00248829
     atom   18 type  4   force =     0.00072272    0.00048315   -0.00590398
     atom   19 type  4   force =    -0.00461434   -0.00024053    0.00380468
     atom   20 type  4   force =     0.00106982   -0.00057380    0.00066184
     atom   21 type  4   force =     0.00458268   -0.00027596    0.00535862
     atom   22 type  4   force =    -0.00128147   -0.00071399   -0.00071541
     atom   23 type  5   force =    -0.00052107   -0.00004986   -0.00119843

     Total force =     1.498681     Total SCF correction =     0.018584

     Entering Dynamics:    iteration =    10
                           time      =   0.0020 pico-seconds


ATOMIC_POSITIONS (angstrom)
Hf            2.6699999570        2.8271230292        6.6039642186    0   0   0
Hf            1.2529906802        1.2862841814        5.0584662261    0   0   0
Hf            1.2554868986        7.3898042948        5.0880677674    0   0   0
Hf            4.0870092338        1.2862841814        5.0584662261    0   0   0
Hf            4.0845130154        7.3898042948        5.0880677674    0   0   0
Nb            2.6699999570        2.7969306055        3.5155832167    0   0   0
Nb            2.6699999570        5.8763786763        6.6349979432    0   0   0
Ta            1.2093730560        4.3409278516        5.0711258323    0   0   0
Ta            4.1306268580        4.3409278516        5.0711258323    0   0   0
Ta            1.3071584540        1.3140556733        2.0586145457
Ta            1.3026869695        1.3083075332        8.0947389540
Ta            1.3039241920        7.3759102801        2.0460786358
Ta            1.3076316005        7.3651499196        8.0861606082
Ta            4.0328358532        1.3140645277        2.0586172793
Ta            4.0373094898        1.3083152810        8.0947364349
Ta            4.0360723256        7.3759022086        2.0460819768
Ta            4.0323634231        7.3651410006        8.0861577958
Zr            2.6700174519        5.8664403463        3.5272464358
Zr            1.2430094078        4.3220540410        1.9993308651
Zr            1.2395384646        4.3541495653        8.1504312603
Zr            4.0969932299        4.3220510293        1.9993271655
Zr            4.1004648584        4.3541540151        8.1504350847
H             5.3204448719        4.3392309528        5.0735353544


     kinetic energy (Ekin) =           1.27416988 Ry
     temperature           =        9579.78631013 K 
     Ekin + Etot (const)   =       -2941.38368576 Ry

     The maximum number of steps has been reached.

     End of molecular dynamics calculation

     diffusion coefficients :
     atom     1   D =       0.00000000 cm^2/s
     atom     2   D =       0.00000000 cm^2/s
     atom     3   D =       0.00000000 cm^2/s
     atom     4   D =       0.00000000 cm^2/s
     atom     5   D =       0.00000000 cm^2/s
     atom     6   D =       0.00000000 cm^2/s
     atom     7   D =       0.00000000 cm^2/s
     atom     8   D =       0.00000000 cm^2/s
     atom     9   D =       0.00000000 cm^2/s
     atom    10   D =       0.00000000 cm^2/s
     atom    11   D =       0.00000000 cm^2/s
     atom    12   D =       0.00000000 cm^2/s
     atom    13   D =       0.00000000 cm^2/s
     atom    14   D =       0.00000000 cm^2/s
     atom    15   D =       0.00000000 cm^2/s
     atom    16   D =       0.00000000 cm^2/s
     atom    17   D =       0.00000000 cm^2/s
     atom    18   D =       0.00000000 cm^2/s
     atom    19   D =       0.00000001 cm^2/s
     atom    20   D =       0.00000001 cm^2/s
     atom    21   D =       0.00000001 cm^2/s
     atom    22   D =       0.00000001 cm^2/s
     atom    23   D =       0.00029557 cm^2/s

     < D > =       0.00002111 cm^2/s

     Writing all to output data dir outdir/pwscf.save/

     init_run     :     22.21s CPU     22.64s WALL (       1 calls)
     electrons    :   2166.69s CPU   2198.64s WALL (      10 calls)
     update_pot   :     21.89s CPU     21.98s WALL (       9 calls)
     forces       :    164.35s CPU    166.60s WALL (      10 calls)

     Called by init_run:
     wfcinit      :     17.44s CPU     17.59s WALL (       1 calls)
     potinit      :      0.98s CPU      1.03s WALL (       1 calls)
     hinit0       :      1.77s CPU      1.80s WALL (       1 calls)

     Called by electrons:
     c_bands      :   1757.07s CPU   1767.34s WALL (      53 calls)
     sum_band     :    291.01s CPU    302.89s WALL (      53 calls)
     v_of_rho     :     13.04s CPU     13.56s WALL (      63 calls)
     newd         :    125.99s CPU    136.83s WALL (      63 calls)
     mix_rho      :      1.02s CPU      1.05s WALL (      53 calls)

     Called by c_bands:
     init_us_2    :      2.85s CPU      2.86s WALL (     234 calls)
     init_us_2:cp :      2.84s CPU      2.86s WALL (     234 calls)
     regterg      :   1742.25s CPU   1752.47s WALL (     106 calls)

     Called by *egterg:
     rdiaghg      :     33.61s CPU     34.00s WALL (     778 calls)
     h_psi        :    714.24s CPU    721.96s WALL (     798 calls)
     s_psi        :    258.99s CPU    259.33s WALL (     798 calls)
     g_psi        :      0.53s CPU      0.53s WALL (     690 calls)

     Called by h_psi:
     h_psi:calbec :    322.59s CPU    323.13s WALL (     798 calls)
     vloc_psi     :    129.57s CPU    136.44s WALL (     798 calls)
     add_vuspsi   :    260.93s CPU    261.25s WALL (     798 calls)

     General routines
     calbec       :    544.94s CPU    545.78s WALL (     984 calls)
     fft          :     14.34s CPU     14.91s WALL (    1104 calls)
     ffts         :      0.26s CPU      0.31s WALL (      53 calls)
     fftw         :    136.07s CPU    143.25s WALL (   54614 calls)

     Parallel routines

     PWSCF        :  39m55.22s CPU  40m32.16s WALL


   This run was terminated on:   4:59:53  11Jun2023            

=------------------------------------------------------------------------------=
   JOB DONE.
=------------------------------------------------------------------------------=
