
     Program PWSCF v.7.2 starts on 11Jun2023 at 10:58:14 

     This program is part of the open-source Quantum ESPRESSO suite
     for quantum simulation of materials; please cite
         "P. Giannozzi et al., J. Phys.:Condens. Matter 21 395502 (2009);
         "P. Giannozzi et al., J. Phys.:Condens. Matter 29 465901 (2017);
         "P. Giannozzi et al., J. Chem. Phys. 152 154105 (2020);
          URL http://www.quantum-espresso.org", 
     in publications or presentations arising from this work. More details at
     http://www.quantum-espresso.org/quote

     Parallel version (MPI), running on    12 processors

     MPI processes distributed on     1 nodes
     75815 MiB available memory on the printing compute node when the environment starts

     Reading input from md_data/md_Hf5Nb2Ta10Zr5H_10steps_50eV_incident45_polar15.in
Warning: card &CELL ignored
Warning: card / ignored

     Current dimensions of program PWSCF are:
     Max number of different atomic species (ntypx) = 10
     Max number of k-points (npk) =  40000
     Max angular momentum in pseudopotentials (lmaxx) =  4

     File outdir/pwscf.md deleted, as requested

     gamma-point specific algorithms are used

     R & G space division:  proc/nbgrp/npool/nimage =      12
     Subspace diagonalization in iterative solution of the eigenvalue problem:
     one sub-group per band group will be used
     custom distributed-memory algorithm (size of sub-group:  2*  2 procs)


     Parallelization info
     --------------------
     sticks:   dense  smooth     PW     G-vecs:    dense   smooth      PW
     Min         723     723    180                64572    64572    8072
     Max         724     724    182                64584    64584    8078
     Sum        8687    8687   2177               774967   774967   96907

     Using Slab Decomposition



     bravais-lattice index     =            0
     lattice parameter (alat)  =      13.8706  a.u.
     unit-cell volume          =    4363.8306 (a.u.)^3
     number of atoms/cell      =           23
     number of atomic types    =            5
     number of electrons       =       277.00
     number of Kohn-Sham states=          167
     kinetic-energy cutoff     =     120.0000  Ry
     charge density cutoff     =     480.0000  Ry
     scf convergence threshold =      1.0E-03
     mixing beta               =       0.7000
     number of iterations used =            8  TF        mixing
     energy convergence thresh.=      0.0E+00
     force convergence thresh. =      0.0E+00
     Exchange-correlation=  SLA  PW   PBX  PBC
                           (   1   4   3   4   0   0   0)
     nstep                     =           10


     celldm(1)=  13.870589  celldm(2)=   0.000000  celldm(3)=   0.000000
     celldm(4)=   0.000000  celldm(5)=   0.000000  celldm(6)=   0.000000

     crystal axes: (cart. coord. in units of alat)
               a(1) = (   1.000000   0.000000   0.000000 )  
               a(2) = (   0.000000   1.182561   0.000000 )  
               a(3) = (   0.000000   0.000000   1.382801 )  

     reciprocal axes: (cart. coord. in units 2 pi/alat)
               b(1) = (  1.000000  0.000000  0.000000 )  
               b(2) = (  0.000000  0.845622  0.000000 )  
               b(3) = (  0.000000  0.000000  0.723170 )  


     PseudoPot. # 1 for Hf read from file:
     q-e/pseudo/hf_pbe_v1.uspp.F.UPF
     MD5 check sum: 8ee9378dfe14276e333edf04c5e4aa26
     Pseudo is Ultrasoft + core correction, Zval = 12.0
     Generated by new atomic code, or converted to UPF format
     Using radial grid of  921 points,  8 beta functions with: 
                l(1) =   0
                l(2) =   0
                l(3) =   0
                l(4) =   1
                l(5) =   1
                l(6) =   2
                l(7) =   2
                l(8) =   3
     Q(r) pseudized with  6 coefficients,  rinner =    1.200   1.200   1.200
                                                       1.200   1.200   1.200
                                                       1.200

     PseudoPot. # 2 for Nb read from file:
     q-e/pseudo/nb_pbe_v1.uspp.F.UPF
     MD5 check sum: 573aab8a2fa660278ed4a62cd769473f
     Pseudo is Ultrasoft + core correction, Zval = 13.0
     Generated by new atomic code, or converted to UPF format
     Using radial grid of  887 points,  6 beta functions with: 
                l(1) =   0
                l(2) =   0
                l(3) =   1
                l(4) =   1
                l(5) =   2
                l(6) =   2
     Q(r) pseudized with  6 coefficients,  rinner =    1.000   1.000   1.000
                                                       1.000   1.000

     PseudoPot. # 3 for Ta read from file:
     q-e/pseudo/ta_pbe_v1.uspp.F.UPF
     MD5 check sum: f8bbe9446314a3b8ea5d9f3e3836c939
     Pseudo is Ultrasoft + core correction, Zval = 13.0
     Generated by new atomic code, or converted to UPF format
     Using radial grid of  921 points,  7 beta functions with: 
                l(1) =   0
                l(2) =   0
                l(3) =   1
                l(4) =   1
                l(5) =   2
                l(6) =   2
                l(7) =   3
     Q(r) pseudized with  6 coefficients,  rinner =    1.300   1.300   1.300
                                                       1.300   1.300   1.300
                                                       1.300

     PseudoPot. # 4 for Zr read from file:
     q-e/pseudo/zr_pbe_v1.uspp.F.UPF
     MD5 check sum: 5db81b1e868ab7776c4564c113de050b
     Pseudo is Ultrasoft + core correction, Zval = 12.0
     Generated by new atomic code, or converted to UPF format
     Using radial grid of  887 points,  6 beta functions with: 
                l(1) =   0
                l(2) =   0
                l(3) =   1
                l(4) =   1
                l(5) =   2
                l(6) =   2
     Q(r) pseudized with  6 coefficients,  rinner =    1.200   1.200   1.200
                                                       1.200   1.200

     PseudoPot. # 5 for H  read from file:
     q-e/pseudo/h_pbe_v1.4.uspp.F.UPF
     MD5 check sum: 761ae9a214b05c3daf00ab9f6b793d6f
     Pseudo is Ultrasoft, Zval =  1.0
     Generated by new atomic code, or converted to UPF format
     Using radial grid of  615 points,  2 beta functions with: 
                l(1) =   0
                l(2) =   0
     Q(r) pseudized with  8 coefficients,  rinner =    0.700

     atomic species   valence    mass     pseudopotential
        Hf            12.00   178.49000     Hf( 1.00)
        Nb            13.00    92.90637     Nb( 1.00)
        Ta            13.00   180.94788     Ta( 1.00)
        Zr            12.00    91.22400     Zr( 1.00)
        H              1.00     2.01400     H ( 1.00)

     Starting magnetic structure 
     atomic species   magnetization
        Hf           0.000
        Nb           0.000
        Ta           0.000
        Zr           0.000
        H            0.000

     No symmetry found



   Cartesian axes

     site n.     atom                  positions (alat units)
         1           Hf  tau(   1) = (   0.3637602   0.3851666   0.8997227  )
         2           Hf  tau(   2) = (   0.1707072   0.1752431   0.6891644  )
         3           Hf  tau(   3) = (   0.1710473   1.0067854   0.6931973  )
         4           Hf  tau(   4) = (   0.5568133   0.1752431   0.6891644  )
         5           Hf  tau(   5) = (   0.5564732   1.0067854   0.6931973  )
         6           Nb  tau(   6) = (   0.3637602   0.3810532   0.4789623  )
         7           Nb  tau(   7) = (   0.3637602   0.8005966   0.9039507  )
         8           Ta  tau(   8) = (   0.1647647   0.5914071   0.6908891  )
         9           Ta  tau(   9) = (   0.5627557   0.5914071   0.6908891  )
        10           Ta  tau(  10) = (   0.1780998   0.1790358   0.2804876  )
        11           Ta  tau(  11) = (   0.1774916   0.1782549   1.1028038  )
        12           Ta  tau(  12) = (   0.1776580   1.0048810   0.2787789  )
        13           Ta  tau(  13) = (   0.1781622   1.0034173   1.1016352  )
        14           Ta  tau(  14) = (   0.5494206   0.1790358   0.2804876  )
        15           Ta  tau(  15) = (   0.5500289   0.1782549   1.1028038  )
        16           Ta  tau(  16) = (   0.5498625   1.0048810   0.2787789  )
        17           Ta  tau(  17) = (   0.5493582   1.0034173   1.1016352  )
        18           Zr  tau(  18) = (   0.3637602   0.7992215   0.4805700  )
        19           Zr  tau(  19) = (   0.1694598   0.5888390   0.2724796  )
        20           Zr  tau(  20) = (   0.1689898   0.5932048   1.1103210  )
        21           Zr  tau(  21) = (   0.5580607   0.5888390   0.2724796  )
        22           Zr  tau(  22) = (   0.5585306   0.5932048   1.1103210  )
        23           H   tau(  23) = (   0.6590918   0.6843342   0.7159663  )

     number of k points=     1  Gaussian smearing, width (Ry)=  0.0220
                       cart. coord. in units 2pi/alat
        k(    1) = (   0.0000000   0.0000000   0.0000000), wk =   1.0000000

     Dense  grid:   387484 G-vectors     FFT dimensions: ( 100, 120, 135)

     Estimated max dynamical RAM per process >     326.54 MB

     Estimated total dynamical RAM >       3.83 GB

     Check: negative core charge=   -0.000002
     Generating pointlists ...
     new r_m :   0.1399 (alat units)  1.9405 (a.u.) for type    1
     new r_m :   0.1397 (alat units)  1.9374 (a.u.) for type    2
     new r_m :   0.0562 (alat units)  0.7792 (a.u.) for type    3
     new r_m :   0.1415 (alat units)  1.9625 (a.u.) for type    4
     new r_m :   0.0562 (alat units)  0.7792 (a.u.) for type    5

     Initial potential from superposition of free atoms

     starting charge     266.9726, renormalised to     277.0000

     negative rho (up, down):  9.202E-01 9.202E-01
     Starting wfcs are  287 randomized atomic wfcs

     total cpu time spent up to now is       22.8 secs

     Self-consistent Calculation

     iteration #  1     ecut=   120.00 Ry     beta= 0.70
     Davidson diagonalization with overlap
     ethr =  1.00E-02,  avg # of iterations =  3.0

     negative rho (up, down):  9.517E-01 9.493E-01

     total cpu time spent up to now is       62.8 secs

     total energy              =   -2933.26547023 Ry
     estimated scf accuracy    <     320.15816202 Ry

     total magnetization       =    -0.01 Bohr mag/cell
     absolute magnetization    =     0.09 Bohr mag/cell

     iteration #  2     ecut=   120.00 Ry     beta= 0.70
     Davidson diagonalization with overlap
     ethr =  1.00E-02,  avg # of iterations =  5.0

     negative rho (up, down):  8.884E-01 8.867E-01

     total cpu time spent up to now is      109.6 secs

     total energy              =   -2941.36640190 Ry
     estimated scf accuracy    <      47.11971603 Ry

     total magnetization       =    -0.01 Bohr mag/cell
     absolute magnetization    =     0.10 Bohr mag/cell

     iteration #  3     ecut=   120.00 Ry     beta= 0.70
     Davidson diagonalization with overlap
     ethr =  1.00E-02,  avg # of iterations =  4.0

     negative rho (up, down):  9.119E-01 9.111E-01

     total cpu time spent up to now is      152.5 secs

     total energy              =   -2941.93541675 Ry
     estimated scf accuracy    <      17.12270885 Ry

     total magnetization       =    -0.01 Bohr mag/cell
     absolute magnetization    =     0.12 Bohr mag/cell

     iteration #  4     ecut=   120.00 Ry     beta= 0.70
     Davidson diagonalization with overlap
     ethr =  6.18E-03,  avg # of iterations =  2.0

     negative rho (up, down):  9.207E-01 9.204E-01

     total cpu time spent up to now is      195.2 secs

     total energy              =   -2942.12879423 Ry
     estimated scf accuracy    <       3.73181903 Ry

     total magnetization       =    -0.02 Bohr mag/cell
     absolute magnetization    =     0.15 Bohr mag/cell

     iteration #  5     ecut=   120.00 Ry     beta= 0.70
     Davidson diagonalization with overlap
     ethr =  1.35E-03,  avg # of iterations =  7.0

     negative rho (up, down):  9.133E-01 9.132E-01

     total cpu time spent up to now is      244.6 secs

     total energy              =   -2942.32913618 Ry
     estimated scf accuracy    <       1.64947000 Ry

     total magnetization       =    -0.00 Bohr mag/cell
     absolute magnetization    =     0.11 Bohr mag/cell

     iteration #  6     ecut=   120.00 Ry     beta= 0.70
     Davidson diagonalization with overlap
     ethr =  5.95E-04,  avg # of iterations =  2.0

     negative rho (up, down):  9.117E-01 9.117E-01

     total cpu time spent up to now is      285.2 secs

     total energy              =   -2942.34462557 Ry
     estimated scf accuracy    <       0.72563977 Ry

     total magnetization       =    -0.01 Bohr mag/cell
     absolute magnetization    =     0.08 Bohr mag/cell

     iteration #  7     ecut=   120.00 Ry     beta= 0.70
     Davidson diagonalization with overlap
     ethr =  2.62E-04,  avg # of iterations =  6.5

     negative rho (up, down):  9.058E-01 9.058E-01

     total cpu time spent up to now is      324.8 secs

     total energy              =   -2942.36661360 Ry
     estimated scf accuracy    <       0.13558922 Ry

     total magnetization       =    -0.01 Bohr mag/cell
     absolute magnetization    =     0.07 Bohr mag/cell

     iteration #  8     ecut=   120.00 Ry     beta= 0.70
     Davidson diagonalization with overlap
     ethr =  4.89E-05,  avg # of iterations = 11.5

     negative rho (up, down):  9.040E-01 9.040E-01

     total cpu time spent up to now is      375.9 secs

     total energy              =   -2942.37084724 Ry
     estimated scf accuracy    <       0.09130990 Ry

     total magnetization       =    -0.01 Bohr mag/cell
     absolute magnetization    =     0.05 Bohr mag/cell

     iteration #  9     ecut=   120.00 Ry     beta= 0.70
     Davidson diagonalization with overlap
     ethr =  3.30E-05,  avg # of iterations =  2.0

     negative rho (up, down):  9.053E-01 9.053E-01

     total cpu time spent up to now is      416.2 secs

     total energy              =   -2942.37715880 Ry
     estimated scf accuracy    <       0.03263691 Ry

     total magnetization       =    -0.01 Bohr mag/cell
     absolute magnetization    =     0.03 Bohr mag/cell

     iteration # 10     ecut=   120.00 Ry     beta= 0.70
     Davidson diagonalization with overlap
     ethr =  1.18E-05,  avg # of iterations =  4.5

     negative rho (up, down):  9.061E-01 9.061E-01

     total cpu time spent up to now is      457.4 secs

     total energy              =   -2942.37909465 Ry
     estimated scf accuracy    <       0.00634419 Ry

     total magnetization       =    -0.01 Bohr mag/cell
     absolute magnetization    =     0.03 Bohr mag/cell

     iteration # 11     ecut=   120.00 Ry     beta= 0.70
     Davidson diagonalization with overlap
     ethr =  2.29E-06,  avg # of iterations =  9.0

     negative rho (up, down):  9.067E-01 9.067E-01

     total cpu time spent up to now is      501.5 secs

     total energy              =   -2942.37957869 Ry
     estimated scf accuracy    <       0.00133695 Ry

     total magnetization       =    -0.01 Bohr mag/cell
     absolute magnetization    =     0.02 Bohr mag/cell

     iteration # 12     ecut=   120.00 Ry     beta= 0.70
     Davidson diagonalization with overlap
     ethr =  4.83E-07,  avg # of iterations =  5.0

     negative rho (up, down):  9.065E-01 9.065E-01

     Magnetic moment per site  (integrated on atomic sphere of radius R)
     atom   1 (R=0.140)  charge=  9.3346    0.0001
     atom   2 (R=0.140)  charge=  8.9542    0.0001
     atom   3 (R=0.140)  charge=  8.9547   -0.0002
     atom   4 (R=0.140)  charge=  8.9569   -0.0002
     atom   5 (R=0.140)  charge=  8.9459   -0.0001
     atom   6 (R=0.140)  charge= 10.3482   -0.0000
     atom   7 (R=0.140)  charge= 10.3494   -0.0000
     atom   8 (R=0.056)  charge=  1.3418   -0.0000
     atom   9 (R=0.056)  charge=  1.3580    0.0000
     atom  10 (R=0.056)  charge=  1.3389   -0.0000
     atom  11 (R=0.056)  charge=  1.3384   -0.0000
     atom  12 (R=0.056)  charge=  1.3383    0.0000
     atom  13 (R=0.056)  charge=  1.3385   -0.0000
     atom  14 (R=0.056)  charge=  1.3397    0.0000
     atom  15 (R=0.056)  charge=  1.3399    0.0000
     atom  16 (R=0.056)  charge=  1.3382    0.0000
     atom  17 (R=0.056)  charge=  1.3394   -0.0000
     atom  18 (R=0.141)  charge=  9.4569   -0.0001
     atom  19 (R=0.141)  charge=  8.9976   -0.0006
     atom  20 (R=0.141)  charge=  8.9946   -0.0007
     atom  21 (R=0.141)  charge=  8.9969   -0.0009
     atom  22 (R=0.141)  charge=  8.9983   -0.0005
     atom  23 (R=0.056)  charge=  0.7678    0.0000

     total cpu time spent up to now is      539.5 secs

     End of self-consistent calculation

 ------ SPIN UP ------------


          k = 0.0000 0.0000 0.0000 ( 48454 PWs)   bands (ev):

   -57.8420 -57.8378 -57.7973 -57.7903 -57.7665 -57.7603 -57.7228 -57.7139
   -57.6138 -57.4134 -51.4154 -51.3673 -51.2872 -51.2323 -49.7081 -43.2523
   -43.2372 -38.6309 -38.6166 -38.5331 -38.5292 -36.8132 -25.9547 -24.8577
   -24.8492 -24.7687 -24.7663 -24.6550 -24.6468 -24.5419 -24.5199 -24.3891
   -24.3682 -24.3360 -24.3057 -24.3003 -24.2813 -24.2589 -24.2373 -24.2004
   -24.1947 -24.1417 -24.0313 -24.0203 -24.0147 -24.0123 -23.9662 -23.9507
   -23.9288 -23.9167 -23.6597 -23.6187 -21.1999 -20.9892 -20.6739 -20.5935
   -20.3252 -20.1896 -20.1709 -20.0637 -19.9560 -19.8813 -19.8668 -19.6433
   -19.5109 -19.4507 -19.3930 -19.3450 -19.2818 -19.2315 -18.7863 -18.7006
   -18.6402 -17.1894 -16.8760 -16.8588 -16.8199 -16.6228 -16.6102 -16.6089
   -16.5925 -16.5650 -16.5321 -16.3125 -16.2984 -15.1661 -14.9562 -14.8312
     4.0948   5.1156   5.8005   6.1325   6.2500   6.4670   6.5642   6.5962
     6.6082   6.8181   6.9329   6.9907   7.2176   7.3274   7.5361   7.5834
     7.7094   7.7509   7.9383   8.0293   8.0993   8.1600   8.2321   8.2540
     8.3660   8.4709   8.5540   8.6248   8.6614   8.7213   8.7634   8.7675
     8.8483   9.0166   9.0578   9.1430   9.1847   9.2583   9.2906   9.3122
     9.3735   9.4724   9.6452   9.7616   9.8041   9.9586   9.9634  10.1050
    10.1667  10.1800  10.3102  10.3499  10.3947  10.4308  10.5473  10.5961
    10.6883  10.7638  10.9121  10.9227  11.0170  11.0262  11.1427  11.2217
    11.2644  11.3517  11.3958  11.5809  11.6808  11.7598  11.8018  11.8173
    11.9993  12.1228  12.1604  12.1880  12.1938  12.2128  12.2359

 ------ SPIN DOWN ----------


          k = 0.0000 0.0000 0.0000 ( 48454 PWs)   bands (ev):

   -57.8421 -57.8376 -57.7973 -57.7902 -57.7666 -57.7600 -57.7229 -57.7137
   -57.6139 -57.4131 -51.4155 -51.3674 -51.2873 -51.2324 -49.7081 -43.2523
   -43.2372 -38.6317 -38.6171 -38.5336 -38.5299 -36.8133 -25.9545 -24.8579
   -24.8488 -24.7689 -24.7660 -24.6552 -24.6466 -24.5421 -24.5195 -24.3892
   -24.3681 -24.3361 -24.3057 -24.3002 -24.2813 -24.2588 -24.2374 -24.2003
   -24.1946 -24.1420 -24.0315 -24.0205 -24.0145 -24.0120 -23.9664 -23.9505
   -23.9289 -23.9164 -23.6594 -23.6183 -21.2001 -20.9894 -20.6740 -20.5936
   -20.3253 -20.1897 -20.1711 -20.0638 -19.9561 -19.8815 -19.8670 -19.6434
   -19.5110 -19.4508 -19.3931 -19.3449 -19.2819 -19.2315 -18.7864 -18.7007
   -18.6402 -17.1900 -16.8767 -16.8594 -16.8208 -16.6230 -16.6107 -16.6096
   -16.5932 -16.5656 -16.5326 -16.3135 -16.2990 -15.1662 -14.9563 -14.8313
     4.0948   5.1155   5.8006   6.1325   6.2499   6.4670   6.5643   6.5962
     6.6081   6.8180   6.9329   6.9907   7.2174   7.3273   7.5361   7.5834
     7.7090   7.7509   7.9382   8.0292   8.0993   8.1598   8.2319   8.2540
     8.3660   8.4708   8.5536   8.6242   8.6612   8.7212   8.7635   8.7676
     8.8482   9.0166   9.0576   9.1430   9.1846   9.2581   9.2905   9.3121
     9.3732   9.4723   9.6451   9.7615   9.8040   9.9581   9.9631  10.1048
    10.1667  10.1800  10.3087  10.3490  10.3947  10.4309  10.5471  10.5959
    10.6879  10.7634  10.9118  10.9227  11.0165  11.0263  11.1425  11.2218
    11.2642  11.3518  11.3956  11.5808  11.6806  11.7595  11.8016  11.8168
    11.9990  12.1224  12.1604  12.1881  12.1933  12.2121  12.2357

     the Fermi energy is    10.2740 ev

!    total energy              =   -2942.37969284 Ry
     estimated scf accuracy    <       0.00022873 Ry
     smearing contrib. (-TS)   =      -0.09752022 Ry
     internal energy E=F+TS    =   -2942.28217261 Ry

     total magnetization       =    -0.01 Bohr mag/cell
     absolute magnetization    =     0.02 Bohr mag/cell

     convergence has been achieved in  12 iterations

     negative rho (up, down):  9.065E-01 9.065E-01

     Forces acting on atoms (cartesian axes, Ry/au):

     atom    1 type  1   force =     0.00879084   -0.01646425    0.01573223
     atom    2 type  1   force =    -0.13071288   -0.01860717   -0.00203955
     atom    3 type  1   force =    -0.12905475    0.01527466    0.00439976
     atom    4 type  1   force =     0.15000754   -0.02107506   -0.00288332
     atom    5 type  1   force =     0.13080665   -0.00864940    0.00460700
     atom    6 type  2   force =     0.01010682   -0.01335456    0.00141938
     atom    7 type  2   force =    -0.00579418    0.01499496    0.00218387
     atom    8 type  3   force =    -0.14621189    0.00970775    0.00439919
     atom    9 type  3   force =    -1.42886325   -1.53407352   -0.42732557
     atom   10 type  3   force =    -0.03586278   -0.01662353   -0.06366571
     atom   11 type  3   force =    -0.03713131   -0.02804113    0.06015313
     atom   12 type  3   force =    -0.02894434    0.02388255   -0.06008007
     atom   13 type  3   force =    -0.02510989    0.01952447    0.05934105
     atom   14 type  3   force =     0.02580034   -0.02057979   -0.05838104
     atom   15 type  3   force =     0.02755203   -0.02758378    0.05890653
     atom   16 type  3   force =     0.02762224    0.02860053   -0.05613590
     atom   17 type  3   force =     0.02375744    0.02198502    0.05816889
     atom   18 type  4   force =     0.00759720    0.01989991   -0.00977288
     atom   19 type  4   force =    -0.15193716   -0.00539876   -0.12116120
     atom   20 type  4   force =    -0.15344536    0.00492274    0.12090785
     atom   21 type  4   force =     0.14553039   -0.00704023   -0.11922660
     atom   22 type  4   force =     0.14554565    0.00522956    0.12091932
     atom   23 type  5   force =     1.56995065    1.55346903    0.40953365
     The non-local contrib.  to forces
     atom    1 type  1   force =     0.01796046    0.00615896    0.02654821
     atom    2 type  1   force =    -0.24733880   -0.16840046    0.01484630
     atom    3 type  1   force =    -0.24216067    0.15958910   -0.02722551
     atom    4 type  1   force =     0.25004630   -0.17099084    0.01541571
     atom    5 type  1   force =     0.23600633    0.14947382   -0.02849051
     atom    6 type  2   force =    -0.00042333   -0.07027578   -0.06309770
     atom    7 type  2   force =    -0.00666469    0.08871538    0.04590662
     atom    8 type  3   force =    -0.25887889   -0.00015125   -0.00424569
     atom    9 type  3   force =     0.83167070    0.56754206    0.15378910
     atom   10 type  3   force =    -0.24823411   -0.00123863   -0.23338496
     atom   11 type  3   force =    -0.24808537    0.00986512    0.21619042
     atom   12 type  3   force =    -0.22586584   -0.02540632   -0.19349707
     atom   13 type  3   force =    -0.23141722   -0.00938313    0.21647821
     atom   14 type  3   force =     0.22886584    0.00638637   -0.22149925
     atom   15 type  3   force =     0.23540426    0.01299841    0.21795484
     atom   16 type  3   force =     0.22374591   -0.02612452   -0.18921351
     atom   17 type  3   force =     0.23387426   -0.01146178    0.21937971
     atom   18 type  4   force =    -0.00588349    0.08492916   -0.04160038
     atom   19 type  4   force =     0.07881881    0.00433256    0.05525715
     atom   20 type  4   force =     0.07616388    0.00241933   -0.05079775
     atom   21 type  4   force =    -0.07083736    0.00414840    0.04802720
     atom   22 type  4   force =    -0.06469776    0.00370584   -0.03493146
     atom   23 type  5   force =    -0.13977267   -0.13622970   -0.04125253
     The ionic contribution  to forces
     atom    1 type  1   force =    -0.24574133   -4.92689215   15.01108654
     atom    2 type  1   force =   -27.82993626   -6.25284746    0.76480362
     atom    3 type  1   force =   -27.83692085    6.37871217   -0.73845705
     atom    4 type  1   force =    27.74872943   -6.37329305    0.75364364
     atom    5 type  1   force =    27.53350290    7.07107522   -0.78862566
     atom    6 type  2   force =    -0.21252798   -3.84601978  -15.01421567
     atom    7 type  2   force =    -0.60644776    3.88788892   15.27387314
     atom    8 type  3   force =   -38.67456717   -0.07014276   -0.11123481
     atom    9 type  3   force =    33.55667805   -4.87097614   -1.40734342
     atom   10 type  3   force =   -24.85000392   -2.12758595  -24.61732812
     atom   11 type  3   force =   -23.92371673   -0.86761334   23.62533297
     atom   12 type  3   force =   -24.04957030    0.86499334  -23.70254423
     atom   13 type  3   force =   -24.83646253    2.28992761   24.66175223
     atom   14 type  3   force =    24.81517668   -2.15431996  -24.66377891
     atom   15 type  3   force =    23.88234075   -0.90321341   23.68013759
     atom   16 type  3   force =    23.98545903    0.94619453  -23.81742304
     atom   17 type  3   force =    24.75053077    2.40891338   24.81273687
     atom   18 type  4   force =    -0.43537021    4.58807943  -15.10835084
     atom   19 type  4   force =   -25.11038439    0.92775521  -27.13529724
     atom   20 type  4   force =   -25.06905049   -1.02350362   27.14559801
     atom   21 type  4   force =    25.01164506    0.87256206  -27.38596200
     atom   22 type  4   force =    24.92501332   -1.10864574   27.51214553
     atom   23 type  5   force =     7.47162392    4.28895146    1.24945083
     The local contribution  to forces
     atom    1 type  1   force =     0.23340555    4.90657054  -15.01478683
     atom    2 type  1   force =    27.95705821    6.40602829   -0.78120548
     atom    3 type  1   force =    27.96145809   -6.52800438    0.77453537
     atom    4 type  1   force =   -27.86013587    6.52539209   -0.77216835
     atom    5 type  1   force =   -27.64391459   -7.23750360    0.82627062
     atom    6 type  2   force =     0.22096422    3.91182569   15.06901814
     atom    7 type  2   force =     0.60714566   -3.96570977  -15.30748256
     atom    8 type  3   force =    38.81266527    0.08146545    0.11771125
     atom    9 type  3   force =   -35.86085111    2.74989342    0.81729341
     atom   10 type  3   force =    25.08833134    2.11388623   24.79846774
     atom   11 type  3   force =    24.16174396    0.82340871  -23.79344408
     atom   12 type  3   force =    24.27228024   -0.81671495   23.84078698
     atom   13 type  3   force =    25.06881149   -2.26170730  -24.82515383
     atom   14 type  3   force =   -25.04201272    2.12787350   24.83732665
     atom   15 type  3   force =   -24.11577343    0.85560615  -23.85034158
     atom   16 type  3   force =   -24.20560655   -0.89181252   23.95486005
     atom   17 type  3   force =   -24.98512771   -2.37807095  -24.98068860
     atom   18 type  4   force =     0.44823891   -4.65997522   15.13311969
     atom   19 type  4   force =    24.89283368   -0.93619755   26.95962140
     atom   20 type  4   force =    24.85274064    1.03120192  -26.97312214
     atom   21 type  4   force =   -24.80760599   -0.88263591   27.21756628
     atom   22 type  4   force =   -24.72719442    1.11571242  -27.35289382
     atom   23 type  5   force =    -5.76128197   -2.59927178   -0.79850413
     The core correction contribution to forces
     atom    1 type  1   force =     0.00169020    0.00493622   -0.00239777
     atom    2 type  1   force =    -0.01130693   -0.00182905    0.00096204
     atom    3 type  1   force =    -0.01146637    0.00223609   -0.00186887
     atom    4 type  1   force =     0.01198233   -0.00257090    0.00099722
     atom    5 type  1   force =     0.00676248    0.00523643   -0.00212571
     atom    6 type  2   force =     0.00075247    0.00419265    0.00346665
     atom    7 type  2   force =     0.00041528   -0.00443149   -0.00156319
     atom    8 type  3   force =    -0.03059656    0.00065798    0.00042726
     atom    9 type  3   force =     0.04829420    0.02327294    0.00717158
     atom   10 type  3   force =    -0.02668145    0.00516628   -0.01747056
     atom   11 type  3   force =    -0.02791594    0.00705326    0.01713220
     atom   12 type  3   force =    -0.02514778   -0.00745774   -0.01476851
     atom   13 type  3   force =    -0.02523628   -0.00579262    0.01572252
     atom   14 type  3   force =     0.02547108    0.00555391   -0.01737736
     atom   15 type  3   force =     0.02666507    0.00769027    0.01773415
     atom   16 type  3   force =     0.02452242   -0.00710899   -0.01394561
     atom   17 type  3   force =     0.02446022   -0.00456404    0.01553878
     atom   18 type  4   force =     0.00052719   -0.00482931    0.00195753
     atom   19 type  4   force =    -0.01055102    0.00034195   -0.00859631
     atom   20 type  4   force =    -0.01045720   -0.00049303    0.00845687
     atom   21 type  4   force =     0.01003713    0.00029058   -0.00804589
     atom   22 type  4   force =     0.00977433   -0.00068252    0.00735674
     atom   23 type  5   force =     0.00000000    0.00000000    0.00000000
     The Hubbard contrib.    to forces
     atom    1 type  1   force =     0.00000000    0.00000000    0.00000000
     atom    2 type  1   force =     0.00000000    0.00000000    0.00000000
     atom    3 type  1   force =     0.00000000    0.00000000    0.00000000
     atom    4 type  1   force =     0.00000000    0.00000000    0.00000000
     atom    5 type  1   force =     0.00000000    0.00000000    0.00000000
     atom    6 type  2   force =     0.00000000    0.00000000    0.00000000
     atom    7 type  2   force =     0.00000000    0.00000000    0.00000000
     atom    8 type  3   force =     0.00000000    0.00000000    0.00000000
     atom    9 type  3   force =     0.00000000    0.00000000    0.00000000
     atom   10 type  3   force =     0.00000000    0.00000000    0.00000000
     atom   11 type  3   force =     0.00000000    0.00000000    0.00000000
     atom   12 type  3   force =     0.00000000    0.00000000    0.00000000
     atom   13 type  3   force =     0.00000000    0.00000000    0.00000000
     atom   14 type  3   force =     0.00000000    0.00000000    0.00000000
     atom   15 type  3   force =     0.00000000    0.00000000    0.00000000
     atom   16 type  3   force =     0.00000000    0.00000000    0.00000000
     atom   17 type  3   force =     0.00000000    0.00000000    0.00000000
     atom   18 type  4   force =     0.00000000    0.00000000    0.00000000
     atom   19 type  4   force =     0.00000000    0.00000000    0.00000000
     atom   20 type  4   force =     0.00000000    0.00000000    0.00000000
     atom   21 type  4   force =     0.00000000    0.00000000    0.00000000
     atom   22 type  4   force =     0.00000000    0.00000000    0.00000000
     atom   23 type  5   force =     0.00000000    0.00000000    0.00000000
     The SCF correction term to forces
     atom    1 type  1   force =     0.00000000   -0.00000000   -0.00000000
     atom    2 type  1   force =     0.00000000   -0.00000000   -0.00000000
     atom    3 type  1   force =     0.00000000    0.00000000   -0.00000000
     atom    4 type  1   force =    -0.00000000    0.00000000   -0.00000000
     atom    5 type  1   force =    -0.00000000    0.00000000   -0.00000000
     atom    6 type  2   force =     0.00000000   -0.00000000    0.00000000
     atom    7 type  2   force =    -0.00000000    0.00000000   -0.00000000
     atom    8 type  3   force =     0.00000000   -0.00000000    0.00000000
     atom    9 type  3   force =    -0.00000000   -0.00000000    0.00000000
     atom   10 type  3   force =     0.00074080   -0.00685479    0.00616055
     atom   11 type  3   force =     0.00085822   -0.00075820   -0.00494802
     atom   12 type  3   force =    -0.00062521    0.00846489    0.01005313
     atom   13 type  3   force =    -0.00078989    0.00647657   -0.00934772
     atom   14 type  3   force =    -0.00168509   -0.00607694    0.00705819
     atom   15 type  3   force =    -0.00106918   -0.00066853   -0.00646811
     atom   16 type  3   force =    -0.00048313    0.00744869    0.00969657
     atom   17 type  3   force =     0.00003534    0.00716509   -0.00868750
     atom   18 type  4   force =     0.00010024    0.01169253    0.00521147
     atom   19 type  4   force =    -0.00263879   -0.00163426    0.00796417
     atom   20 type  4   force =    -0.00282674   -0.00470518   -0.00911677
     atom   21 type  4   force =     0.00230700   -0.00140870    0.00929818
     atom   22 type  4   force =     0.00266562   -0.00486375   -0.01064732
     atom   23 type  5   force =    -0.00060318    0.00001573   -0.00005015

     Total force =     2.287605     Total SCF correction =     0.037581

     Molecular Dynamics Calculation

     Starting temperature  =   300.00 K

     temperature is set once at start

     mass Hf               =   178.49
     mass Nb               =    92.91
     mass Ta               =   180.95
     mass Zr               =    91.22
     mass H                =     2.01
     Time step             =     4.20 a.u.,  0.2032 femto-seconds

     Entering Dynamics:    iteration =     1
                           time      =   0.0002 pico-seconds


ATOMIC_POSITIONS (angstrom)
Hf            2.6699999570        2.8271230292        6.6039642186    0   0   0
Hf            1.2529906802        1.2862841814        5.0584662261    0   0   0
Hf            1.2554868986        7.3898042948        5.0880677674    0   0   0
Hf            4.0870092338        1.2862841814        5.0584662261    0   0   0
Hf            4.0845130154        7.3898042948        5.0880677674    0   0   0
Nb            2.6699999570        2.7969306055        3.5155832167    0   0   0
Nb            2.6699999570        5.8763786763        6.6349979432    0   0   0
Ta            1.2093730560        4.3409278516        5.0711258323    0   0   0
Ta            4.1306268580        4.3409278516        5.0711258323    0   0   0
Ta            1.3072516692        1.3141221190        2.0587773084
Ta            1.3027872634        1.3083903424        8.0945809047
Ta            1.3040088030        7.3758268000        2.0462354795
Ta            1.3077100878        7.3650835009        8.0860039002
Ta            4.0327479600        1.3141220070        2.0587774579
Ta            4.0372123795        1.3083903554        8.0945808695
Ta            4.0359910736        7.3758269335        2.0462355912
Ta            4.0322897879        7.3650835706        8.0860038670
Zr            2.6700003835        5.8662869605        3.5273833818
Zr            1.2438260901        4.3220776614        1.9999931987
Zr            1.2403767991        4.3541235608        8.1497623364
Zr            4.0961734643        4.3220775693        1.9999933073
Zr            4.0996226714        4.3541235781        8.1497623371
H             4.7920070994        5.0749917036        5.2691023134


     kinetic energy (Ekin) =           0.91868077 Ry
     temperature           =        6907.05820053 K 
     Ekin + Etot (const)   =       -2941.46101206 Ry

     File outdir/pwscf.msd.dat deleted, as requested

     Writing config-only to output data dir outdir/pwscf.save/
     NEW-OLD atomic charge density approx. for the potential

     Check: negative core charge=   -0.000002

     negative rho (up, down):  9.065E-01 9.065E-01
     Generating pointlists ...
     new r_m :   0.1364 (alat units)  1.8921 (a.u.) for type    1

     total cpu time spent up to now is      560.2 secs

     Self-consistent Calculation

     iteration #  1     ecut=   120.00 Ry     beta= 0.70
     Davidson diagonalization with overlap
     ethr =  1.00E-06,  avg # of iterations =  7.0

     negative rho (up, down):  9.067E-01 9.067E-01

     total cpu time spent up to now is      621.8 secs

     total energy              =   -2942.41480258 Ry
     estimated scf accuracy    <       0.02049519 Ry

     total magnetization       =    -0.01 Bohr mag/cell
     absolute magnetization    =     0.01 Bohr mag/cell

     iteration #  2     ecut=   120.00 Ry     beta= 0.70
     Davidson diagonalization with overlap
     ethr =  7.40E-06,  avg # of iterations =  2.0

     negative rho (up, down):  9.066E-01 9.065E-01

     total cpu time spent up to now is      656.2 secs

     total energy              =   -2942.41610041 Ry
     estimated scf accuracy    <       0.00348589 Ry

     total magnetization       =    -0.01 Bohr mag/cell
     absolute magnetization    =     0.01 Bohr mag/cell

     iteration #  3     ecut=   120.00 Ry     beta= 0.70
     Davidson diagonalization with overlap
     ethr =  1.26E-06,  avg # of iterations =  2.0

     negative rho (up, down):  9.065E-01 9.065E-01

     Magnetic moment per site  (integrated on atomic sphere of radius R)
     atom   1 (R=0.136)  charge=  9.1357   -0.0000
     atom   2 (R=0.136)  charge=  8.7920    0.0000
     atom   3 (R=0.136)  charge=  8.7933   -0.0001
     atom   4 (R=0.136)  charge=  8.7961   -0.0001
     atom   5 (R=0.136)  charge=  8.7828   -0.0000
     atom   6 (R=0.140)  charge= 10.3480   -0.0001
     atom   7 (R=0.140)  charge= 10.3499   -0.0000
     atom   8 (R=0.056)  charge=  1.3415   -0.0000
     atom   9 (R=0.056)  charge=  1.3577    0.0000
     atom  10 (R=0.056)  charge=  1.3391   -0.0000
     atom  11 (R=0.056)  charge=  1.3383   -0.0000
     atom  12 (R=0.056)  charge=  1.3387   -0.0000
     atom  13 (R=0.056)  charge=  1.3385   -0.0000
     atom  14 (R=0.056)  charge=  1.3398    0.0000
     atom  15 (R=0.056)  charge=  1.3399    0.0000
     atom  16 (R=0.056)  charge=  1.3385    0.0000
     atom  17 (R=0.056)  charge=  1.3394   -0.0000
     atom  18 (R=0.141)  charge=  9.4563   -0.0001
     atom  19 (R=0.141)  charge=  8.9957   -0.0005
     atom  20 (R=0.141)  charge=  8.9905   -0.0004
     atom  21 (R=0.141)  charge=  8.9951   -0.0005
     atom  22 (R=0.141)  charge=  8.9941   -0.0003
     atom  23 (R=0.056)  charge=  0.7565    0.0000

     total cpu time spent up to now is      689.9 secs

     End of self-consistent calculation

 ------ SPIN UP ------------


          k = 0.0000 0.0000 0.0000 ( 48454 PWs)   bands (ev):

   -57.8488 -57.8467 -57.8023 -57.8017 -57.7744 -57.7683 -57.7289 -57.7252
   -57.5969 -57.3926 -51.4072 -51.3586 -51.2778 -51.2167 -49.7059 -43.2568
   -43.2417 -38.6376 -38.6191 -38.5362 -38.5351 -36.8119 -25.8838 -24.8633
   -24.8613 -24.7799 -24.7738 -24.6595 -24.6559 -24.5444 -24.5337 -24.3902
   -24.3772 -24.3303 -24.3143 -24.3068 -24.2829 -24.2679 -24.2365 -24.2129
   -24.1977 -24.1286 -24.0357 -24.0258 -24.0250 -24.0237 -23.9709 -23.9644
   -23.9314 -23.9307 -23.6634 -23.6262 -21.1936 -20.9815 -20.6701 -20.5886
   -20.3183 -20.1858 -20.1657 -20.0579 -19.9491 -19.8763 -19.8601 -19.6363
   -19.5143 -19.4544 -19.3939 -19.3462 -19.2804 -19.2303 -18.7832 -18.6980
   -18.6386 -17.1931 -16.8783 -16.8634 -16.8250 -16.6264 -16.6160 -16.6137
   -16.5978 -16.5669 -16.5323 -16.3181 -16.3003 -15.1669 -14.9557 -14.8306
     4.0614   5.0775   5.7935   6.1289   6.2459   6.4652   6.5562   6.5935
     6.6041   6.8094   6.9285   6.9980   7.2155   7.3256   7.5383   7.5792
     7.7147   7.7523   7.9363   8.0242   8.0980   8.1536   8.2281   8.2514
     8.3644   8.4682   8.5538   8.6198   8.6601   8.7078   8.7490   8.7784
     8.8439   9.0114   9.0481   9.1348   9.1810   9.2541   9.2941   9.3064
     9.3707   9.4730   9.6530   9.7536   9.8007   9.9472   9.9635  10.1093
    10.1627  10.1757  10.3063  10.3511  10.3905  10.4244  10.5430  10.5928
    10.6863  10.7609  10.9110  10.9227  11.0165  11.0280  11.1396  11.2167
    11.2627  11.3567  11.3960  11.5777  11.6832  11.7651  11.7991  11.8149
    11.9979  12.1091  12.1527  12.1846  12.1875  12.2075  12.2343

 ------ SPIN DOWN ----------


          k = 0.0000 0.0000 0.0000 ( 48454 PWs)   bands (ev):

   -57.8487 -57.8467 -57.8022 -57.8017 -57.7742 -57.7684 -57.7288 -57.7253
   -57.5970 -57.3925 -51.4073 -51.3586 -51.2778 -51.2167 -49.7058 -43.2568
   -43.2417 -38.6381 -38.6195 -38.5366 -38.5355 -36.8120 -25.8837 -24.8633
   -24.8612 -24.7798 -24.7739 -24.6596 -24.6558 -24.5444 -24.5335 -24.3903
   -24.3772 -24.3304 -24.3143 -24.3068 -24.2829 -24.2679 -24.2366 -24.2128
   -24.1977 -24.1287 -24.0358 -24.0257 -24.0249 -24.0237 -23.9710 -23.9642
   -23.9315 -23.9306 -23.6634 -23.6261 -21.1936 -20.9815 -20.6702 -20.5887
   -20.3183 -20.1859 -20.1658 -20.0580 -19.9492 -19.8763 -19.8602 -19.6364
   -19.5143 -19.4544 -19.3940 -19.3463 -19.2804 -19.2303 -18.7832 -18.6980
   -18.6386 -17.1936 -16.8789 -16.8638 -16.8258 -16.6266 -16.6164 -16.6140
   -16.5983 -16.5673 -16.5326 -16.3188 -16.3008 -15.1670 -14.9557 -14.8307
     4.0613   5.0775   5.7935   6.1289   6.2458   6.4651   6.5562   6.5934
     6.6040   6.8094   6.9285   6.9979   7.2154   7.3256   7.5382   7.5791
     7.7145   7.7522   7.9362   8.0241   8.0979   8.1535   8.2279   8.2513
     8.3644   8.4681   8.5534   8.6194   8.6599   8.7078   8.7490   8.7783
     8.8438   9.0113   9.0480   9.1347   9.1809   9.2539   9.2940   9.3063
     9.3705   9.4729   9.6529   9.7535   9.8006   9.9468   9.9633  10.1091
    10.1626  10.1756  10.3052  10.3504  10.3905  10.4243  10.5428  10.5926
    10.6860  10.7606  10.9107  10.9227  11.0163  11.0279  11.1395  11.2167
    11.2624  11.3567  11.3959  11.5776  11.6830  11.7648  11.7989  11.8146
    11.9978  12.1090  12.1526  12.1846  12.1873  12.2072  12.2342

     the Fermi energy is    10.2711 ev

!    total energy              =   -2942.41605139 Ry
     estimated scf accuracy    <       0.00052729 Ry
     smearing contrib. (-TS)   =      -0.09763525 Ry
     internal energy E=F+TS    =   -2942.31841614 Ry

     total magnetization       =    -0.00 Bohr mag/cell
     absolute magnetization    =     0.01 Bohr mag/cell

     convergence has been achieved in   3 iterations

     negative rho (up, down):  9.065E-01 9.065E-01

     Forces acting on atoms (cartesian axes, Ry/au):

     atom    1 type  1   force =     0.00927582   -0.02392987    0.01148881
     atom    2 type  1   force =    -0.13049440   -0.02439708   -0.00568289
     atom    3 type  1   force =    -0.12932537    0.02209740   -0.00096235
     atom    4 type  1   force =     0.15278511   -0.02513641   -0.00599344
     atom    5 type  1   force =     0.12854030   -0.00702951   -0.00043847
     atom    6 type  2   force =     0.01077046   -0.01447583    0.00336197
     atom    7 type  2   force =    -0.00754151    0.01540924    0.00298825
     atom    8 type  3   force =    -0.14354916    0.00783486    0.00461782
     atom    9 type  3   force =    -1.27123525   -1.56219376   -0.43900588
     atom   10 type  3   force =    -0.03678506   -0.02156567   -0.06075046
     atom   11 type  3   force =    -0.03786747   -0.02968942    0.05971678
     atom   12 type  3   force =    -0.02772809    0.02980051   -0.05485993
     atom   13 type  3   force =    -0.02420917    0.02388213    0.05819827
     atom   14 type  3   force =     0.02607576   -0.02568143   -0.05524628
     atom   15 type  3   force =     0.02789220   -0.02981853    0.05887849
     atom   16 type  3   force =     0.02665372    0.03391190   -0.05110835
     atom   17 type  3   force =     0.02415747    0.02588936    0.05682807
     atom   18 type  4   force =     0.00748398    0.02451575   -0.00951173
     atom   19 type  4   force =    -0.15215545   -0.00667264   -0.11622665
     atom   20 type  4   force =    -0.15395128    0.00295402    0.11841482
     atom   21 type  4   force =     0.14620804   -0.00771382   -0.11347853
     atom   22 type  4   force =     0.14592342    0.00313033    0.11794771
     atom   23 type  5   force =     1.40907594    1.58887845    0.42082397
     The non-local contrib.  to forces
     atom    1 type  1   force =     0.01835284    0.00120948    0.02416738
     atom    2 type  1   force =    -0.24879114   -0.17102845    0.01253370
     atom    3 type  1   force =    -0.24418444    0.16294579   -0.03023689
     atom    4 type  1   force =     0.25213458   -0.17146422    0.01332101
     atom    5 type  1   force =     0.23529442    0.14724335   -0.03073360
     atom    6 type  2   force =    -0.00127598   -0.06875097   -0.06071254
     atom    7 type  2   force =    -0.00393714    0.08908472    0.04840077
     atom    8 type  3   force =    -0.25916720   -0.00110210   -0.00465110
     atom    9 type  3   force =     0.75980779    0.60244021    0.16130778
     atom   10 type  3   force =    -0.24850602   -0.00379199   -0.23123387
     atom   11 type  3   force =    -0.24896742    0.01033223    0.21452351
     atom   12 type  3   force =    -0.22543005   -0.02211695   -0.19071510
     atom   13 type  3   force =    -0.23143023   -0.00759353    0.21490275
     atom   14 type  3   force =     0.22978630    0.00282591   -0.21955291
     atom   15 type  3   force =     0.23604455    0.01188628    0.21752462
     atom   16 type  3   force =     0.22315819   -0.02297750   -0.18542190
     atom   17 type  3   force =     0.23401565   -0.00943602    0.21719995
     atom   18 type  4   force =    -0.00441021    0.08821781   -0.04151905
     atom   19 type  4   force =     0.07777885    0.00345873    0.05910316
     atom   20 type  4   force =     0.07498952    0.00038258   -0.05379578
     atom   21 type  4   force =    -0.07079266    0.00333524    0.05223326
     atom   22 type  4   force =    -0.06373457    0.00219880   -0.03810777
     atom   23 type  5   force =    -0.12737245   -0.14666480   -0.04417643
     The ionic contribution  to forces
     atom    1 type  1   force =    -0.24295067   -4.93161970   15.00821638
     atom    2 type  1   force =   -27.83367135   -6.24600595    0.76369102
     atom    3 type  1   force =   -27.84758403    6.38204097   -0.74086619
     atom    4 type  1   force =    27.75454493   -6.35642661    0.75207886
     atom    5 type  1   force =    27.52708150    7.13089025   -0.80077240
     atom    6 type  2   force =    -0.20734668   -3.84621071  -15.01276421
     atom    7 type  2   force =    -0.64727296    3.88939641   15.30224183
     atom    8 type  3   force =   -38.69936175   -0.07981133   -0.11427356
     atom    9 type  3   force =    34.00162450   -5.11871922   -1.47387850
     atom   10 type  3   force =   -24.85149382   -2.12409753  -24.61593943
     atom   11 type  3   force =   -23.92559337   -0.86407791   23.62475176
     atom   12 type  3   force =   -24.05258710    0.86527534  -23.70407604
     atom   13 type  3   force =   -24.84062955    2.29178514   24.66525888
     atom   14 type  3   force =    24.81713700   -2.14862745  -24.66148061
     atom   15 type  3   force =    23.88430138   -0.89743963   23.67907424
     atom   16 type  3   force =    23.98705860    0.94806928  -23.82359996
     atom   17 type  3   force =    24.75074727    2.41710219   24.82628160
     atom   18 type  4   force =    -0.45191815    4.58336459  -15.13123952
     atom   19 type  4   force =   -25.11445044    0.92488818  -27.13288756
     atom   20 type  4   force =   -25.07485552   -1.02774237   27.14536768
     atom   21 type  4   force =    25.01825253    0.86664873  -27.37999175
     atom   22 type  4   force =    24.93117425   -1.12120190   27.51715426
     atom   23 type  5   force =     7.11779344    4.46251923    1.30765323
     The local contribution  to forces
     atom    1 type  1   force =     0.23358338    4.89119634  -15.02857838
     atom    2 type  1   force =    27.96093431    6.38228997   -0.79740936
     atom    3 type  1   force =    27.97135168   -6.51117962    0.75568785
     atom    4 type  1   force =   -27.86384715    6.49435331   -0.78521492
     atom    5 type  1   force =   -27.63689216   -7.28215450    0.81796959
     atom    6 type  2   force =     0.21918235    3.87679153   15.06371439
     atom    7 type  2   force =     0.64561684   -3.94745195  -15.36231500
     atom    8 type  3   force =    38.84855075    0.08564739    0.10986754
     atom    9 type  3   force =   -36.09201414    2.93714417    0.85460836
     atom   10 type  3   force =    25.09039701    2.07469161   24.81248210
     atom   11 type  3   force =    24.16061547    0.80271116  -23.79852657
     atom   12 type  3   force =    24.27745718   -0.77825955   23.86857216
     atom   13 type  3   force =    25.06893264   -2.23346415  -24.84457020
     atom   14 type  3   force =   -25.04971595    2.09084703   24.85207645
     atom   15 type  3   force =   -24.11594899    0.83473596  -23.85904277
     atom   16 type  3   force =   -24.21257985   -0.85860819   23.98501348
     atom   17 type  3   force =   -24.98216784   -2.35565666  -25.00937147
     atom   18 type  4   force =     0.46489648   -4.62253318   15.15264654
     atom   19 type  4   force =    24.89332724   -0.93775838   26.97813412
     atom   20 type  4   force =    24.85140703    1.02542950  -26.98898264
     atom   21 type  4   force =   -24.81036544   -0.88046521   27.23703587
     atom   22 type  4   force =   -24.72710841    1.11652034  -27.37846580
     atom   23 type  5   force =    -5.58431741   -2.72409094   -0.84418716
     The core correction contribution to forces
     atom    1 type  1   force =     0.00172270    0.00478473   -0.00209672
     atom    2 type  1   force =    -0.01139606   -0.00190466    0.00107114
     atom    3 type  1   force =    -0.01152448    0.00256537   -0.00190004
     atom    4 type  1   force =     0.01234891   -0.00252220    0.00091794
     atom    5 type  1   force =     0.00605773    0.00580700   -0.00212624
     atom    6 type  2   force =     0.00079981    0.00406088    0.00338420
     atom    7 type  2   force =     0.00027603   -0.00440065   -0.00163874
     atom    8 type  3   force =    -0.03053593    0.00057299    0.00040082
     atom    9 type  3   force =     0.04355287    0.02452595    0.00735900
     atom   10 type  3   force =    -0.02682096    0.00538302   -0.01738725
     atom   11 type  3   force =    -0.02797852    0.00729052    0.01691303
     atom   12 type  3   force =    -0.02509592   -0.00747447   -0.01473533
     atom   13 type  3   force =    -0.02507339   -0.00604103    0.01571167
     atom   14 type  3   force =     0.02551591    0.00558579   -0.01736498
     atom   15 type  3   force =     0.02658355    0.00781040    0.01777997
     atom   16 type  3   force =     0.02458398   -0.00713457   -0.01380359
     atom   17 type  3   force =     0.02455729   -0.00469930    0.01550293
     atom   18 type  4   force =     0.00044375   -0.00477856    0.00191853
     atom   19 type  4   force =    -0.01051742    0.00037418   -0.00866985
     atom   20 type  4   force =    -0.01043930   -0.00045346    0.00850407
     atom   21 type  4   force =     0.01005861    0.00032470   -0.00811160
     atom   22 type  4   force =     0.00976171   -0.00066448    0.00738212
     atom   23 type  5   force =     0.00000000    0.00000000    0.00000000
     The Hubbard contrib.    to forces
     atom    1 type  1   force =     0.00000000    0.00000000    0.00000000
     atom    2 type  1   force =     0.00000000    0.00000000    0.00000000
     atom    3 type  1   force =     0.00000000    0.00000000    0.00000000
     atom    4 type  1   force =     0.00000000    0.00000000    0.00000000
     atom    5 type  1   force =     0.00000000    0.00000000    0.00000000
     atom    6 type  2   force =     0.00000000    0.00000000    0.00000000
     atom    7 type  2   force =     0.00000000    0.00000000    0.00000000
     atom    8 type  3   force =     0.00000000    0.00000000    0.00000000
     atom    9 type  3   force =     0.00000000    0.00000000    0.00000000
     atom   10 type  3   force =     0.00000000    0.00000000    0.00000000
     atom   11 type  3   force =     0.00000000    0.00000000    0.00000000
     atom   12 type  3   force =     0.00000000    0.00000000    0.00000000
     atom   13 type  3   force =     0.00000000    0.00000000    0.00000000
     atom   14 type  3   force =     0.00000000    0.00000000    0.00000000
     atom   15 type  3   force =     0.00000000    0.00000000    0.00000000
     atom   16 type  3   force =     0.00000000    0.00000000    0.00000000
     atom   17 type  3   force =     0.00000000    0.00000000    0.00000000
     atom   18 type  4   force =     0.00000000    0.00000000    0.00000000
     atom   19 type  4   force =     0.00000000    0.00000000    0.00000000
     atom   20 type  4   force =     0.00000000    0.00000000    0.00000000
     atom   21 type  4   force =     0.00000000    0.00000000    0.00000000
     atom   22 type  4   force =     0.00000000    0.00000000    0.00000000
     atom   23 type  5   force =     0.00000000    0.00000000    0.00000000
     The SCF correction term to forces
     atom    1 type  1   force =    -0.00000000    0.00000000    0.00000000
     atom    2 type  1   force =     0.00000000    0.00000000    0.00000000
     atom    3 type  1   force =     0.00000000   -0.00000000    0.00000000
     atom    4 type  1   force =    -0.00000000    0.00000000    0.00000000
     atom    5 type  1   force =    -0.00000000   -0.00000000    0.00000000
     atom    6 type  2   force =    -0.00000000    0.00000000    0.00000000
     atom    7 type  2   force =    -0.00000000   -0.00000000    0.00000000
     atom    8 type  3   force =    -0.00000000    0.00000000    0.00000000
     atom    9 type  3   force =     0.00000000   -0.00000000    0.00000000
     atom   10 type  3   force =    -0.00052575    0.02630858   -0.00965077
     atom   11 type  3   force =     0.00389190    0.01411395    0.00107629
     atom   12 type  3   force =    -0.00223667   -0.02756450   -0.01488437
     atom   13 type  3   force =     0.00382688   -0.02074494    0.00591641
     atom   14 type  3   force =     0.00318804    0.02374667   -0.00990299
     atom   15 type  3   force =    -0.00325275    0.01324782    0.00256368
     atom   16 type  3   force =     0.00426832   -0.02537775   -0.01427513
     atom   17 type  3   force =    -0.00315937   -0.02136149    0.00623630
     atom   18 type  4   force =    -0.00169235   -0.01969553    0.00770302
     atom   19 type  4   force =     0.00154184    0.00242402   -0.01288527
     atom   20 type  4   force =     0.00478252    0.00539714    0.00634272
     atom   21 type  4   force =    -0.00110947    0.00250210   -0.01562307
     atom   22 type  4   force =    -0.00433405    0.00633696    0.00900614
     atom   23 type  5   force =     0.00280789   -0.00282568    0.00055558

     Total force =     2.207015     Total SCF correction =     0.076340

     Entering Dynamics:    iteration =     2
                           time      =   0.0004 pico-seconds


ATOMIC_POSITIONS (angstrom)
Hf            2.6699999570        2.8271230292        6.6039642186    0   0   0
Hf            1.2529906802        1.2862841814        5.0584662261    0   0   0
Hf            1.2554868986        7.3898042948        5.0880677674    0   0   0
Hf            4.0870092338        1.2862841814        5.0584662261    0   0   0
Hf            4.0845130154        7.3898042948        5.0880677674    0   0   0
Nb            2.6699999570        2.7969306055        3.5155832167    0   0   0
Nb            2.6699999570        5.8763786763        6.6349979432    0   0   0
Ta            1.2093730560        4.3409278516        5.0711258323    0   0   0
Ta            4.1306268580        4.3409278516        5.0711258323    0   0   0
Ta            1.3072485722        1.3141204279        2.0587720681
Ta            1.3027840693        1.3083878685        8.0945859870
Ta            1.3040064144        7.3758291626        2.0462306742
Ta            1.3077080069        7.3650854052        8.0860088735
Ta            4.0327501661        1.3141199710        2.0587726788
Ta            4.0372147379        1.3083878870        8.0945858690
Ta            4.0359933639        7.3758296623        2.0462311098
Ta            4.0322918276        7.3650856581        8.0860087296
Zr            2.6700016502        5.8662908299        3.5273817653
Zr            1.2438004788        4.3220766093        1.9999733487
Zr            1.2403509015        4.3541241688        8.1497824179
Zr            4.0961980482        4.3220763081        1.9999738744
Zr            4.0996472243        4.3541242231        8.1497823667
H             4.7534460272        5.1350505589        5.2851521146


     kinetic energy (Ekin) =           0.95480150 Ry
     temperature           =        7178.63016551 K 
     Ekin + Etot (const)   =       -2941.46124989 Ry

     Writing config-only to output data dir outdir/pwscf.save/
     NEW-OLD atomic charge density approx. for the potential

     Check: negative core charge=   -0.000002

     negative rho (up, down):  9.066E-01 9.066E-01
     Generating pointlists ...
     new r_m :   0.1326 (alat units)  1.8398 (a.u.) for type    1

     total cpu time spent up to now is      712.9 secs

     Self-consistent Calculation

     iteration #  1     ecut=   120.00 Ry     beta= 0.70
     Davidson diagonalization with overlap
     ethr =  1.00E-06,  avg # of iterations = 12.5

     negative rho (up, down):  9.062E-01 9.062E-01

     total cpu time spent up to now is      780.8 secs

     total energy              =   -2942.49967851 Ry
     estimated scf accuracy    <       0.12084786 Ry

     total magnetization       =    -0.00 Bohr mag/cell
     absolute magnetization    =     0.01 Bohr mag/cell

     iteration #  2     ecut=   120.00 Ry     beta= 0.70
     Davidson diagonalization with overlap
     ethr =  4.36E-05,  avg # of iterations =  2.0

     negative rho (up, down):  9.065E-01 9.065E-01

     total cpu time spent up to now is      814.0 secs

     total energy              =   -2942.50737082 Ry
     estimated scf accuracy    <       0.04485519 Ry

     total magnetization       =    -0.00 Bohr mag/cell
     absolute magnetization    =     0.01 Bohr mag/cell

     iteration #  3     ecut=   120.00 Ry     beta= 0.70
     Davidson diagonalization with overlap
     ethr =  1.62E-05,  avg # of iterations =  1.0

     negative rho (up, down):  9.066E-01 9.066E-01

     total cpu time spent up to now is      844.2 secs

     total energy              =   -2942.51009936 Ry
     estimated scf accuracy    <       0.00198782 Ry

     total magnetization       =    -0.00 Bohr mag/cell
     absolute magnetization    =     0.01 Bohr mag/cell

     iteration #  4     ecut=   120.00 Ry     beta= 0.70
     Davidson diagonalization with overlap
     ethr =  7.18E-07,  avg # of iterations =  2.0

     negative rho (up, down):  9.066E-01 9.066E-01

     Magnetic moment per site  (integrated on atomic sphere of radius R)
     atom   1 (R=0.133)  charge=  8.9159   -0.0000
     atom   2 (R=0.133)  charge=  8.6098   -0.0000
     atom   3 (R=0.133)  charge=  8.6114   -0.0000
     atom   4 (R=0.133)  charge=  8.6150   -0.0000
     atom   5 (R=0.133)  charge=  8.6012   -0.0000
     atom   6 (R=0.140)  charge= 10.3491   -0.0000
     atom   7 (R=0.140)  charge= 10.3521   -0.0000
     atom   8 (R=0.056)  charge=  1.3418   -0.0000
     atom   9 (R=0.056)  charge=  1.3569    0.0000
     atom  10 (R=0.056)  charge=  1.3387   -0.0000
     atom  11 (R=0.056)  charge=  1.3382   -0.0000
     atom  12 (R=0.056)  charge=  1.3380   -0.0000
     atom  13 (R=0.056)  charge=  1.3384   -0.0000
     atom  14 (R=0.056)  charge=  1.3394    0.0000
     atom  15 (R=0.056)  charge=  1.3398    0.0000
     atom  16 (R=0.056)  charge=  1.3379    0.0000
     atom  17 (R=0.056)  charge=  1.3393   -0.0000
     atom  18 (R=0.141)  charge=  9.4578   -0.0000
     atom  19 (R=0.141)  charge=  8.9987   -0.0004
     atom  20 (R=0.141)  charge=  8.9968   -0.0003
     atom  21 (R=0.141)  charge=  8.9979   -0.0003
     atom  22 (R=0.141)  charge=  9.0024   -0.0002
     atom  23 (R=0.056)  charge=  0.7250    0.0000

     total cpu time spent up to now is      880.2 secs

     End of self-consistent calculation

 ------ SPIN UP ------------


          k = 0.0000 0.0000 0.0000 ( 48454 PWs)   bands (ev):

   -57.8415 -57.8289 -57.7953 -57.7819 -57.7608 -57.7523 -57.7179 -57.7059
   -57.5977 -57.3088 -51.4192 -51.3718 -51.2883 -51.2229 -49.7024 -43.2572
   -43.2407 -38.6354 -38.6241 -38.5407 -38.5338 -36.8171 -25.6706 -24.8578
   -24.8422 -24.7689 -24.7596 -24.6540 -24.6365 -24.5353 -24.5121 -24.3833
   -24.3633 -24.3252 -24.3029 -24.2930 -24.2745 -24.2539 -24.2307 -24.1944
   -24.1882 -24.1312 -24.0304 -24.0178 -24.0062 -24.0050 -23.9655 -23.9440
   -23.9236 -23.9093 -23.6496 -23.6174 -21.1997 -20.9882 -20.6750 -20.5952
   -20.3249 -20.1958 -20.1732 -20.0644 -19.9552 -19.8852 -19.8658 -19.6434
   -19.5115 -19.4536 -19.3973 -19.3499 -19.2840 -19.2330 -18.7808 -18.6969
   -18.6352 -17.1928 -16.8843 -16.8626 -16.8252 -16.6318 -16.6188 -16.6145
   -16.5981 -16.5724 -16.5384 -16.3172 -16.3061 -15.1702 -14.9592 -14.8352
     4.0058   5.0243   5.8033   6.1313   6.2482   6.4702   6.5556   6.5977
     6.6088   6.8054   6.9358   7.0151   7.2130   7.3377   7.5439   7.5846
     7.7195   7.7677   7.9419   8.0279   8.1051   8.1570   8.2297   8.2596
     8.3690   8.4727   8.5546   8.6135   8.6625   8.6983   8.7410   8.7956
     8.8443   9.0195   9.0465   9.1384   9.1858   9.2591   9.3051   9.3130
     9.3696   9.4810   9.6603   9.7463   9.8031   9.9373   9.9643  10.1135
    10.1654  10.1813  10.3009  10.3479  10.3954  10.4339  10.5484  10.5928
    10.6863  10.7652  10.9143  10.9232  11.0171  11.0387  11.1431  11.2223
    11.2631  11.3683  11.4007  11.5758  11.6825  11.7665  11.8044  11.8156
    11.9995  12.0979  12.1512  12.1873  12.1911  12.2126  12.2379

 ------ SPIN DOWN ----------


          k = 0.0000 0.0000 0.0000 ( 48454 PWs)   bands (ev):

   -57.8415 -57.8289 -57.7953 -57.7819 -57.7609 -57.7523 -57.7179 -57.7059
   -57.5977 -57.3088 -51.4193 -51.3718 -51.2883 -51.2229 -49.7024 -43.2573
   -43.2408 -38.6357 -38.6243 -38.5409 -38.5342 -36.8171 -25.6706 -24.8578
   -24.8421 -24.7689 -24.7596 -24.6541 -24.6365 -24.5353 -24.5120 -24.3833
   -24.3633 -24.3252 -24.3029 -24.2930 -24.2745 -24.2539 -24.2308 -24.1944
   -24.1882 -24.1313 -24.0304 -24.0178 -24.0061 -24.0050 -23.9655 -23.9440
   -23.9236 -23.9092 -23.6496 -23.6174 -21.1997 -20.9883 -20.6750 -20.5953
   -20.3249 -20.1958 -20.1732 -20.0644 -19.9553 -19.8852 -19.8659 -19.6434
   -19.5115 -19.4536 -19.3974 -19.3499 -19.2840 -19.2330 -18.7808 -18.6969
   -18.6353 -17.1931 -16.8847 -16.8628 -16.8257 -16.6319 -16.6190 -16.6148
   -16.5984 -16.5727 -16.5386 -16.3177 -16.3065 -15.1702 -14.9592 -14.8352
     4.0058   5.0243   5.8033   6.1312   6.2481   6.4701   6.5555   6.5977
     6.6087   6.8054   6.9358   7.0150   7.2129   7.3377   7.5438   7.5846
     7.7193   7.7677   7.9419   8.0278   8.1050   8.1569   8.2295   8.2596
     8.3689   8.4726   8.5544   8.6132   8.6624   8.6982   8.7410   8.7956
     8.8443   9.0195   9.0465   9.1383   9.1857   9.2590   9.3050   9.3130
     9.3695   9.4809   9.6601   9.7462   9.8030   9.9371   9.9642  10.1134
    10.1653  10.1812  10.3001  10.3473  10.3953  10.4339  10.5483  10.5927
    10.6862  10.7650  10.9141  10.9231  11.0170  11.0387  11.1430  11.2223
    11.2629  11.3683  11.4006  11.5757  11.6825  11.7662  11.8043  11.8154
    11.9993  12.0978  12.1511  12.1873  12.1915  12.2117  12.2378

     the Fermi energy is    10.2728 ev

!    total energy              =   -2942.50944075 Ry
     estimated scf accuracy    <       0.00090963 Ry
     smearing contrib. (-TS)   =      -0.09719583 Ry
     internal energy E=F+TS    =   -2942.41224492 Ry

     total magnetization       =    -0.00 Bohr mag/cell
     absolute magnetization    =     0.01 Bohr mag/cell

     convergence has been achieved in   4 iterations

     negative rho (up, down):  9.066E-01 9.066E-01

     Forces acting on atoms (cartesian axes, Ry/au):

     atom    1 type  1   force =     0.00639014   -0.01318685    0.01601107
     atom    2 type  1   force =    -0.12922585   -0.01403343    0.00386318
     atom    3 type  1   force =    -0.12804593    0.00988035    0.01018647
     atom    4 type  1   force =     0.15319530   -0.01634500    0.00273734
     atom    5 type  1   force =     0.12529007   -0.01974349    0.00947041
     atom    6 type  2   force =     0.00901243   -0.01296898    0.00117082
     atom    7 type  2   force =    -0.01100723    0.01344092    0.00301360
     atom    8 type  3   force =    -0.14212489    0.00814671    0.00574551
     atom    9 type  3   force =    -1.02937395   -1.46817255   -0.41617161
     atom   10 type  3   force =    -0.03780289   -0.01100221   -0.06579522
     atom   11 type  3   force =    -0.03863873   -0.02373469    0.05711123
     atom   12 type  3   force =    -0.02876898    0.01913259   -0.06182975
     atom   13 type  3   force =    -0.02328837    0.01713386    0.05794198
     atom   14 type  3   force =     0.02791522   -0.01678791   -0.06105164
     atom   15 type  3   force =     0.02814673   -0.02472404    0.05774003
     atom   16 type  3   force =     0.02844661    0.02393609   -0.05799820
     atom   17 type  3   force =     0.02406599    0.01794655    0.05653339
     atom   18 type  4   force =     0.00514147    0.01527645   -0.00973971
     atom   19 type  4   force =    -0.15017838   -0.00633606   -0.12215651
     atom   20 type  4   force =    -0.15241118    0.00465055    0.11884886
     atom   21 type  4   force =     0.14460139   -0.00672652   -0.12137045
     atom   22 type  4   force =     0.14420401    0.00500981    0.12032034
     atom   23 type  5   force =     1.17445700    1.49920786    0.39541886
     The non-local contrib.  to forces
     atom    1 type  1   force =     0.01649656    0.00558622    0.02881276
     atom    2 type  1   force =    -0.24758850   -0.16579010    0.01853784
     atom    3 type  1   force =    -0.24317531    0.15645253   -0.02276890
     atom    4 type  1   force =     0.25078839   -0.16543173    0.01867877
     atom    5 type  1   force =     0.23230925    0.13578955   -0.02323007
     atom    6 type  2   force =    -0.00162361   -0.06635370   -0.05764161
     atom    7 type  2   force =    -0.00130978    0.08746925    0.05084807
     atom    8 type  3   force =    -0.25955745    0.00067934   -0.00063764
     atom    9 type  3   force =     0.66169028    0.57678963    0.15620986
     atom   10 type  3   force =    -0.25052545    0.00495217   -0.23347453
     atom   11 type  3   force =    -0.24998412    0.01589882    0.21358468
     atom   12 type  3   force =    -0.22788857   -0.03091399   -0.19597066
     atom   13 type  3   force =    -0.23149598   -0.01342251    0.21667132
     atom   14 type  3   force =     0.23447047    0.00914593   -0.22220990
     atom   15 type  3   force =     0.23734076    0.01545074    0.21834869
     atom   16 type  3   force =     0.22604349   -0.03020450   -0.18946974
     atom   17 type  3   force =     0.23433584   -0.01526464    0.21862967
     atom   18 type  4   force =    -0.00380472    0.08090372   -0.03862356
     atom   19 type  4   force =     0.07733846    0.00428789    0.05452669
     atom   20 type  4   force =     0.07481760    0.00116903   -0.05058926
     atom   21 type  4   force =    -0.07157102    0.00407804    0.04672459
     atom   22 type  4   force =    -0.06396077    0.00398300   -0.03383955
     atom   23 type  5   force =    -0.11395214   -0.15432026   -0.04681384
     The ionic contribution  to forces
     atom    1 type  1   force =    -0.23762119   -4.93346405   15.00316819
     atom    2 type  1   force =   -27.83653228   -6.23795101    0.76241847
     atom    3 type  1   force =   -27.85750401    6.38553228   -0.74375350
     atom    4 type  1   force =    27.75968318   -6.33622068    0.75035509
     atom    5 type  1   force =    27.51591161    7.19935348   -0.81627984
     atom    6 type  2   force =    -0.19994213   -3.84345534  -15.00930871
     atom    7 type  2   force =    -0.68997234    3.88577206   15.33075878
     atom    8 type  3   force =   -38.71905886   -0.09070463   -0.11773415
     atom    9 type  3   force =    34.57373983   -5.15850057   -1.48423915
     atom   10 type  3   force =   -24.85249548   -2.11993890  -24.61420098
     atom   11 type  3   force =   -23.92697251   -0.85975426   23.62393440
     atom   12 type  3   force =   -24.05511177    0.86530718  -23.70562889
     atom   13 type  3   force =   -24.84439592    2.29364822   24.66916820
     atom   14 type  3   force =    24.81874652   -2.14181054  -24.65859324
     atom   15 type  3   force =    23.88586939   -0.89022472   23.67754251
     atom   16 type  3   force =    23.98815552    0.94936354  -23.82999783
     atom   17 type  3   force =    24.75000040    2.42580200   24.84167235
     atom   18 type  4   force =    -0.46649467    4.57421798  -15.15341126
     atom   19 type  4   force =   -25.11717236    0.92171798  -27.12955121
     atom   20 type  4   force =   -25.07928137   -1.03258915   27.14450260
     atom   21 type  4   force =    25.02399499    0.86054789  -27.37087067
     atom   22 type  4   force =    24.93629128   -1.13515832   27.51933449
     atom   23 type  5   force =     6.63016217    4.41850956    1.31071436
     The local contribution  to forces
     atom    1 type  1   force =     0.22417913    4.93413170  -15.00404098
     atom    2 type  1   force =    27.96830377    6.40830825   -0.75755868
     atom    3 type  1   force =    27.98579779   -6.55418544    0.80094610
     atom    4 type  1   force =   -27.87176095    6.49963154   -0.74731376
     atom    5 type  1   force =   -27.62904731   -7.37637816    0.87252987
     atom    6 type  2   force =     0.20667406    3.92905683   15.08067770
     atom    7 type  2   force =     0.67808977   -3.98085888  -15.36055340
     atom    8 type  3   force =    38.86453400    0.10078091    0.14202240
     atom    9 type  3   force =   -36.30534797    3.09726120    0.92558184
     atom   10 type  3   force =    25.09254989    2.13838394   24.79450912
     atom   11 type  3   force =    24.16390017    0.83665634  -23.80165280
     atom   12 type  3   force =    24.27947335   -0.84813831   23.84760077
     atom   13 type  3   force =    25.07541126   -2.28799606  -24.84637598
     atom   14 type  3   force =   -25.04901255    2.14660986   24.83174734
     atom   15 type  3   force =   -24.11867124    0.86695266  -23.85944848
     atom   16 type  3   force =   -24.20761375   -0.92570241   23.96789218
     atom   17 type  3   force =   -24.98189131   -2.41990978  -25.02083823
     atom   18 type  4   force =     0.47290616   -4.66700666   15.19665218
     atom   19 type  4   force =    24.90559814   -0.93065282   26.95214062
     atom   20 type  4   force =    24.86462309    1.04184580  -26.97952038
     atom   21 type  4   force =   -24.82336665   -0.86926940   27.19662672
     atom   22 type  4   force =   -24.73968149    1.14225779  -27.36463303
     atom   23 type  5   force =    -5.34209480   -2.76471331   -0.86520000
     The core correction contribution to forces
     atom    1 type  1   force =     0.00152460    0.00457145   -0.00168518
     atom    2 type  1   force =    -0.01126078   -0.00166273    0.00110215
     atom    3 type  1   force =    -0.01141360    0.00253341   -0.00171720
     atom    4 type  1   force =     0.01246857   -0.00222491    0.00071475
     atom    5 type  1   force =     0.00528408    0.00587933   -0.00201975
     atom    6 type  2   force =     0.00077568    0.00392791    0.00321005
     atom    7 type  2   force =     0.00015444   -0.00433395   -0.00170150
     atom    8 type  3   force =    -0.03040247    0.00061174    0.00033637
     atom    9 type  3   force =     0.03659982    0.02141099    0.00623652
     atom   10 type  3   force =    -0.02720534    0.00541865   -0.01751976
     atom   11 type  3   force =    -0.02817692    0.00737042    0.01686059
     atom   12 type  3   force =    -0.02531254   -0.00737462   -0.01499919
     atom   13 type  3   force =    -0.02498515   -0.00608837    0.01576956
     atom   14 type  3   force =     0.02583567    0.00552212   -0.01759188
     atom   15 type  3   force =     0.02658859    0.00776123    0.01790837
     atom   16 type  3   force =     0.02486292   -0.00706057   -0.01401275
     atom   17 type  3   force =     0.02465853   -0.00461963    0.01548862
     atom   18 type  4   force =     0.00035318   -0.00472481    0.00188339
     atom   19 type  4   force =    -0.01043697    0.00035934   -0.00857264
     atom   20 type  4   force =    -0.01040309   -0.00043537    0.00840614
     atom   21 type  4   force =     0.01005452    0.00031642   -0.00803422
     atom   22 type  4   force =     0.00977228   -0.00067480    0.00728828
     atom   23 type  5   force =     0.00000000    0.00000000    0.00000000
     The Hubbard contrib.    to forces
     atom    1 type  1   force =     0.00000000    0.00000000    0.00000000
     atom    2 type  1   force =     0.00000000    0.00000000    0.00000000
     atom    3 type  1   force =     0.00000000    0.00000000    0.00000000
     atom    4 type  1   force =     0.00000000    0.00000000    0.00000000
     atom    5 type  1   force =     0.00000000    0.00000000    0.00000000
     atom    6 type  2   force =     0.00000000    0.00000000    0.00000000
     atom    7 type  2   force =     0.00000000    0.00000000    0.00000000
     atom    8 type  3   force =     0.00000000    0.00000000    0.00000000
     atom    9 type  3   force =     0.00000000    0.00000000    0.00000000
     atom   10 type  3   force =     0.00000000    0.00000000    0.00000000
     atom   11 type  3   force =     0.00000000    0.00000000    0.00000000
     atom   12 type  3   force =     0.00000000    0.00000000    0.00000000
     atom   13 type  3   force =     0.00000000    0.00000000    0.00000000
     atom   14 type  3   force =     0.00000000    0.00000000    0.00000000
     atom   15 type  3   force =     0.00000000    0.00000000    0.00000000
     atom   16 type  3   force =     0.00000000    0.00000000    0.00000000
     atom   17 type  3   force =     0.00000000    0.00000000    0.00000000
     atom   18 type  4   force =     0.00000000    0.00000000    0.00000000
     atom   19 type  4   force =     0.00000000    0.00000000    0.00000000
     atom   20 type  4   force =     0.00000000    0.00000000    0.00000000
     atom   21 type  4   force =     0.00000000    0.00000000    0.00000000
     atom   22 type  4   force =     0.00000000    0.00000000    0.00000000
     atom   23 type  5   force =     0.00000000    0.00000000    0.00000000
     The SCF correction term to forces
     atom    1 type  1   force =     0.00000000   -0.00000000   -0.00000000
     atom    2 type  1   force =    -0.00000000   -0.00000000   -0.00000000
     atom    3 type  1   force =    -0.00000000    0.00000000   -0.00000000
     atom    4 type  1   force =     0.00000000   -0.00000000   -0.00000000
     atom    5 type  1   force =     0.00000000    0.00000000   -0.00000000
     atom    6 type  2   force =     0.00000000   -0.00000000   -0.00000000
     atom    7 type  2   force =     0.00000000    0.00000000   -0.00000000
     atom    8 type  3   force =     0.00000000   -0.00000000   -0.00000000
     atom    9 type  3   force =     0.00000000   -0.00000000   -0.00000000
     atom   10 type  3   force =    -0.00017964   -0.03967645    0.00622994
     atom   11 type  3   force =     0.00254153   -0.02376439    0.00572337
     atom   12 type  3   force =     0.00001742    0.04039394    0.00850722
     atom   13 type  3   force =     0.00212429    0.03113421    0.00404789
     atom   14 type  3   force =    -0.00217801   -0.03611366    0.00693505
     atom   15 type  3   force =    -0.00303391   -0.02452234    0.00472795
     atom   16 type  3   force =    -0.00305468    0.03768164    0.00892895
     atom   17 type  3   force =    -0.00309059    0.03208022    0.00291999
     atom   18 type  4   force =     0.00212840    0.03202783   -0.01490144
     atom   19 type  4   force =    -0.00555879   -0.00190683    0.01063903
     atom   20 type  4   force =    -0.00222054   -0.00519814   -0.00261122
     atom   21 type  4   force =     0.00543643   -0.00225786    0.01552215
     atom   22 type  4   force =     0.00172957   -0.00525623   -0.00649085
     atom   23 type  5   force =     0.00028864   -0.00012651   -0.00194264

     Total force =     1.992068     Total SCF correction =     0.106059

     Entering Dynamics:    iteration =     3
                           time      =   0.0006 pico-seconds


ATOMIC_POSITIONS (angstrom)
Hf            2.6699999570        2.8271230292        6.6039642186    0   0   0
Hf            1.2529906802        1.2862841814        5.0584662261    0   0   0
Hf            1.2554868986        7.3898042948        5.0880677674    0   0   0
Hf            4.0870092338        1.2862841814        5.0584662261    0   0   0
Hf            4.0845130154        7.3898042948        5.0880677674    0   0   0
Nb            2.6699999570        2.7969306055        3.5155832167    0   0   0
Nb            2.6699999570        5.8763786763        6.6349979432    0   0   0
Ta            1.2093730560        4.3409278516        5.0711258323    0   0   0
Ta            4.1306268580        4.3409278516        5.0711258323    0   0   0
Ta            1.3072433356        1.3141181141        2.0587631039
Ta            1.3027786882        1.3083840511        8.0945943018
Ta            1.3040023976        7.3758326080        2.0462223693
Ta            1.3077046080        7.3650882793        8.0860171264
Ta            4.0327539521        1.3141169848        2.0587644442
Ta            4.0372186895        1.3083840193        8.0945941367
Ta            4.0359972643        7.3758337459        2.0462233457
Ta            4.0322952294        7.3650887614        8.0860167921
Zr            2.6700034941        5.8662964144        3.5273790554
Zr            1.2437580071        4.3220748457        1.9999397843
Zr            1.2403078929        4.3541252989        8.1498158424
Zr            4.0962388665        4.3220742917        1.9999408154
Zr            4.0996879668        4.3541254305        8.1498159046
H             4.7208573328        5.2027332229        5.3032127094


     kinetic energy (Ekin) =           1.04725667 Ry
     temperature           =        7873.75002788 K 
     Ekin + Etot (const)   =       -2941.46218408 Ry

     Writing config-only to output data dir outdir/pwscf.save/
     NEW-OLD atomic charge density approx. for the potential

     Check: negative core charge=   -0.000002

     negative rho (up, down):  9.067E-01 9.067E-01
     Generating pointlists ...
     new r_m :   0.1286 (alat units)  1.7834 (a.u.) for type    1

     total cpu time spent up to now is      901.0 secs

     Self-consistent Calculation

     iteration #  1     ecut=   120.00 Ry     beta= 0.70
     Davidson diagonalization with overlap
     ethr =  1.00E-06,  avg # of iterations = 15.5

     negative rho (up, down):  9.072E-01 9.072E-01

     total cpu time spent up to now is      974.7 secs

     total energy              =   -2942.61078970 Ry
     estimated scf accuracy    <       0.31067087 Ry

     total magnetization       =    -0.00 Bohr mag/cell
     absolute magnetization    =     0.01 Bohr mag/cell

     iteration #  2     ecut=   120.00 Ry     beta= 0.70
     Davidson diagonalization with overlap
     ethr =  1.12E-04,  avg # of iterations =  2.0

     negative rho (up, down):  9.067E-01 9.067E-01

     total cpu time spent up to now is     1008.3 secs

     total energy              =   -2942.63183781 Ry
     estimated scf accuracy    <       0.10858648 Ry

     total magnetization       =    -0.00 Bohr mag/cell
     absolute magnetization    =     0.01 Bohr mag/cell

[...]
   -43.2028 -38.6420 -38.6234 -38.5560 -38.5229 -36.7889 -24.8630 -24.8467
   -24.7721 -24.7640 -24.6647 -24.6441 -24.5295 -24.5208 -24.4171 -24.3782
   -24.3497 -24.3145 -24.3058 -24.2757 -24.2571 -24.2243 -24.2044 -24.1867
   -24.1325 -24.1145 -24.0286 -24.0265 -24.0133 -24.0057 -23.9647 -23.9474
   -23.9198 -23.9172 -23.8981 -23.8930 -21.1860 -20.9768 -20.6539 -20.5632
   -20.2998 -20.1755 -20.1394 -20.0490 -19.9259 -19.8450 -19.8280 -19.6058
   -19.5259 -19.4301 -19.3984 -19.3646 -19.2624 -19.2172 -18.7577 -18.6827
   -18.6182 -17.1720 -16.8879 -16.8489 -16.8087 -16.6719 -16.6314 -16.6121
   -16.6018 -16.5824 -16.5476 -16.3075 -16.2997 -15.1487 -14.9372 -14.8056
     3.2300   4.7549   5.8020   6.1211   6.2630   6.4382   6.5320   6.5989
     6.6157   6.7829   6.9317   7.0687   7.1964   7.4053   7.5567   7.5916
     7.6885   7.8709   8.0066   8.0257   8.1388   8.1945   8.2340   8.2802
     8.4060   8.4479   8.5181   8.5754   8.6514   8.6797   8.7134   8.7996
     8.8525   9.0152   9.0448   9.1169   9.1956   9.2530   9.2944   9.3611
     9.3745   9.4924   9.6497   9.7076   9.8380   9.8640   9.9728  10.1496
    10.1676  10.2367  10.3508  10.3563  10.3937  10.4413  10.5425  10.5926
    10.6998  10.7665  10.9208  10.9406  11.0173  11.0410  11.1871  11.2208
    11.2593  11.3787  11.4003  11.5621  11.6804  11.7927  11.8062  11.8154
    11.9964  12.0447  12.1547  12.1870  12.1933  12.1999  12.2160

     the Fermi energy is    10.2898 ev

!    total energy              =   -2943.22458591 Ry
     estimated scf accuracy    <       0.00030779 Ry
     smearing contrib. (-TS)   =      -0.09795626 Ry
     internal energy E=F+TS    =   -2943.12662964 Ry

     total magnetization       =    -0.00 Bohr mag/cell
     absolute magnetization    =     0.00 Bohr mag/cell

     convergence has been achieved in   5 iterations

     negative rho (up, down):  9.079E-01 9.079E-01

     Forces acting on atoms (cartesian axes, Ry/au):

     atom    1 type  1   force =     0.00224195   -0.02542093    0.01058909
     atom    2 type  1   force =    -0.13290606   -0.01931665   -0.00768052
     atom    3 type  1   force =    -0.12670844    0.01606839   -0.00060353
     atom    4 type  1   force =     0.15248414   -0.00981254   -0.00563949
     atom    5 type  1   force =     0.10192500    0.03849323   -0.02621374
     atom    6 type  2   force =     0.00014776   -0.02064176    0.00135226
     atom    7 type  2   force =    -0.01605465    0.01034454    0.00243712
     atom    8 type  3   force =    -0.12596887    0.00155033   -0.00105495
     atom    9 type  3   force =     0.04148527   -0.21166845   -0.08637293
     atom   10 type  3   force =    -0.03851840   -0.02053436   -0.05735383
     atom   11 type  3   force =    -0.04079395   -0.02606593    0.05665560
     atom   12 type  3   force =    -0.02417223    0.02676517   -0.05342933
     atom   13 type  3   force =    -0.01467658    0.02617435    0.06734890
     atom   14 type  3   force =     0.03137721   -0.02641626   -0.05705104
     atom   15 type  3   force =     0.02915887   -0.03191134    0.06359370
     atom   16 type  3   force =     0.02856342    0.03514668   -0.05316618
     atom   17 type  3   force =     0.01903799    0.03267990    0.06641014
     atom   18 type  4   force =    -0.00938329    0.02105830   -0.02526693
     atom   19 type  4   force =    -0.14731163   -0.00557844   -0.11793178
     atom   20 type  4   force =    -0.14247501    0.00588284    0.12577128
     atom   21 type  4   force =     0.14587328   -0.00651451   -0.11661691
     atom   22 type  4   force =     0.13806009    0.00078910    0.12838549
     atom   23 type  5   force =     0.12861413    0.18892834    0.08583758
     The non-local contrib.  to forces
     atom    1 type  1   force =     0.00511709   -0.00302051    0.03660893
     atom    2 type  1   force =    -0.24910139   -0.16592558    0.01166515
     atom    3 type  1   force =    -0.24027839    0.15532030   -0.02248084
     atom    4 type  1   force =     0.24716297   -0.20253725    0.01395102
     atom    5 type  1   force =     0.19468549    0.17310062   -0.02980276
     atom    6 type  2   force =    -0.00110862   -0.06398942   -0.05135543
     atom    7 type  2   force =     0.00677784    0.08006924    0.07969068
     atom    8 type  3   force =    -0.25573229    0.00494895   -0.00020442
     atom    9 type  3   force =     0.18013999   -0.00118766   -0.00281956
     atom   10 type  3   force =    -0.24340412    0.01251396   -0.22357640
     atom   11 type  3   force =    -0.24845417    0.01854927    0.21331877
     atom   12 type  3   force =    -0.21852929   -0.03331844   -0.19480967
     atom   13 type  3   force =    -0.22277792   -0.00849702    0.22352384
     atom   14 type  3   force =     0.23960764    0.00356776   -0.21720923
     atom   15 type  3   force =     0.24106772    0.01277849    0.21630554
     atom   16 type  3   force =     0.22247291   -0.02300333   -0.18940441
     atom   17 type  3   force =     0.24057802   -0.01822671    0.20961630
     atom   18 type  4   force =    -0.00206223    0.08423798   -0.05387971
     atom   19 type  4   force =     0.07142692    0.00364432    0.05909025
     atom   20 type  4   force =     0.07110671   -0.00375888   -0.05383536
     atom   21 type  4   force =    -0.07478816    0.00409435    0.04998819
     atom   22 type  4   force =    -0.07071917   -0.00075211   -0.03204639
     atom   23 type  5   force =    -0.03933983   -0.03538914   -0.02707848
     The ionic contribution  to forces
     atom    1 type  1   force =    -0.16872362   -4.87508034   14.94042382
     atom    2 type  1   force =   -27.84471217   -6.15585138    0.74987969
     atom    3 type  1   force =   -27.92579221    6.39442310   -0.77758107
     atom    4 type  1   force =    27.77708224   -6.13921537    0.73271958
     atom    5 type  1   force =    27.25606974    8.05391154   -1.12611595
     atom    6 type  2   force =    -0.12873367   -3.76325537  -14.96030453
     atom    7 type  2   force =    -1.02485136    3.67964147   15.51282803
     atom    8 type  3   force =   -38.76545717   -0.16758348   -0.14465161
     atom    9 type  3   force =    37.67226946   -2.87267722   -0.87235215
     atom   10 type  3   force =   -24.85087628   -2.07783958  -24.59604971
     atom   11 type  3   force =   -23.92845275   -0.80979736   23.61479788
     atom   12 type  3   force =   -24.06428051    0.85324637  -23.71270326
     atom   13 type  3   force =   -24.86786901    2.29744542   24.70361040
     atom   14 type  3   force =    24.82095570   -2.07549319  -24.63368854
     atom   15 type  3   force =    23.88687029   -0.80545516   23.66612915
     atom   16 type  3   force =    23.98726160    0.93431507  -23.87476541
     atom   17 type  3   force =    24.72189804    2.48910792   25.01406173
     atom   18 type  4   force =    -0.50440261    4.40704231  -15.26551608
     atom   19 type  4   force =   -25.10924904    0.89994745  -27.08052511
     atom   20 type  4   force =   -25.08243237   -1.07331586   27.11459867
     atom   21 type  4   force =    25.04248037    0.82935506  -27.24973174
     atom   22 type  4   force =    24.95377772   -1.24278068   27.45498550
     atom   23 type  5   force =     4.14716762    1.21990927    0.78995072
     The local contribution  to forces
     atom    1 type  1   force =     0.16459813    4.84949503  -14.97532023
     atom    2 type  1   force =    27.97329777    6.30310956   -0.78943018
     atom    3 type  1   force =    28.04907890   -6.53611305    0.78008074
     atom    4 type  1   force =   -27.88532835    6.33806829   -0.77174945
     atom    5 type  1   force =   -27.34843245   -8.19343420    1.11343761
     atom    6 type  2   force =     0.12944793    3.79632328   14.99521399
     atom    7 type  2   force =     0.99931730   -3.74954488  -15.59726205
     atom    8 type  3   force =    38.92459498    0.16289632    0.12590504
     atom    9 type  3   force =   -37.82559443    2.66760789    0.77400693
     atom   10 type  3   force =    25.07967911    2.03268416   24.78260869
     atom   11 type  3   force =    24.16944262    0.76317489  -23.78301122
     atom   12 type  3   force =    24.27967308   -0.78082273   23.87249275
     atom   13 type  3   force =    25.10342811   -2.25920826  -24.86960646
     atom   14 type  3   force =   -25.05234853    2.03490955   24.81455266
     atom   15 type  3   force =   -24.13125099    0.75987847  -23.83202964
     atom   16 type  3   force =   -24.20413931   -0.86415222   24.02818546
     atom   17 type  3   force =   -24.97382139   -2.43638344  -25.16455474
     atom   18 type  4   force =     0.49488439   -4.45842821   15.27511475
     atom   19 type  4   force =    24.89503249   -0.90904267   26.91357950
     atom   20 type  4   force =    24.88644614    1.08168224  -26.93942862
     atom   21 type  4   force =   -24.82681054   -0.84060782   27.09180572
     atom   22 type  4   force =   -24.76305731    1.24287738  -27.29693898
     atom   23 type  5   force =    -3.97934737   -0.99531715   -0.67996215
     The core correction contribution to forces
     atom    1 type  1   force =    -0.00008416    0.00479090    0.00085454
     atom    2 type  1   force =    -0.01140290   -0.00126676    0.00101430
     atom    3 type  1   force =    -0.00979576    0.00390083   -0.00140520
     atom    4 type  1   force =     0.01320808   -0.00615482   -0.00012984
     atom    5 type  1   force =    -0.00006640    0.00590728   -0.00422242
     atom    6 type  2   force =     0.00006860    0.00328714    0.00200466
     atom    7 type  2   force =     0.00044255   -0.00403287   -0.00337828
     atom    8 type  3   force =    -0.02953885    0.00004903    0.00070952
     atom    9 type  3   force =     0.01546668   -0.00744243   -0.00244841
     atom   10 type  3   force =    -0.02707616    0.00620898   -0.01662839
     atom   11 type  3   force =    -0.02849473    0.00778780    0.01651376
     atom   12 type  3   force =    -0.02404769   -0.00733644   -0.01504879
     atom   13 type  3   force =    -0.02397126   -0.00707055    0.01643697
     atom   14 type  3   force =     0.02588651    0.00551513   -0.01663379
     atom   15 type  3   force =     0.02673453    0.00781494    0.01772206
     atom   16 type  3   force =     0.02503874   -0.00666422   -0.01419659
     atom   17 type  3   force =     0.02551351   -0.00640925    0.01397929
     atom   18 type  4   force =     0.00018314   -0.00459232    0.00232420
     atom   19 type  4   force =    -0.01013970    0.00035537   -0.00878263
     atom   20 type  4   force =    -0.01011000   -0.00027002    0.00865758
     atom   21 type  4   force =     0.01033939    0.00035400   -0.00816359
     atom   22 type  4   force =     0.01022217   -0.00027332    0.00712534
     atom   23 type  5   force =     0.00000000    0.00000000    0.00000000
     The Hubbard contrib.    to forces
     atom    1 type  1   force =     0.00000000    0.00000000    0.00000000
     atom    2 type  1   force =     0.00000000    0.00000000    0.00000000
     atom    3 type  1   force =     0.00000000    0.00000000    0.00000000
     atom    4 type  1   force =     0.00000000    0.00000000    0.00000000
     atom    5 type  1   force =     0.00000000    0.00000000    0.00000000
     atom    6 type  2   force =     0.00000000    0.00000000    0.00000000
     atom    7 type  2   force =     0.00000000    0.00000000    0.00000000
     atom    8 type  3   force =     0.00000000    0.00000000    0.00000000
     atom    9 type  3   force =     0.00000000    0.00000000    0.00000000
     atom   10 type  3   force =     0.00000000    0.00000000    0.00000000
     atom   11 type  3   force =     0.00000000    0.00000000    0.00000000
     atom   12 type  3   force =     0.00000000    0.00000000    0.00000000
     atom   13 type  3   force =     0.00000000    0.00000000    0.00000000
     atom   14 type  3   force =     0.00000000    0.00000000    0.00000000
     atom   15 type  3   force =     0.00000000    0.00000000    0.00000000
     atom   16 type  3   force =     0.00000000    0.00000000    0.00000000
     atom   17 type  3   force =     0.00000000    0.00000000    0.00000000
     atom   18 type  4   force =     0.00000000    0.00000000    0.00000000
     atom   19 type  4   force =     0.00000000    0.00000000    0.00000000
     atom   20 type  4   force =     0.00000000    0.00000000    0.00000000
     atom   21 type  4   force =     0.00000000    0.00000000    0.00000000
     atom   22 type  4   force =     0.00000000    0.00000000    0.00000000
     atom   23 type  5   force =     0.00000000    0.00000000    0.00000000
     The SCF correction term to forces
     atom    1 type  1   force =     0.00000000   -0.00000000    0.00000000
     atom    2 type  1   force =    -0.00000000    0.00000000    0.00000000
     atom    3 type  1   force =     0.00000000   -0.00000000    0.00000000
     atom    4 type  1   force =     0.00000000    0.00000000    0.00000000
     atom    5 type  1   force =    -0.00000000   -0.00000000    0.00000000
     atom    6 type  2   force =     0.00000000    0.00000000    0.00000000
     atom    7 type  2   force =     0.00000000    0.00000000    0.00000000
     atom    8 type  3   force =     0.00000000    0.00000000    0.00000000
     atom    9 type  3   force =    -0.00000000    0.00000000    0.00000000
     atom   10 type  3   force =     0.00313024    0.00595028   -0.00504987
     atom   11 type  3   force =    -0.00486373   -0.00572837   -0.00630544
     atom   12 type  3   force =     0.00298336   -0.00495144   -0.00470220
     atom   13 type  3   force =    -0.00351531    0.00355691   -0.00795769
     atom   14 type  3   force =    -0.00275294    0.00513663   -0.00541398
     atom   15 type  3   force =     0.00570850   -0.00687592   -0.00587527
     atom   16 type  3   force =    -0.00209933   -0.00529646   -0.00432708
     atom   17 type  3   force =     0.00484100    0.00464352   -0.00803428
     atom   18 type  4   force =     0.00198520   -0.00714931    0.01534807
     atom   19 type  4   force =     0.00558888   -0.00043077   -0.00263564
     atom   20 type  4   force =    -0.00751429    0.00159751   -0.00556283
     atom   21 type  4   force =    -0.00537660    0.00034205   -0.00185733
     atom   22 type  4   force =     0.00780787    0.00176998   -0.00608182
     atom   23 type  5   force =     0.00010489   -0.00022249    0.00158564

     Total force =     0.494913     Total SCF correction =     0.034703

     Entering Dynamics:    iteration =    10
                           time      =   0.0020 pico-seconds


ATOMIC_POSITIONS (angstrom)
Hf            2.6699999570        2.8271230292        6.6039642186    0   0   0
Hf            1.2529906802        1.2862841814        5.0584662261    0   0   0
Hf            1.2554868986        7.3898042948        5.0880677674    0   0   0
Hf            4.0870092338        1.2862841814        5.0584662261    0   0   0
Hf            4.0845130154        7.3898042948        5.0880677674    0   0   0
Nb            2.6699999570        2.7969306055        3.5155832167    0   0   0
Nb            2.6699999570        5.8763786763        6.6349979432    0   0   0
Ta            1.2093730560        4.3409278516        5.0711258323    0   0   0
Ta            4.1306268580        4.3409278516        5.0711258323    0   0   0
Ta            1.3071465315        1.3140725209        2.0586033028
Ta            1.3026774012        1.3083139535        8.0947438881
Ta            1.3039334682        7.3758992402        2.0460745050
Ta            1.3076511238        7.3651493363        8.0861733852
Ta            4.0328264117        1.3140573303        2.0586137273
Ta            4.0372910534        1.3083076970        8.0947496592
Ta            4.0360678916        7.3759137866        2.0460829633
Ta            4.0323532754        7.3651536845        8.0861689793
Zr            2.6700109870        5.8664015519        3.5273065755
Zr            1.2429908389        4.3220415589        1.9993336750
Zr            1.2395369239        4.3541479854        8.1504294917
Zr            4.0969822248        4.3220395744        1.9993417374
Zr            4.1004215259        4.3541439907        8.1504383622
H             4.5718394012        5.8040865846        5.4641531705


     kinetic energy (Ekin) =           1.75923587 Ry
     temperature           =       13226.73216674 K 
     Ekin + Etot (const)   =       -2941.46535003 Ry

     The maximum number of steps has been reached.

     End of molecular dynamics calculation

     diffusion coefficients :
     atom     1   D =       0.00000000 cm^2/s
     atom     2   D =       0.00000000 cm^2/s
     atom     3   D =       0.00000000 cm^2/s
     atom     4   D =       0.00000000 cm^2/s
     atom     5   D =       0.00000000 cm^2/s
     atom     6   D =       0.00000000 cm^2/s
     atom     7   D =       0.00000000 cm^2/s
     atom     8   D =       0.00000000 cm^2/s
     atom     9   D =       0.00000000 cm^2/s
     atom    10   D =       0.00000000 cm^2/s
     atom    11   D =       0.00000000 cm^2/s
     atom    12   D =       0.00000000 cm^2/s
     atom    13   D =       0.00000000 cm^2/s
     atom    14   D =       0.00000000 cm^2/s
     atom    15   D =       0.00000000 cm^2/s
     atom    16   D =       0.00000000 cm^2/s
     atom    17   D =       0.00000000 cm^2/s
     atom    18   D =       0.00000000 cm^2/s
     atom    19   D =       0.00000001 cm^2/s
     atom    20   D =       0.00000001 cm^2/s
     atom    21   D =       0.00000001 cm^2/s
     atom    22   D =       0.00000001 cm^2/s
     atom    23   D =       0.00594234 cm^2/s

     < D > =       0.00042446 cm^2/s

     Writing all to output data dir outdir/pwscf.save/

     init_run     :     21.73s CPU     22.10s WALL (       1 calls)
     electrons    :   2156.06s CPU   2187.97s WALL (      10 calls)
     update_pot   :     23.00s CPU     23.06s WALL (       9 calls)
     forces       :    162.29s CPU    164.51s WALL (      10 calls)

     Called by init_run:
     wfcinit      :     16.84s CPU     16.99s WALL (       1 calls)
     potinit      :      1.05s CPU      1.09s WALL (       1 calls)
     hinit0       :      1.74s CPU      1.77s WALL (       1 calls)

     Called by electrons:
     c_bands      :   1745.59s CPU   1755.78s WALL (      52 calls)
     sum_band     :    291.64s CPU    303.53s WALL (      52 calls)
     v_of_rho     :     13.31s CPU     13.78s WALL (      62 calls)
     newd         :    125.80s CPU    136.41s WALL (      62 calls)
     mix_rho      :      1.01s CPU      1.02s WALL (      52 calls)

     Called by c_bands:
     init_us_2    :      2.71s CPU      2.73s WALL (     230 calls)
     init_us_2:cp :      2.71s CPU      2.73s WALL (     230 calls)
     regterg      :   1730.48s CPU   1740.61s WALL (     104 calls)

     Called by *egterg:
     rdiaghg      :     30.64s CPU     31.04s WALL (     696 calls)
     h_psi        :    703.78s CPU    711.09s WALL (     716 calls)
     s_psi        :    253.00s CPU    253.40s WALL (     716 calls)
     g_psi        :      0.55s CPU      0.55s WALL (     610 calls)

     Called by h_psi:
     h_psi:calbec :    318.79s CPU    319.37s WALL (     716 calls)
     vloc_psi     :    129.49s CPU    135.84s WALL (     716 calls)
     add_vuspsi   :    254.42s CPU    254.79s WALL (     716 calls)

     General routines
     calbec       :    536.55s CPU    537.61s WALL (     900 calls)
     fft          :     18.09s CPU     18.60s WALL (    1089 calls)
     ffts         :      0.29s CPU      0.32s WALL (      52 calls)
     fftw         :    135.29s CPU    141.95s WALL (   54120 calls)

     Parallel routines

     PWSCF        :  39m42.66s CPU  40m19.16s WALL


   This run was terminated on:  11:38:33  11Jun2023            

=------------------------------------------------------------------------------=
   JOB DONE.
=------------------------------------------------------------------------------=
