
     Program PWSCF v.7.2 starts on 11Jun2023 at  8:21:11 

     This program is part of the open-source Quantum ESPRESSO suite
     for quantum simulation of materials; please cite
         "P. Giannozzi et al., J. Phys.:Condens. Matter 21 395502 (2009);
         "P. Giannozzi et al., J. Phys.:Condens. Matter 29 465901 (2017);
         "P. Giannozzi et al., J. Chem. Phys. 152 154105 (2020);
          URL http://www.quantum-espresso.org", 
     in publications or presentations arising from this work. More details at
     http://www.quantum-espresso.org/quote

     Parallel version (MPI), running on    12 processors

     MPI processes distributed on     1 nodes
     75803 MiB available memory on the printing compute node when the environment starts

     Reading input from md_data/md_Hf5Nb2Ta10Zr5H_10steps_50eV_incident45_polar0.in
Warning: card &CELL ignored
Warning: card / ignored

     Current dimensions of program PWSCF are:
     Max number of different atomic species (ntypx) = 10
     Max number of k-points (npk) =  40000
     Max angular momentum in pseudopotentials (lmaxx) =  4

     File outdir/pwscf.md deleted, as requested

     gamma-point specific algorithms are used

     R & G space division:  proc/nbgrp/npool/nimage =      12
     Subspace diagonalization in iterative solution of the eigenvalue problem:
     one sub-group per band group will be used
     custom distributed-memory algorithm (size of sub-group:  2*  2 procs)


     Parallelization info
     --------------------
     sticks:   dense  smooth     PW     G-vecs:    dense   smooth      PW
     Min         723     723    180                64572    64572    8072
     Max         724     724    182                64584    64584    8078
     Sum        8687    8687   2177               774967   774967   96907

     Using Slab Decomposition



     bravais-lattice index     =            0
     lattice parameter (alat)  =      13.8706  a.u.
     unit-cell volume          =    4363.8306 (a.u.)^3
     number of atoms/cell      =           23
     number of atomic types    =            5
     number of electrons       =       277.00
     number of Kohn-Sham states=          167
     kinetic-energy cutoff     =     120.0000  Ry
     charge density cutoff     =     480.0000  Ry
     scf convergence threshold =      1.0E-03
     mixing beta               =       0.7000
     number of iterations used =            8  TF        mixing
     energy convergence thresh.=      0.0E+00
     force convergence thresh. =      0.0E+00
     Exchange-correlation=  SLA  PW   PBX  PBC
                           (   1   4   3   4   0   0   0)
     nstep                     =           10


     celldm(1)=  13.870589  celldm(2)=   0.000000  celldm(3)=   0.000000
     celldm(4)=   0.000000  celldm(5)=   0.000000  celldm(6)=   0.000000

     crystal axes: (cart. coord. in units of alat)
               a(1) = (   1.000000   0.000000   0.000000 )  
               a(2) = (   0.000000   1.182561   0.000000 )  
               a(3) = (   0.000000   0.000000   1.382801 )  

     reciprocal axes: (cart. coord. in units 2 pi/alat)
               b(1) = (  1.000000  0.000000  0.000000 )  
               b(2) = (  0.000000  0.845622  0.000000 )  
               b(3) = (  0.000000  0.000000  0.723170 )  


     PseudoPot. # 1 for Hf read from file:
     q-e/pseudo/hf_pbe_v1.uspp.F.UPF
     MD5 check sum: 8ee9378dfe14276e333edf04c5e4aa26
     Pseudo is Ultrasoft + core correction, Zval = 12.0
     Generated by new atomic code, or converted to UPF format
     Using radial grid of  921 points,  8 beta functions with: 
                l(1) =   0
                l(2) =   0
                l(3) =   0
                l(4) =   1
                l(5) =   1
                l(6) =   2
                l(7) =   2
                l(8) =   3
     Q(r) pseudized with  6 coefficients,  rinner =    1.200   1.200   1.200
                                                       1.200   1.200   1.200
                                                       1.200

     PseudoPot. # 2 for Nb read from file:
     q-e/pseudo/nb_pbe_v1.uspp.F.UPF
     MD5 check sum: 573aab8a2fa660278ed4a62cd769473f
     Pseudo is Ultrasoft + core correction, Zval = 13.0
     Generated by new atomic code, or converted to UPF format
     Using radial grid of  887 points,  6 beta functions with: 
                l(1) =   0
                l(2) =   0
                l(3) =   1
                l(4) =   1
                l(5) =   2
                l(6) =   2
     Q(r) pseudized with  6 coefficients,  rinner =    1.000   1.000   1.000
                                                       1.000   1.000

     PseudoPot. # 3 for Ta read from file:
     q-e/pseudo/ta_pbe_v1.uspp.F.UPF
     MD5 check sum: f8bbe9446314a3b8ea5d9f3e3836c939
     Pseudo is Ultrasoft + core correction, Zval = 13.0
     Generated by new atomic code, or converted to UPF format
     Using radial grid of  921 points,  7 beta functions with: 
                l(1) =   0
                l(2) =   0
                l(3) =   1
                l(4) =   1
                l(5) =   2
                l(6) =   2
                l(7) =   3
     Q(r) pseudized with  6 coefficients,  rinner =    1.300   1.300   1.300
                                                       1.300   1.300   1.300
                                                       1.300

     PseudoPot. # 4 for Zr read from file:
     q-e/pseudo/zr_pbe_v1.uspp.F.UPF
     MD5 check sum: 5db81b1e868ab7776c4564c113de050b
     Pseudo is Ultrasoft + core correction, Zval = 12.0
     Generated by new atomic code, or converted to UPF format
     Using radial grid of  887 points,  6 beta functions with: 
                l(1) =   0
                l(2) =   0
                l(3) =   1
                l(4) =   1
                l(5) =   2
                l(6) =   2
     Q(r) pseudized with  6 coefficients,  rinner =    1.200   1.200   1.200
                                                       1.200   1.200

     PseudoPot. # 5 for H  read from file:
     q-e/pseudo/h_pbe_v1.4.uspp.F.UPF
     MD5 check sum: 761ae9a214b05c3daf00ab9f6b793d6f
     Pseudo is Ultrasoft, Zval =  1.0
     Generated by new atomic code, or converted to UPF format
     Using radial grid of  615 points,  2 beta functions with: 
                l(1) =   0
                l(2) =   0
     Q(r) pseudized with  8 coefficients,  rinner =    0.700

     atomic species   valence    mass     pseudopotential
        Hf            12.00   178.49000     Hf( 1.00)
        Nb            13.00    92.90637     Nb( 1.00)
        Ta            13.00   180.94788     Ta( 1.00)
        Zr            12.00    91.22400     Zr( 1.00)
        H              1.00     2.01400     H ( 1.00)

     Starting magnetic structure 
     atomic species   magnetization
        Hf           0.000
        Nb           0.000
        Ta           0.000
        Zr           0.000
        H            0.000

     No symmetry found



   Cartesian axes

     site n.     atom                  positions (alat units)
         1           Hf  tau(   1) = (   0.3637602   0.3851666   0.8997227  )
         2           Hf  tau(   2) = (   0.1707072   0.1752431   0.6891644  )
         3           Hf  tau(   3) = (   0.1710473   1.0067854   0.6931973  )
         4           Hf  tau(   4) = (   0.5568133   0.1752431   0.6891644  )
         5           Hf  tau(   5) = (   0.5564732   1.0067854   0.6931973  )
         6           Nb  tau(   6) = (   0.3637602   0.3810532   0.4789623  )
         7           Nb  tau(   7) = (   0.3637602   0.8005966   0.9039507  )
         8           Ta  tau(   8) = (   0.1647647   0.5914071   0.6908891  )
         9           Ta  tau(   9) = (   0.5627557   0.5914071   0.6908891  )
        10           Ta  tau(  10) = (   0.1780998   0.1790358   0.2804876  )
        11           Ta  tau(  11) = (   0.1774916   0.1782549   1.1028038  )
        12           Ta  tau(  12) = (   0.1776580   1.0048810   0.2787789  )
        13           Ta  tau(  13) = (   0.1781622   1.0034173   1.1016352  )
        14           Ta  tau(  14) = (   0.5494206   0.1790358   0.2804876  )
        15           Ta  tau(  15) = (   0.5500289   0.1782549   1.1028038  )
        16           Ta  tau(  16) = (   0.5498625   1.0048810   0.2787789  )
        17           Ta  tau(  17) = (   0.5493582   1.0034173   1.1016352  )
        18           Zr  tau(  18) = (   0.3637602   0.7992215   0.4805700  )
        19           Zr  tau(  19) = (   0.1694598   0.5888390   0.2724796  )
        20           Zr  tau(  20) = (   0.1689898   0.5932048   1.1103210  )
        21           Zr  tau(  21) = (   0.5580607   0.5888390   0.2724796  )
        22           Zr  tau(  22) = (   0.5585306   0.5932048   1.1103210  )
        23           H   tau(  23) = (   0.6590918   0.6876167   0.6910327  )

     number of k points=     1  Gaussian smearing, width (Ry)=  0.0220
                       cart. coord. in units 2pi/alat
        k(    1) = (   0.0000000   0.0000000   0.0000000), wk =   1.0000000

     Dense  grid:   387484 G-vectors     FFT dimensions: ( 100, 120, 135)

     Estimated max dynamical RAM per process >     326.54 MB

     Estimated total dynamical RAM >       3.83 GB

     Check: negative core charge=   -0.000002
     Generating pointlists ...
     new r_m :   0.1383 (alat units)  1.9183 (a.u.) for type    1
     new r_m :   0.1397 (alat units)  1.9374 (a.u.) for type    2
     new r_m :   0.0562 (alat units)  0.7790 (a.u.) for type    3
     new r_m :   0.1415 (alat units)  1.9625 (a.u.) for type    4
     new r_m :   0.0562 (alat units)  0.7790 (a.u.) for type    5

     Initial potential from superposition of free atoms

     starting charge     266.9726, renormalised to     277.0000

     negative rho (up, down):  9.202E-01 9.202E-01
     Starting wfcs are  287 randomized atomic wfcs

     total cpu time spent up to now is       23.1 secs

     Self-consistent Calculation

     iteration #  1     ecut=   120.00 Ry     beta= 0.70
     Davidson diagonalization with overlap
     ethr =  1.00E-02,  avg # of iterations =  3.0

     negative rho (up, down):  9.508E-01 9.506E-01

     total cpu time spent up to now is       64.1 secs

     total energy              =   -2933.26354929 Ry
     estimated scf accuracy    <     320.07738183 Ry

     total magnetization       =     0.00 Bohr mag/cell
     absolute magnetization    =     0.08 Bohr mag/cell

     iteration #  2     ecut=   120.00 Ry     beta= 0.70
     Davidson diagonalization with overlap
     ethr =  1.00E-02,  avg # of iterations =  5.0

     negative rho (up, down):  8.881E-01 8.877E-01

     total cpu time spent up to now is      105.2 secs

     total energy              =   -2941.42041136 Ry
     estimated scf accuracy    <      46.80961301 Ry

     total magnetization       =    -0.00 Bohr mag/cell
     absolute magnetization    =     0.09 Bohr mag/cell

     iteration #  3     ecut=   120.00 Ry     beta= 0.70
     Davidson diagonalization with overlap
     ethr =  1.00E-02,  avg # of iterations =  4.0

     negative rho (up, down):  9.121E-01 9.119E-01

     total cpu time spent up to now is      143.6 secs

     total energy              =   -2941.93515616 Ry
     estimated scf accuracy    <      17.13290710 Ry

     total magnetization       =    -0.00 Bohr mag/cell
     absolute magnetization    =     0.12 Bohr mag/cell

     iteration #  4     ecut=   120.00 Ry     beta= 0.70
     Davidson diagonalization with overlap
     ethr =  6.19E-03,  avg # of iterations =  2.0

     negative rho (up, down):  9.210E-01 9.209E-01

     total cpu time spent up to now is      179.7 secs

     total energy              =   -2942.12985085 Ry
     estimated scf accuracy    <       3.72130055 Ry

     total magnetization       =    -0.01 Bohr mag/cell
     absolute magnetization    =     0.13 Bohr mag/cell

     iteration #  5     ecut=   120.00 Ry     beta= 0.70
     Davidson diagonalization with overlap
     ethr =  1.34E-03,  avg # of iterations =  7.0

     negative rho (up, down):  9.134E-01 9.133E-01

     total cpu time spent up to now is      224.4 secs

     total energy              =   -2942.33391390 Ry
     estimated scf accuracy    <       1.66487371 Ry

     total magnetization       =    -0.01 Bohr mag/cell
     absolute magnetization    =     0.09 Bohr mag/cell

     iteration #  6     ecut=   120.00 Ry     beta= 0.70
     Davidson diagonalization with overlap
     ethr =  6.01E-04,  avg # of iterations =  2.0

     negative rho (up, down):  9.118E-01 9.117E-01

     total cpu time spent up to now is      259.5 secs

     total energy              =   -2942.34789985 Ry
     estimated scf accuracy    <       0.75314846 Ry

     total magnetization       =    -0.01 Bohr mag/cell
     absolute magnetization    =     0.08 Bohr mag/cell

     iteration #  7     ecut=   120.00 Ry     beta= 0.70
     Davidson diagonalization with overlap
     ethr =  2.72E-04,  avg # of iterations =  6.0

     negative rho (up, down):  9.061E-01 9.061E-01

     total cpu time spent up to now is      295.2 secs

     total energy              =   -2942.36916257 Ry
     estimated scf accuracy    <       0.14263560 Ry

     total magnetization       =    -0.01 Bohr mag/cell
     absolute magnetization    =     0.06 Bohr mag/cell

     iteration #  8     ecut=   120.00 Ry     beta= 0.70
     Davidson diagonalization with overlap
     ethr =  5.15E-05,  avg # of iterations =  9.0

     negative rho (up, down):  9.040E-01 9.040E-01

     total cpu time spent up to now is      336.8 secs

     total energy              =   -2942.37462658 Ry
     estimated scf accuracy    <       0.08291665 Ry

     total magnetization       =    -0.01 Bohr mag/cell
     absolute magnetization    =     0.04 Bohr mag/cell

     iteration #  9     ecut=   120.00 Ry     beta= 0.70
     Davidson diagonalization with overlap
     ethr =  2.99E-05,  avg # of iterations =  2.0

     negative rho (up, down):  9.053E-01 9.053E-01

     total cpu time spent up to now is      371.2 secs

     total energy              =   -2942.37976934 Ry
     estimated scf accuracy    <       0.02771341 Ry

     total magnetization       =    -0.01 Bohr mag/cell
     absolute magnetization    =     0.03 Bohr mag/cell

     iteration # 10     ecut=   120.00 Ry     beta= 0.70
     Davidson diagonalization with overlap
     ethr =  1.00E-05,  avg # of iterations =  4.0

     negative rho (up, down):  9.062E-01 9.062E-01

     total cpu time spent up to now is      406.2 secs

     total energy              =   -2942.38163502 Ry
     estimated scf accuracy    <       0.00569466 Ry

     total magnetization       =    -0.01 Bohr mag/cell
     absolute magnetization    =     0.02 Bohr mag/cell

     iteration # 11     ecut=   120.00 Ry     beta= 0.70
     Davidson diagonalization with overlap
     ethr =  2.06E-06,  avg # of iterations = 11.0

     negative rho (up, down):  9.067E-01 9.067E-01

     total cpu time spent up to now is      448.5 secs

     total energy              =   -2942.38212080 Ry
     estimated scf accuracy    <       0.00144335 Ry

     total magnetization       =    -0.01 Bohr mag/cell
     absolute magnetization    =     0.02 Bohr mag/cell

     iteration # 12     ecut=   120.00 Ry     beta= 0.70
     Davidson diagonalization with overlap
     ethr =  5.21E-07,  avg # of iterations =  4.5

     negative rho (up, down):  9.065E-01 9.065E-01

     Magnetic moment per site  (integrated on atomic sphere of radius R)
     atom   1 (R=0.138)  charge=  9.2387   -0.0001
     atom   2 (R=0.138)  charge=  8.8798    0.0002
     atom   3 (R=0.138)  charge=  8.8810    0.0001
     atom   4 (R=0.138)  charge=  8.8842   -0.0000
     atom   5 (R=0.138)  charge=  8.8709   -0.0001
     atom   6 (R=0.140)  charge= 10.3532    0.0001
     atom   7 (R=0.140)  charge= 10.3490   -0.0000
     atom   8 (R=0.056)  charge=  1.3405   -0.0000
     atom   9 (R=0.056)  charge=  1.3566    0.0000
     atom  10 (R=0.056)  charge=  1.3376    0.0000
     atom  11 (R=0.056)  charge=  1.3370   -0.0000
     atom  12 (R=0.056)  charge=  1.3370   -0.0000
     atom  13 (R=0.056)  charge=  1.3371    0.0000
     atom  14 (R=0.056)  charge=  1.3384   -0.0000
     atom  15 (R=0.056)  charge=  1.3386    0.0000
     atom  16 (R=0.056)  charge=  1.3367   -0.0000
     atom  17 (R=0.056)  charge=  1.3380   -0.0000
     atom  18 (R=0.141)  charge=  9.4570   -0.0000
     atom  19 (R=0.141)  charge=  8.9970   -0.0011
     atom  20 (R=0.141)  charge=  8.9944   -0.0004
     atom  21 (R=0.141)  charge=  8.9995   -0.0010
     atom  22 (R=0.141)  charge=  8.9961   -0.0004
     atom  23 (R=0.056)  charge=  0.7692    0.0000

     total cpu time spent up to now is      484.9 secs

     End of self-consistent calculation

 ------ SPIN UP ------------


          k = 0.0000 0.0000 0.0000 ( 48454 PWs)   bands (ev):

   -57.8409 -57.8373 -57.7948 -57.7922 -57.7647 -57.7567 -57.7195 -57.7128
   -57.6211 -57.4150 -51.4144 -51.3673 -51.2853 -51.2289 -49.7397 -43.2368
   -43.2205 -38.6298 -38.6211 -38.5374 -38.5285 -36.8080 -25.9622 -24.8563
   -24.8508 -24.7686 -24.7670 -24.6538 -24.6455 -24.5410 -24.5157 -24.3920
   -24.3671 -24.3396 -24.3047 -24.2998 -24.2809 -24.2551 -24.2371 -24.1971
   -24.1912 -24.1498 -24.0299 -24.0194 -24.0139 -24.0118 -23.9642 -23.9524
   -23.9280 -23.9125 -23.6490 -23.6245 -21.1975 -20.9867 -20.6710 -20.5937
   -20.3238 -20.1861 -20.1666 -20.0606 -19.9523 -19.8812 -19.8634 -19.6429
   -19.4919 -19.4403 -19.3893 -19.3370 -19.2698 -19.2200 -18.8101 -18.7207
   -18.6690 -17.1867 -16.8823 -16.8582 -16.8196 -16.6272 -16.6105 -16.6084
   -16.5908 -16.5687 -16.5391 -16.3104 -16.3042 -15.1608 -14.9528 -14.8250
     4.0759   5.1190   5.8011   6.1381   6.2481   6.4917   6.5528   6.5946
     6.6081   6.8266   6.9403   7.0080   7.2191   7.3679   7.4500   7.5896
     7.7279   7.7398   7.9477   8.0342   8.0864   8.1598   8.2168   8.2553
     8.3719   8.4666   8.5500   8.6232   8.6618   8.7162   8.7635   8.7747
     8.8482   9.0115   9.0614   9.1582   9.1846   9.2584   9.2982   9.3156
     9.3749   9.4872   9.6267   9.7619   9.7997   9.9615   9.9676  10.0881
    10.1600  10.1835  10.3110  10.3469  10.3981  10.4323  10.5467  10.5971
    10.6999  10.7648  10.9116  10.9241  11.0177  11.0323  11.1375  11.2234
    11.2647  11.3568  11.3917  11.5824  11.6800  11.7536  11.8025  11.8193
    12.0014  12.1292  12.1565  12.1895  12.1944  12.2131  12.2260

 ------ SPIN DOWN ----------


          k = 0.0000 0.0000 0.0000 ( 48454 PWs)   bands (ev):

   -57.8410 -57.8374 -57.7948 -57.7923 -57.7648 -57.7569 -57.7196 -57.7130
   -57.6210 -57.4148 -51.4143 -51.3673 -51.2852 -51.2288 -49.7398 -43.2368
   -43.2204 -38.6307 -38.6213 -38.5376 -38.5295 -36.8080 -25.9621 -24.8564
   -24.8510 -24.7687 -24.7671 -24.6540 -24.6457 -24.5411 -24.5160 -24.3920
   -24.3673 -24.3396 -24.3049 -24.3000 -24.2809 -24.2553 -24.2372 -24.1973
   -24.1914 -24.1498 -24.0301 -24.0195 -24.0141 -24.0120 -23.9643 -23.9526
   -23.9281 -23.9128 -23.6488 -23.6244 -21.1974 -20.9866 -20.6710 -20.5936
   -20.3237 -20.1860 -20.1665 -20.0605 -19.9523 -19.8811 -19.8634 -19.6428
   -19.4919 -19.4404 -19.3893 -19.3370 -19.2698 -19.2199 -18.8103 -18.7208
   -18.6691 -17.1875 -16.8827 -16.8590 -16.8211 -16.6275 -16.6112 -16.6088
   -16.5916 -16.5691 -16.5393 -16.3117 -16.3045 -15.1609 -14.9528 -14.8252
     4.0760   5.1190   5.8009   6.1381   6.2482   6.4916   6.5527   6.5945
     6.6081   6.8265   6.9401   7.0080   7.2189   7.3678   7.4499   7.5893
     7.7277   7.7396   7.9475   8.0340   8.0863   8.1596   8.2164   8.2550
     8.3718   8.4664   8.5496   8.6226   8.6616   8.7161   8.7635   8.7747
     8.8481   9.0114   9.0613   9.1579   9.1845   9.2582   9.2980   9.3155
     9.3747   9.4870   9.6264   9.7616   9.7995   9.9612   9.9676  10.0872
    10.1597  10.1832  10.3101  10.3459  10.3979  10.4320  10.5464  10.5969
    10.6998  10.7645  10.9111  10.9236  11.0172  11.0322  11.1374  11.2231
    11.2644  11.3565  11.3917  11.5822  11.6796  11.7534  11.8022  11.8190
    12.0010  12.1292  12.1567  12.1892  12.1943  12.2128  12.2260

     the Fermi energy is    10.2728 ev

!    total energy              =   -2942.38223200 Ry
     estimated scf accuracy    <       0.00021137 Ry
     smearing contrib. (-TS)   =      -0.09663391 Ry
     internal energy E=F+TS    =   -2942.28559808 Ry

     total magnetization       =    -0.01 Bohr mag/cell
     absolute magnetization    =     0.02 Bohr mag/cell

     convergence has been achieved in  12 iterations

     negative rho (up, down):  9.065E-01 9.065E-01

     Forces acting on atoms (cartesian axes, Ry/au):

     atom    1 type  1   force =     0.01201063   -0.01218213    0.01035859
     atom    2 type  1   force =    -0.13009293   -0.01925476   -0.00529236
     atom    3 type  1   force =    -0.12896857    0.01599776    0.00303434
     atom    4 type  1   force =     0.15271282   -0.02139595   -0.00607498
     atom    5 type  1   force =     0.13008770   -0.00992108    0.00377509
     atom    6 type  2   force =     0.00694814   -0.01781312    0.00005650
     atom    7 type  2   force =     0.00062805    0.01565674    0.00098384
     atom    8 type  3   force =    -0.14664742    0.00961850   -0.00598165
     atom    9 type  3   force =    -1.43036920   -1.58435850    0.01653440
     atom   10 type  3   force =    -0.03685856   -0.01813755   -0.06399482
     atom   11 type  3   force =    -0.03750619   -0.02759261    0.06177117
     atom   12 type  3   force =    -0.02679145    0.02518994   -0.05925887
     atom   13 type  3   force =    -0.02744281    0.01785045    0.05927790
     atom   14 type  3   force =     0.02526318   -0.02098208   -0.05906141
     atom   15 type  3   force =     0.02804108   -0.02665164    0.05720717
     atom   16 type  3   force =     0.02505740    0.02828784   -0.05525685
     atom   17 type  3   force =     0.02552148    0.02197046    0.05841258
     atom   18 type  4   force =     0.00221906    0.01852730   -0.01190220
     atom   19 type  4   force =    -0.15082652   -0.00490857   -0.11983847
     atom   20 type  4   force =    -0.15526467    0.00451513    0.12202499
     atom   21 type  4   force =     0.14192771   -0.00745922   -0.11861992
     atom   22 type  4   force =     0.14816448    0.00470396    0.11903876
     atom   23 type  5   force =     1.57218658    1.60833912   -0.00719379
     The non-local contrib.  to forces
     atom    1 type  1   force =     0.02142285    0.01361889    0.01237785
     atom    2 type  1   force =    -0.24590629   -0.16800804    0.01378318
     atom    3 type  1   force =    -0.24138870    0.16012010   -0.02929610
     atom    4 type  1   force =     0.25132559   -0.17075355    0.01507658
     atom    5 type  1   force =     0.23542048    0.14733591   -0.02990702
     atom    6 type  2   force =     0.00168548   -0.06364867   -0.06691398
     atom    7 type  2   force =    -0.00521392    0.09218414    0.04266169
     atom    8 type  3   force =    -0.26080755   -0.00068455   -0.00577109
     atom    9 type  3   force =     0.83401690    0.59097280    0.01155547
     atom   10 type  3   force =    -0.24732985    0.00520900   -0.22856745
     atom   11 type  3   force =    -0.24910153    0.00367212    0.21964477
     atom   12 type  3   force =    -0.22292522   -0.02823201   -0.19193539
     atom   13 type  3   force =    -0.23519014   -0.00550806    0.21922608
     atom   14 type  3   force =     0.22832727    0.00847731   -0.22373503
     atom   15 type  3   force =     0.23745130    0.01144250    0.21536116
     atom   16 type  3   force =     0.22351744   -0.02755473   -0.19217771
     atom   17 type  3   force =     0.23403577   -0.00924313    0.21846726
     atom   18 type  4   force =    -0.00720525    0.08084025   -0.04228897
     atom   19 type  4   force =     0.07922179    0.00783846    0.05466162
     atom   20 type  4   force =     0.07566256    0.00079627   -0.05135925
     atom   21 type  4   force =    -0.07062535    0.00312729    0.04755615
     atom   22 type  4   force =    -0.06469876    0.00465448   -0.03912461
     atom   23 type  5   force =    -0.13962516   -0.14059080   -0.00340710
     The ionic contribution  to forces
     atom    1 type  1   force =    -0.22043152   -4.90027229   15.02144170
     atom    2 type  1   force =   -27.82989161   -6.24992748    0.78148659
     atom    3 type  1   force =   -27.83731734    6.38068045   -0.71345102
     atom    4 type  1   force =    27.74939766   -6.36585052    0.78071875
     atom    5 type  1   force =    27.52235896    7.09804373   -0.70846619
     atom    6 type  2   force =    -0.23065012   -3.86971290  -15.00218809
     atom    7 type  2   force =    -0.53729777    3.85106322   15.28548125
     atom    8 type  3   force =   -38.67457009   -0.07515163   -0.06740096
     atom    9 type  3   force =    33.55333201   -5.04887246   -0.07482743
     atom   10 type  3   force =   -24.85044530   -2.12912334  -24.62370415
     atom   11 type  3   force =   -23.92318154   -0.86261025   23.61961409
     atom   12 type  3   force =   -24.05074839    0.87354228  -23.71423441
     atom   13 type  3   force =   -24.83533747    2.28139959   24.65428359
     atom   14 type  3   force =    24.81247929   -2.15904194  -24.67398291
     atom   15 type  3   force =    23.88578213   -0.89207499   23.66962967
     atom   16 type  3   force =    23.97639933    0.97212214  -23.84792737
     atom   17 type  3   force =    24.75935460    2.38148125   24.79000389
     atom   18 type  4   force =    -0.50459473    4.61041873  -15.11393101
     atom   19 type  4   force =   -25.11148780    0.92184846  -27.15075769
     atom   20 type  4   force =   -25.06775968   -1.02054796   27.13073650
     atom   21 type  4   force =    24.99309682    0.85015384  -27.45109319
     atom   22 type  4   force =    24.94990721   -1.08936470   27.43276306
     atom   23 type  5   force =     7.47160534    4.44179679   -0.02419471
     The local contribution  to forces
     atom    1 type  1   force =     0.20897744    4.87467431  -15.01882367
     atom    2 type  1   force =    27.95542125    6.40125682   -0.80285742
     atom    3 type  1   force =    27.95988890   -6.52934341    0.74681772
     atom    4 type  1   force =   -27.85781832    6.51700176   -0.80447858
     atom    5 type  1   force =   -27.63220559   -7.26206424    0.74465710
     atom    6 type  2   force =     0.23526270    3.92457508   15.05708337
     atom    7 type  2   force =     0.54206491   -3.93051584  -15.32137588
     atom    8 type  3   force =    38.81395237    0.08684015    0.06258754
     atom    9 type  3   force =   -35.86103705    2.85060425    0.07207441
     atom   10 type  3   force =    25.08676590    2.10511273   24.80173865
     atom   11 type  3   force =    24.16217679    0.82479767  -23.79090452
     atom   12 type  3   force =    24.27217767   -0.82026596   23.85446755
     atom   13 type  3   force =    25.06915999   -2.25900676  -24.82236828
     atom   14 type  3   force =   -25.03998662    2.13065259   24.85258133
     atom   15 type  3   force =   -24.12100526    0.84761239  -23.84196489
     atom   16 type  3   force =   -24.20087129   -0.91662190   23.99235655
     atom   17 type  3   force =   -24.99294768   -2.35107396  -24.95883451
     atom   18 type  4   force =     0.51186999   -4.67923914   15.13459457
     atom   19 type  4   force =    24.89560899   -0.93262555   26.97908523
     atom   20 type  4   force =    24.84945062    1.02931788  -26.95806933
     atom   21 type  4   force =   -24.79415471   -0.86051008   27.28650376
     atom   22 type  4   force =   -24.74846193    1.09331305  -27.27325396
     atom   23 type  5   force =    -5.75905865   -2.69298432    0.01995463
     The core correction contribution to forces
     atom    1 type  1   force =     0.00186963    0.00586397   -0.00288279
     atom    2 type  1   force =    -0.01101130   -0.00164198    0.00078840
     atom    3 type  1   force =    -0.01122870    0.00237440   -0.00186379
     atom    4 type  1   force =     0.01202571   -0.00248923    0.00116139
     atom    5 type  1   force =     0.00638520    0.00564387   -0.00229329
     atom    6 type  2   force =     0.00041797    0.00348613    0.00324662
     atom    7 type  2   force =     0.00041323   -0.00460430   -0.00150128
     atom    8 type  3   force =    -0.03088089    0.00056827   -0.00052732
     atom    9 type  3   force =     0.04855313    0.02466488    0.00240817
     atom   10 type  3   force =    -0.02661622    0.00594884   -0.01713750
     atom   11 type  3   force =    -0.02783393    0.00691852    0.01721397
     atom   12 type  3   force =    -0.02483710   -0.00760872   -0.01473379
     atom   13 type  3   force =    -0.02568144   -0.00543691    0.01594328
     atom   14 type  3   force =     0.02548297    0.00594344   -0.01755665
     atom   15 type  3   force =     0.02707232    0.00750491    0.01795814
     atom   16 type  3   force =     0.02436494   -0.00679386   -0.01421556
     atom   17 type  3   force =     0.02476730   -0.00484118    0.01533824
     atom   18 type  4   force =     0.00050661   -0.00462174    0.00193116
     atom   19 type  4   force =    -0.01054139    0.00017530   -0.00853374
     atom   20 type  4   force =    -0.01045437   -0.00042701    0.00849526
     atom   21 type  4   force =     0.01000853    0.00034564   -0.00799243
     atom   22 type  4   force =     0.00975184   -0.00081199    0.00756938
     atom   23 type  5   force =     0.00000000    0.00000000    0.00000000
     The Hubbard contrib.    to forces
     atom    1 type  1   force =     0.00000000    0.00000000    0.00000000
     atom    2 type  1   force =     0.00000000    0.00000000    0.00000000
     atom    3 type  1   force =     0.00000000    0.00000000    0.00000000
     atom    4 type  1   force =     0.00000000    0.00000000    0.00000000
     atom    5 type  1   force =     0.00000000    0.00000000    0.00000000
     atom    6 type  2   force =     0.00000000    0.00000000    0.00000000
     atom    7 type  2   force =     0.00000000    0.00000000    0.00000000
     atom    8 type  3   force =     0.00000000    0.00000000    0.00000000
     atom    9 type  3   force =     0.00000000    0.00000000    0.00000000
     atom   10 type  3   force =     0.00000000    0.00000000    0.00000000
     atom   11 type  3   force =     0.00000000    0.00000000    0.00000000
     atom   12 type  3   force =     0.00000000    0.00000000    0.00000000
     atom   13 type  3   force =     0.00000000    0.00000000    0.00000000
     atom   14 type  3   force =     0.00000000    0.00000000    0.00000000
     atom   15 type  3   force =     0.00000000    0.00000000    0.00000000
     atom   16 type  3   force =     0.00000000    0.00000000    0.00000000
     atom   17 type  3   force =     0.00000000    0.00000000    0.00000000
     atom   18 type  4   force =     0.00000000    0.00000000    0.00000000
     atom   19 type  4   force =     0.00000000    0.00000000    0.00000000
     atom   20 type  4   force =     0.00000000    0.00000000    0.00000000
     atom   21 type  4   force =     0.00000000    0.00000000    0.00000000
     atom   22 type  4   force =     0.00000000    0.00000000    0.00000000
     atom   23 type  5   force =     0.00000000    0.00000000    0.00000000
     The SCF correction term to forces
     atom    1 type  1   force =     0.00000000   -0.00000000   -0.00000000
     atom    2 type  1   force =     0.00000000   -0.00000000    0.00000000
     atom    3 type  1   force =     0.00000000    0.00000000    0.00000000
     atom    4 type  1   force =    -0.00000000    0.00000000    0.00000000
     atom    5 type  1   force =    -0.00000000    0.00000000   -0.00000000
     atom    6 type  2   force =     0.00000000   -0.00000000    0.00000000
     atom    7 type  2   force =     0.00000000    0.00000000   -0.00000000
     atom    8 type  3   force =     0.00000000   -0.00000000    0.00000000
     atom    9 type  3   force =    -0.00000000   -0.00000000    0.00000000
     atom   10 type  3   force =     0.00076846   -0.00530577    0.00354165
     atom   11 type  3   force =     0.00043558   -0.00039164   -0.00393113
     atom   12 type  3   force =    -0.00045686    0.00773338    0.00704319
     atom   13 type  3   force =    -0.00039220    0.00638160   -0.00794075
     atom   14 type  3   force =    -0.00103818   -0.00703447    0.00349786
     atom   15 type  3   force =    -0.00125785   -0.00115744   -0.00391089
     atom   16 type  3   force =     0.00164853    0.00711521    0.00657325
     atom   17 type  3   force =     0.00031305    0.00562648   -0.00669629
     atom   18 type  4   force =     0.00164398    0.01110820    0.00765807
     atom   19 type  4   force =    -0.00362656   -0.00216622    0.00557213
     atom   20 type  4   force =    -0.00216225   -0.00464504   -0.00791218
     atom   21 type  4   force =     0.00360398   -0.00059690    0.00627181
     atom   22 type  4   force =     0.00166768   -0.00310786   -0.00904910
     atom   23 type  5   force =    -0.00073341    0.00009646    0.00031941

     Total force =     2.290243     Total SCF correction =     0.031543

     Molecular Dynamics Calculation

     Starting temperature  =   300.00 K

     temperature is set once at start

     mass Hf               =   178.49
     mass Nb               =    92.91
     mass Ta               =   180.95
     mass Zr               =    91.22
     mass H                =     2.01
     Time step             =     4.20 a.u.,  0.2032 femto-seconds

     Entering Dynamics:    iteration =     1
                           time      =   0.0002 pico-seconds


ATOMIC_POSITIONS (angstrom)
Hf            2.6699999570        2.8271230292        6.6039642186    0   0   0
Hf            1.2529906802        1.2862841814        5.0584662261    0   0   0
Hf            1.2554868986        7.3898042948        5.0880677674    0   0   0
Hf            4.0870092338        1.2862841814        5.0584662261    0   0   0
Hf            4.0845130154        7.3898042948        5.0880677674    0   0   0
Nb            2.6699999570        2.7969306055        3.5155832167    0   0   0
Nb            2.6699999570        5.8763786763        6.6349979432    0   0   0
Ta            1.2093730560        4.3409278516        5.0711258323    0   0   0
Ta            4.1306268580        4.3409278516        5.0711258323    0   0   0
Ta            1.3072516410        1.3141220761        2.0587772990
Ta            1.3027872528        1.3083903551        8.0945809505
Ta            1.3040088639        7.3758268370        2.0462355028
Ta            1.3077100218        7.3650834536        8.0860038984
Ta            4.0327479448        1.3141219956        2.0587774387
Ta            4.0372123934        1.3083903818        8.0945808214
Ta            4.0359910010        7.3758269246        2.0462356160
Ta            4.0322898379        7.3650835702        8.0860038739
Zr            2.6700000816        5.8662868834        3.5273832623
Zr            1.2438261524        4.3220776890        1.9999932729
Zr            1.2403766970        4.3541235380        8.1497623991
Zr            4.0961732621        4.3220775458        1.9999933413
Zr            4.0996228185        4.3541235486        8.1497622315
H             4.7920127845        5.1009144299        5.0721615038


     kinetic energy (Ekin) =           0.91858963 Ry
     temperature           =        6906.37296904 K 
     Ekin + Etot (const)   =       -2941.46364236 Ry

     File outdir/pwscf.msd.dat deleted, as requested

     Writing config-only to output data dir outdir/pwscf.save/
     NEW-OLD atomic charge density approx. for the potential

     Check: negative core charge=   -0.000002

     negative rho (up, down):  9.066E-01 9.066E-01
     Generating pointlists ...
     new r_m :   0.1346 (alat units)  1.8675 (a.u.) for type    1

     total cpu time spent up to now is      506.1 secs

     Self-consistent Calculation

     iteration #  1     ecut=   120.00 Ry     beta= 0.70
     Davidson diagonalization with overlap
     ethr =  1.00E-06,  avg # of iterations =  7.0

     negative rho (up, down):  9.067E-01 9.067E-01

     total cpu time spent up to now is      567.2 secs

     total energy              =   -2942.41744899 Ry
     estimated scf accuracy    <       0.01864363 Ry

     total magnetization       =    -0.01 Bohr mag/cell
     absolute magnetization    =     0.01 Bohr mag/cell

     iteration #  2     ecut=   120.00 Ry     beta= 0.70
     Davidson diagonalization with overlap
     ethr =  6.73E-06,  avg # of iterations =  2.0

     negative rho (up, down):  9.066E-01 9.066E-01

     total cpu time spent up to now is      601.5 secs

     total energy              =   -2942.41862033 Ry
     estimated scf accuracy    <       0.00302759 Ry

     total magnetization       =    -0.01 Bohr mag/cell
     absolute magnetization    =     0.01 Bohr mag/cell

     iteration #  3     ecut=   120.00 Ry     beta= 0.70
     Davidson diagonalization with overlap
     ethr =  1.09E-06,  avg # of iterations =  2.0

     negative rho (up, down):  9.066E-01 9.066E-01

     Magnetic moment per site  (integrated on atomic sphere of radius R)
     atom   1 (R=0.135)  charge=  9.0294   -0.0000
     atom   2 (R=0.135)  charge=  8.7074    0.0000
     atom   3 (R=0.135)  charge=  8.7086   -0.0000
     atom   4 (R=0.135)  charge=  8.7117   -0.0000
     atom   5 (R=0.135)  charge=  8.6971   -0.0000
     atom   6 (R=0.140)  charge= 10.3524    0.0000
     atom   7 (R=0.140)  charge= 10.3501   -0.0000
     atom   8 (R=0.056)  charge=  1.3402   -0.0000
     atom   9 (R=0.056)  charge=  1.3564    0.0000
     atom  10 (R=0.056)  charge=  1.3376    0.0000
     atom  11 (R=0.056)  charge=  1.3371   -0.0000
     atom  12 (R=0.056)  charge=  1.3370   -0.0000
     atom  13 (R=0.056)  charge=  1.3373    0.0000
     atom  14 (R=0.056)  charge=  1.3384   -0.0000
     atom  15 (R=0.056)  charge=  1.3387    0.0000
     atom  16 (R=0.056)  charge=  1.3368   -0.0000
     atom  17 (R=0.056)  charge=  1.3382   -0.0000
     atom  18 (R=0.141)  charge=  9.4558   -0.0000
     atom  19 (R=0.141)  charge=  8.9925   -0.0006
     atom  20 (R=0.141)  charge=  8.9934   -0.0001
     atom  21 (R=0.141)  charge=  8.9952   -0.0007
     atom  22 (R=0.141)  charge=  8.9951   -0.0002
     atom  23 (R=0.056)  charge=  0.7581    0.0000

     total cpu time spent up to now is      634.9 secs

     End of self-consistent calculation

 ------ SPIN UP ------------


          k = 0.0000 0.0000 0.0000 ( 48454 PWs)   bands (ev):

   -57.8495 -57.8390 -57.8040 -57.7940 -57.7730 -57.7613 -57.7285 -57.7175
   -57.6047 -57.3958 -51.4070 -51.3594 -51.2769 -51.2126 -49.7360 -43.2399
   -43.2249 -38.6312 -38.6267 -38.5431 -38.5299 -36.8067 -25.8935 -24.8662
   -24.8548 -24.7775 -24.7725 -24.6623 -24.6461 -24.5486 -24.5202 -24.3910
   -24.3723 -24.3343 -24.3121 -24.3036 -24.2813 -24.2619 -24.2370 -24.2044
   -24.1965 -24.1369 -24.0394 -24.0280 -24.0177 -24.0135 -23.9742 -23.9565
   -23.9364 -23.9168 -23.6559 -23.6307 -21.1911 -20.9787 -20.6670 -20.5885
   -20.3173 -20.1828 -20.1610 -20.0546 -19.9456 -19.8764 -19.8561 -19.6357
   -19.4946 -19.4434 -19.3900 -19.3378 -19.2681 -19.2181 -18.8064 -18.7177
   -18.6663 -17.1864 -16.8878 -16.8589 -16.8198 -16.6334 -16.6153 -16.6114
   -16.5931 -16.5718 -16.5422 -16.3111 -16.3095 -15.1611 -14.9522 -14.8236
     4.0406   5.0794   5.7958   6.1365   6.2437   6.4908   6.5440   6.5931
     6.6042   6.8225   6.9348   7.0209   7.2182   7.3743   7.4439   7.5855
     7.7264   7.7520   7.9484   8.0301   8.0857   8.1535   8.2145   8.2535
     8.3710   8.4649   8.5496   8.6180   8.6612   8.7025   8.7557   8.7813
     8.8446   9.0072   9.0534   9.1517   9.1821   9.2554   9.2991   9.3142
     9.3729   9.4895   9.6348   9.7576   9.7944   9.9520   9.9659  10.0906
    10.1580  10.1784  10.3075  10.3485  10.3954  10.4265  10.5430  10.5927
    10.6977  10.7631  10.9115  10.9233  11.0176  11.0353  11.1354  11.2194
    11.2640  11.3656  11.3913  11.5800  11.6839  11.7594  11.8015  11.8172
    12.0017  12.1193  12.1463  12.1871  12.1891  12.2094  12.2275

 ------ SPIN DOWN ----------


          k = 0.0000 0.0000 0.0000 ( 48454 PWs)   bands (ev):

   -57.8496 -57.8391 -57.8040 -57.7941 -57.7730 -57.7614 -57.7285 -57.7176
   -57.6046 -57.3958 -51.4070 -51.3594 -51.2768 -51.2126 -49.7360 -43.2399
   -43.2249 -38.6319 -38.6269 -38.5432 -38.5306 -36.8068 -25.8934 -24.8663
   -24.8549 -24.7776 -24.7726 -24.6624 -24.6462 -24.5487 -24.5204 -24.3910
   -24.3724 -24.3342 -24.3122 -24.3038 -24.2814 -24.2620 -24.2370 -24.2045
   -24.1966 -24.1369 -24.0395 -24.0281 -24.0178 -24.0136 -23.9743 -23.9566
   -23.9365 -23.9169 -23.6558 -23.6307 -21.1911 -20.9787 -20.6670 -20.5886
   -20.3173 -20.1828 -20.1610 -20.0546 -19.9456 -19.8764 -19.8561 -19.6357
   -19.4947 -19.4434 -19.3900 -19.3378 -19.2681 -19.2181 -18.8065 -18.7178
   -18.6664 -17.1870 -16.8880 -16.8594 -16.8208 -16.6336 -16.6154 -16.6120
   -16.5937 -16.5722 -16.5424 -16.3118 -16.3100 -15.1612 -14.9522 -14.8237
     4.0406   5.0794   5.7956   6.1364   6.2437   6.4907   6.5439   6.5930
     6.6041   6.8224   6.9346   7.0208   7.2180   7.3742   7.4438   7.5853
     7.7262   7.7518   7.9482   8.0299   8.0856   8.1533   8.2143   8.2533
     8.3709   8.4647   8.5493   8.6176   8.6611   8.7024   8.7557   8.7812
     8.8445   9.0071   9.0532   9.1515   9.1819   9.2552   9.2990   9.3141
     9.3727   9.4893   9.6346   9.7573   9.7943   9.9518   9.9658  10.0900
    10.1578  10.1782  10.3067  10.3477  10.3952  10.4262  10.5427  10.5925
    10.6977  10.7628  10.9111  10.9229  11.0173  11.0351  11.1353  11.2192
    11.2637  11.3654  11.3912  11.5797  11.6836  11.7592  11.8012  11.8169
    12.0015  12.1192  12.1463  12.1869  12.1889  12.2091  12.2274

     the Fermi energy is    10.2701 ev

!    total energy              =   -2942.41857612 Ry
     estimated scf accuracy    <       0.00046870 Ry
     smearing contrib. (-TS)   =      -0.09667494 Ry
     internal energy E=F+TS    =   -2942.32190118 Ry

     total magnetization       =    -0.01 Bohr mag/cell
     absolute magnetization    =     0.01 Bohr mag/cell

     convergence has been achieved in   3 iterations

     negative rho (up, down):  9.066E-01 9.066E-01

     Forces acting on atoms (cartesian axes, Ry/au):

     atom    1 type  1   force =     0.01155843   -0.01981874    0.01216989
     atom    2 type  1   force =    -0.12970590   -0.02405696   -0.00062174
     atom    3 type  1   force =    -0.12873843    0.02231009    0.00644786
     atom    4 type  1   force =     0.15487441   -0.02490743   -0.00221515
     atom    5 type  1   force =     0.12744625   -0.01042122    0.00707027
     atom    6 type  2   force =     0.00727446   -0.01947239    0.00009339
     atom    7 type  2   force =    -0.00042729    0.01590746    0.00020114
     atom    8 type  3   force =    -0.14371220    0.00759719   -0.00336657
     atom    9 type  3   force =    -1.27402204   -1.61141299    0.01768702
     atom   10 type  3   force =    -0.03843926   -0.02128151   -0.06502782
     atom   11 type  3   force =    -0.03750593   -0.02909395    0.05893870
     atom   12 type  3   force =    -0.02594984    0.02982627   -0.05830771
     atom   13 type  3   force =    -0.02623330    0.02285062    0.05544906
     atom   14 type  3   force =     0.02620168   -0.02496202   -0.06040111
     atom   15 type  3   force =     0.02750050   -0.02947081    0.05522895
     atom   16 type  3   force =     0.02577186    0.03256810   -0.05487729
     atom   17 type  3   force =     0.02557406    0.02619278    0.05500891
     atom   18 type  4   force =     0.00180735    0.02220573   -0.01062436
     atom   19 type  4   force =    -0.15124239   -0.00656806   -0.11865534
     atom   20 type  4   force =    -0.15547760    0.00194729    0.11706672
     atom   21 type  4   force =     0.14276685   -0.00798071   -0.11699225
     atom   22 type  4   force =     0.14841002    0.00317368    0.11362405
     atom   23 type  5   force =     1.41226829    1.64486756   -0.00789661
     The non-local contrib.  to forces
     atom    1 type  1   force =     0.02126934    0.00846918    0.01370958
     atom    2 type  1   force =    -0.24720284   -0.17004150    0.01621821
     atom    3 type  1   force =    -0.24292826    0.16307278   -0.02734103
     atom    4 type  1   force =     0.25287292   -0.17055593    0.01741980
     atom    5 type  1   force =     0.23445482    0.14307849   -0.02802209
     atom    6 type  2   force =     0.00123962   -0.06321359   -0.06433547
     atom    7 type  2   force =    -0.00298495    0.09222617    0.04400733
     atom    8 type  3   force =    -0.26063428   -0.00158833   -0.00279945
     atom    9 type  3   force =     0.76077311    0.62834770    0.01367364
     atom   10 type  3   force =    -0.24833345    0.00431857   -0.22807759
     atom   11 type  3   force =    -0.24898600    0.00404019    0.21748194
     atom   12 type  3   force =    -0.22320874   -0.02605186   -0.19118815
     atom   13 type  3   force =    -0.23449590   -0.00279788    0.21746957
     atom   14 type  3   force =     0.22996658    0.00576344   -0.22433787
     atom   15 type  3   force =     0.23753841    0.00992147    0.21427361
     atom   16 type  3   force =     0.22450268   -0.02526975   -0.19087848
     atom   17 type  3   force =     0.23374937   -0.00664196    0.21627598
     atom   18 type  4   force =    -0.00485432    0.08373318   -0.04098962
     atom   19 type  4   force =     0.07776458    0.00627567    0.05676081
     atom   20 type  4   force =     0.07466830   -0.00111899   -0.05432198
     atom   21 type  4   force =    -0.06981963    0.00268349    0.04967476
     atom   22 type  4   force =    -0.06430036    0.00327767   -0.04253609
     atom   23 type  5   force =    -0.12687363   -0.15111157   -0.00349171
     The ionic contribution  to forces
     atom    1 type  1   force =    -0.21629166   -4.90242670   15.01947905
     atom    2 type  1   force =   -27.83361050   -6.24282046    0.78149910
     atom    3 type  1   force =   -27.84826647    6.38411641   -0.71339688
     atom    4 type  1   force =    27.75511460   -6.34842380    0.78075345
     atom    5 type  1   force =    27.51419528    7.16332655   -0.70786409
     atom    6 type  2   force =    -0.22627699   -3.87168184  -15.00000636
     atom    7 type  2   force =    -0.56596786    3.84805710   15.31342353
     atom    8 type  3   force =   -38.69936539   -0.08514430   -0.06740007
     atom    9 type  3   force =    33.99839705   -5.30560593   -0.07451706
     atom   10 type  3   force =   -24.85211112   -2.12545221  -24.62283832
     atom   11 type  3   force =   -23.92484092   -0.85894119   23.61875410
     atom   12 type  3   force =   -24.05432720    0.87451221  -23.71700650
     atom   13 type  3   force =   -24.83895712    2.28235014   24.65707936
     atom   14 type  3   force =    24.81443921   -2.15302403  -24.67244320
     atom   15 type  3   force =    23.88772683   -0.88606916   23.66810977
     atom   16 type  3   force =    23.97740000    0.97668282  -23.85808675
     atom   17 type  3   force =    24.76033388    2.38606357   24.80031207
     atom   18 type  4   force =    -0.53164045    4.60748679  -15.13994683
     atom   19 type  4   force =   -25.11631537    0.91828268  -27.14947097
     atom   20 type  4   force =   -25.07260123   -1.02415100   27.12948975
     atom   21 type  4   force =    24.99976835    0.84139676  -27.44939938
     atom   22 type  4   force =    24.95654668   -1.09823558   27.43130194
     atom   23 type  5   force =     7.11665041    4.61970116   -0.02782570
     The local contribution  to forces
     atom    1 type  1   force =     0.20492632    4.85638342  -15.00607609
     atom    2 type  1   force =    27.96116092    6.38042218   -0.78463217
     atom    3 type  1   force =    27.97279171   -6.51463020    0.76193356
     atom    4 type  1   force =   -27.86487261    6.48670699   -0.78820291
     atom    5 type  1   force =   -27.62405782   -7.31687452    0.75736125
     atom    6 type  2   force =     0.23335603    3.89745402   15.07300639
     atom    7 type  2   force =     0.57258161   -3.90761952  -15.34634188
     atom    8 type  3   force =    38.85165620    0.09076587    0.08570815
     atom    9 type  3   force =   -36.09369047    3.04911570    0.09490000
     atom   10 type  3   force =    25.08607590    2.07748288   24.80105285
     atom   11 type  3   force =    24.16425084    0.80323050  -23.79817985
     atom   12 type  3   force =    24.27437660   -0.78957866   23.86825176
     atom   13 type  3   force =    25.07254706   -2.22605126  -24.84354103
     atom   14 type  3   force =   -25.04200190    2.09909670   24.85230161
     atom   15 type  3   force =   -24.12688676    0.82359234  -23.84821366
     atom   16 type  3   force =   -24.19740309   -0.89151166   24.01154655
     atom   17 type  3   force =   -24.99258947   -2.32592973  -24.98461038
     atom   18 type  4   force =     0.54227748   -4.65180755   15.18191951
     atom   19 type  4   force =    24.89431937   -0.93604186   26.98505244
     atom   20 type  4   force =    24.85116554    1.02040714  -26.97635452
     atom   21 type  4   force =   -24.79341470   -0.85553340   27.29517621
     atom   22 type  4   force =   -24.75197933    1.09374661  -27.29453478
     atom   23 type  5   force =    -5.58057709   -2.82072576    0.02571298
     The core correction contribution to forces
     atom    1 type  1   force =     0.00193702    0.00554290   -0.00256594
     atom    2 type  1   force =    -0.01112930   -0.00167108    0.00084627
     atom    3 type  1   force =    -0.01127777    0.00268807   -0.00193013
     atom    4 type  1   force =     0.01237718   -0.00242539    0.00123073
     atom    5 type  1   force =     0.00565519    0.00619161   -0.00230926
     atom    6 type  2   force =     0.00042604    0.00338759    0.00312725
     atom    7 type  2   force =     0.00028926   -0.00459039   -0.00151808
     atom    8 type  3   force =    -0.03081429    0.00049454   -0.00044042
     atom    9 type  3   force =     0.04366177    0.02615095    0.00217444
     atom   10 type  3   force =    -0.02677586    0.00618552   -0.01701997
     atom   11 type  3   force =    -0.02785861    0.00712248    0.01699842
     atom   12 type  3   force =    -0.02479590   -0.00765888   -0.01475313
     atom   13 type  3   force =    -0.02551587   -0.00556320    0.01591728
     atom   14 type  3   force =     0.02556059    0.00602765   -0.01766705
     atom   15 type  3   force =     0.02696059    0.00759043    0.01786865
     atom   16 type  3   force =     0.02448727   -0.00682441   -0.01417609
     atom   17 type  3   force =     0.02475352   -0.00491763    0.01521901
     atom   18 type  4   force =     0.00038912   -0.00458014    0.00195485
     atom   19 type  4   force =    -0.01047827    0.00021784   -0.00859183
     atom   20 type  4   force =    -0.01044208   -0.00040153    0.00853368
     atom   21 type  4   force =     0.01000072    0.00035610   -0.00803356
     atom   22 type  4   force =     0.00976634   -0.00078091    0.00760684
     atom   23 type  5   force =     0.00000000    0.00000000    0.00000000
     The Hubbard contrib.    to forces
     atom    1 type  1   force =     0.00000000    0.00000000    0.00000000
     atom    2 type  1   force =     0.00000000    0.00000000    0.00000000
     atom    3 type  1   force =     0.00000000    0.00000000    0.00000000
     atom    4 type  1   force =     0.00000000    0.00000000    0.00000000
     atom    5 type  1   force =     0.00000000    0.00000000    0.00000000
     atom    6 type  2   force =     0.00000000    0.00000000    0.00000000
     atom    7 type  2   force =     0.00000000    0.00000000    0.00000000
     atom    8 type  3   force =     0.00000000    0.00000000    0.00000000
     atom    9 type  3   force =     0.00000000    0.00000000    0.00000000
     atom   10 type  3   force =     0.00000000    0.00000000    0.00000000
     atom   11 type  3   force =     0.00000000    0.00000000    0.00000000
     atom   12 type  3   force =     0.00000000    0.00000000    0.00000000
     atom   13 type  3   force =     0.00000000    0.00000000    0.00000000
     atom   14 type  3   force =     0.00000000    0.00000000    0.00000000
     atom   15 type  3   force =     0.00000000    0.00000000    0.00000000
     atom   16 type  3   force =     0.00000000    0.00000000    0.00000000
     atom   17 type  3   force =     0.00000000    0.00000000    0.00000000
     atom   18 type  4   force =     0.00000000    0.00000000    0.00000000
     atom   19 type  4   force =     0.00000000    0.00000000    0.00000000
     atom   20 type  4   force =     0.00000000    0.00000000    0.00000000
     atom   21 type  4   force =     0.00000000    0.00000000    0.00000000
     atom   22 type  4   force =     0.00000000    0.00000000    0.00000000
     atom   23 type  5   force =     0.00000000    0.00000000    0.00000000
     The SCF correction term to forces
     atom    1 type  1   force =    -0.00000000    0.00000000   -0.00000000
     atom    2 type  1   force =     0.00000000    0.00000000   -0.00000000
     atom    3 type  1   force =     0.00000000   -0.00000000   -0.00000000
     atom    4 type  1   force =    -0.00000000    0.00000000   -0.00000000
     atom    5 type  1   force =    -0.00000000   -0.00000000   -0.00000000
     atom    6 type  2   force =    -0.00000000    0.00000000   -0.00000000
     atom    7 type  2   force =    -0.00000000   -0.00000000   -0.00000000
     atom    8 type  3   force =    -0.00000000    0.00000000   -0.00000000
     atom    9 type  3   force =     0.00000000   -0.00000000   -0.00000000
     atom   10 type  3   force =     0.00260754    0.01623226    0.00280657
     atom   11 type  3   force =    -0.00016898    0.01550259    0.00483545
     atom   12 type  3   force =     0.00190766   -0.02134802   -0.00266032
     atom   13 type  3   force =     0.00009079   -0.02503865    0.00947525
     atom   14 type  3   force =    -0.00186053    0.01722275    0.00269677
     atom   15 type  3   force =     0.00206368    0.01554263    0.00414193
     atom   16 type  3   force =    -0.00331273   -0.02046037   -0.00233115
     atom   17 type  3   force =    -0.00077097   -0.02233294    0.00876359
     atom   18 type  4   force =    -0.00446222   -0.01257803   -0.01261091
     atom   19 type  4   force =     0.00336954    0.00474614   -0.00145442
     atom   20 type  4   force =     0.00163413    0.00726019    0.01067115
     atom   21 type  4   force =    -0.00386562    0.00316486   -0.00345891
     atom   22 type  4   force =    -0.00172104    0.00521441    0.01273751
     atom   23 type  5   force =     0.00297088   -0.00294775   -0.00134081

     Total force =     2.210111     Total SCF correction =     0.064013

     Entering Dynamics:    iteration =     2
                           time      =   0.0004 pico-seconds


ATOMIC_POSITIONS (angstrom)
Hf            2.6699999570        2.8271230292        6.6039642186    0   0   0
Hf            1.2529906802        1.2862841814        5.0584662261    0   0   0
Hf            1.2554868986        7.3898042948        5.0880677674    0   0   0
Hf            4.0870092338        1.2862841814        5.0584662261    0   0   0
Hf            4.0845130154        7.3898042948        5.0880677674    0   0   0
Nb            2.6699999570        2.7969306055        3.5155832167    0   0   0
Nb            2.6699999570        5.8763786763        6.6349979432    0   0   0
Ta            1.2093730560        4.3409278516        5.0711258323    0   0   0
Ta            4.1306268580        4.3409278516        5.0711258323    0   0   0
Ta            1.3072484222        1.3141203583        2.0587718074
Ta            1.3027840685        1.3083879275        8.0945860346
Ta            1.3040066369        7.3758292380        2.0462305255
Ta            1.3077077603        7.3650852521        8.0860087143
Ta            4.0327501428        1.3141199890        2.0587723485
Ta            4.0372147435        1.3083879595        8.0945855663
Ta            4.0359931688        7.3758295685        2.0462309462
Ta            4.0322920076        7.3650856744        8.0860086405
Zr            2.6700004090        5.8662904165        3.5273814014
Zr            1.2438007060        4.3220766760        1.9999732245
Zr            1.2403505259        4.3541240100        8.1497823919
Zr            4.0961972574        4.3220762311        1.9999735480
Zr            4.0996477975        4.3541241689        8.1497816702
H             4.7534736313        5.1630866495        5.0721030568


     kinetic energy (Ekin) =           0.95464463 Ry
     temperature           =        7177.45072915 K 
     Ekin + Etot (const)   =       -2941.46393149 Ry

     Writing config-only to output data dir outdir/pwscf.save/
     NEW-OLD atomic charge density approx. for the potential

     Check: negative core charge=   -0.000002

     negative rho (up, down):  9.067E-01 9.067E-01
     Generating pointlists ...
     new r_m :   0.1307 (alat units)  1.8124 (a.u.) for type    1

     total cpu time spent up to now is      655.8 secs

     Self-consistent Calculation

     iteration #  1     ecut=   120.00 Ry     beta= 0.70
     Davidson diagonalization with overlap
     ethr =  1.00E-06,  avg # of iterations = 13.0

     negative rho (up, down):  9.063E-01 9.063E-01

     total cpu time spent up to now is      722.5 secs

     total energy              =   -2942.50321309 Ry
     estimated scf accuracy    <       0.11401214 Ry

     total magnetization       =    -0.01 Bohr mag/cell
     absolute magnetization    =     0.01 Bohr mag/cell

     iteration #  2     ecut=   120.00 Ry     beta= 0.70
     Davidson diagonalization with overlap
     ethr =  4.12E-05,  avg # of iterations =  2.0

     negative rho (up, down):  9.065E-01 9.065E-01

     total cpu time spent up to now is      755.4 secs

     total energy              =   -2942.51023926 Ry
     estimated scf accuracy    <       0.03685729 Ry

     total magnetization       =    -0.00 Bohr mag/cell
     absolute magnetization    =     0.01 Bohr mag/cell

     iteration #  3     ecut=   120.00 Ry     beta= 0.70
     Davidson diagonalization with overlap
     ethr =  1.33E-05,  avg # of iterations =  2.0

     negative rho (up, down):  9.066E-01 9.066E-01

     total cpu time spent up to now is      790.6 secs

     total energy              =   -2942.51255288 Ry
     estimated scf accuracy    <       0.00194685 Ry

     total magnetization       =    -0.00 Bohr mag/cell
     absolute magnetization    =     0.01 Bohr mag/cell

     iteration #  4     ecut=   120.00 Ry     beta= 0.70
     Davidson diagonalization with overlap
     ethr =  7.03E-07,  avg # of iterations =  2.0

     negative rho (up, down):  9.066E-01 9.066E-01

     Magnetic moment per site  (integrated on atomic sphere of radius R)
     atom   1 (R=0.131)  charge=  8.7953   -0.0000
     atom   2 (R=0.131)  charge=  8.5113   -0.0000
     atom   3 (R=0.131)  charge=  8.5127   -0.0000
     atom   4 (R=0.131)  charge=  8.5171   -0.0000
     atom   5 (R=0.131)  charge=  8.5014   -0.0000
     atom   6 (R=0.140)  charge= 10.3536   -0.0000
     atom   7 (R=0.140)  charge= 10.3514   -0.0000
     atom   8 (R=0.056)  charge=  1.3405   -0.0000
     atom   9 (R=0.056)  charge=  1.3556   -0.0000
     atom  10 (R=0.056)  charge=  1.3375    0.0000
     atom  11 (R=0.056)  charge=  1.3366   -0.0000
     atom  12 (R=0.056)  charge=  1.3369    0.0000
     atom  13 (R=0.056)  charge=  1.3370    0.0000
     atom  14 (R=0.056)  charge=  1.3383   -0.0000
     atom  15 (R=0.056)  charge=  1.3383   -0.0000
     atom  16 (R=0.056)  charge=  1.3367   -0.0000
     atom  17 (R=0.056)  charge=  1.3378   -0.0000
     atom  18 (R=0.141)  charge=  9.4577   -0.0000
     atom  19 (R=0.141)  charge=  9.0003   -0.0004
     atom  20 (R=0.141)  charge=  8.9936   -0.0001
     atom  21 (R=0.141)  charge=  9.0033   -0.0005
     atom  22 (R=0.141)  charge=  8.9951   -0.0001
     atom  23 (R=0.056)  charge=  0.7261    0.0000

     total cpu time spent up to now is      826.3 secs

     End of self-consistent calculation

 ------ SPIN UP ------------


          k = 0.0000 0.0000 0.0000 ( 48454 PWs)   bands (ev):

   -57.8358 -57.8334 -57.7908 -57.7885 -57.7565 -57.7559 -57.7122 -57.7121
   -57.6044 -57.3130 -51.4162 -51.3700 -51.2846 -51.2145 -49.7408 -43.2494
   -43.2165 -38.6388 -38.6207 -38.5380 -38.5369 -36.8004 -25.6823 -24.8529
   -24.8498 -24.7682 -24.7637 -24.6494 -24.6397 -24.5316 -24.5149 -24.3837
   -24.3643 -24.3288 -24.3012 -24.2958 -24.2743 -24.2527 -24.2319 -24.1952
   -24.1846 -24.1388 -24.0256 -24.0141 -24.0134 -24.0073 -23.9603 -23.9521
   -23.9203 -23.9116 -23.6467 -23.6181 -21.1954 -20.9830 -20.6707 -20.5937
   -20.3223 -20.1914 -20.1659 -20.0589 -19.9497 -19.8836 -19.8596 -19.6407
   -19.4945 -19.4425 -19.3944 -19.3423 -19.2683 -19.2179 -18.8081 -18.7210
   -18.6690 -17.1938 -16.8829 -16.8660 -16.8287 -16.6277 -16.6181 -16.6110
   -16.5986 -16.5716 -16.5397 -16.3202 -16.3041 -15.1550 -14.9486 -14.8208
     3.9820   5.0253   5.8017   6.1382   6.2457   6.4949   6.5422   6.5972
     6.6083   6.8199   6.9388   7.0425   7.2165   7.3888   7.4447   7.5902
     7.7277   7.7692   7.9539   8.0332   8.0927   8.1573   8.2151   8.2598
     8.3748   8.4678   8.5505   8.6117   8.6641   8.6924   8.7493   8.7941
     8.8452   9.0123   9.0536   9.1561   9.1865   9.2594   9.3041   9.3225
     9.3726   9.4970   9.6426   9.7524   9.7953   9.9402   9.9654  10.0930
    10.1608  10.1805  10.3004  10.3476  10.3984  10.4352  10.5485  10.5933
    10.6965  10.7673  10.9137  10.9245  11.0178  11.0446  11.1373  11.2240
    11.2638  11.3774  11.3939  11.5798  11.6842  11.7597  11.8026  11.8215
    12.0028  12.1091  12.1441  12.1905  12.1923  12.2136  12.2288

 ------ SPIN DOWN ----------


          k = 0.0000 0.0000 0.0000 ( 48454 PWs)   bands (ev):

   -57.8359 -57.8334 -57.7908 -57.7885 -57.7565 -57.7559 -57.7122 -57.7121
   -57.6044 -57.3130 -51.4162 -51.3700 -51.2846 -51.2145 -49.7408 -43.2494
   -43.2165 -38.6392 -38.6208 -38.5384 -38.5370 -36.8005 -25.6823 -24.8529
   -24.8499 -24.7683 -24.7637 -24.6495 -24.6398 -24.5316 -24.5150 -24.3837
   -24.3643 -24.3288 -24.3013 -24.2959 -24.2743 -24.2527 -24.2319 -24.1953
   -24.1846 -24.1388 -24.0256 -24.0141 -24.0134 -24.0074 -23.9603 -23.9522
   -23.9203 -23.9117 -23.6467 -23.6181 -21.1954 -20.9830 -20.6708 -20.5938
   -20.3223 -20.1914 -20.1659 -20.0589 -19.9497 -19.8836 -19.8597 -19.6407
   -19.4945 -19.4426 -19.3945 -19.3423 -19.2683 -19.2179 -18.8082 -18.7210
   -18.6690 -17.1942 -16.8831 -16.8664 -16.8294 -16.6278 -16.6184 -16.6111
   -16.5990 -16.5718 -16.5399 -16.3208 -16.3042 -15.1551 -14.9487 -14.8209
     3.9819   5.0252   5.8016   6.1381   6.2457   6.4948   6.5421   6.5971
     6.6082   6.8198   6.9387   7.0424   7.2164   7.3887   7.4446   7.5901
     7.7276   7.7691   7.9537   8.0331   8.0926   8.1572   8.2150   8.2597
     8.3747   8.4676   8.5503   8.6114   8.6639   8.6922   8.7492   8.7940
     8.8452   9.0123   9.0535   9.1560   9.1864   9.2593   9.3040   9.3225
     9.3725   9.4969   9.6425   9.7522   9.7952   9.9401   9.9653  10.0926
    10.1606  10.1804  10.2998  10.3471  10.3983  10.4350  10.5484  10.5931
    10.6964  10.7672  10.9135  10.9243  11.0177  11.0445  11.1373  11.2239
    11.2636  11.3773  11.3938  11.5797  11.6840  11.7595  11.8024  11.8213
    12.0026  12.1090  12.1441  12.1904  12.1922  12.2135  12.2287

     the Fermi energy is    10.2709 ev

!    total energy              =   -2942.51196944 Ry
     estimated scf accuracy    <       0.00080073 Ry
     smearing contrib. (-TS)   =      -0.09602406 Ry
     internal energy E=F+TS    =   -2942.41594538 Ry

     total magnetization       =    -0.00 Bohr mag/cell
     absolute magnetization    =     0.01 Bohr mag/cell

     convergence has been achieved in   4 iterations

     negative rho (up, down):  9.066E-01 9.066E-01

     Forces acting on atoms (cartesian axes, Ry/au):

     atom    1 type  1   force =     0.00890244   -0.00918452    0.00536660
     atom    2 type  1   force =    -0.12915206   -0.01538007   -0.01106432
     atom    3 type  1   force =    -0.12862018    0.01155919   -0.00250560
     atom    4 type  1   force =     0.15668555   -0.01676685   -0.01235509
     atom    5 type  1   force =     0.12456556   -0.02189295   -0.00093963
     atom    6 type  2   force =     0.00577905   -0.01858280    0.00249581
     atom    7 type  2   force =    -0.00305264    0.01397582    0.00378736
     atom    8 type  3   force =    -0.14275332    0.00747087   -0.00656644
     atom    9 type  3   force =    -1.03177955   -1.51384993    0.01196820
     atom   10 type  3   force =    -0.03932410   -0.01495225   -0.06061368
     atom   11 type  3   force =    -0.03828581   -0.02261797    0.06290681
     atom   12 type  3   force =    -0.02576215    0.02212593   -0.05633050
     atom   13 type  3   force =    -0.02536111    0.01351141    0.06114817
     atom   14 type  3   force =     0.02699715   -0.01847350   -0.05685335
     atom   15 type  3   force =     0.02889349   -0.02397500    0.05972507
     atom   16 type  3   force =     0.02574176    0.02465208   -0.05295109
     atom   17 type  3   force =     0.02544874    0.01742826    0.06064105
     atom   18 type  4   force =    -0.00213072    0.01550497   -0.01366125
     atom   19 type  4   force =    -0.15004802   -0.00504174   -0.11679615
     atom   20 type  4   force =    -0.15380590    0.00436271    0.12273677
     atom   21 type  4   force =     0.14143137   -0.00651929   -0.11630252
     atom   22 type  4   force =     0.14713873    0.00467921    0.12098235
     atom   23 type  5   force =     1.17849172    1.55196642   -0.00481856
     The non-local contrib.  to forces
     atom    1 type  1   force =     0.01950636    0.01256336    0.01031325
     atom    2 type  1   force =    -0.24653675   -0.16550723    0.00969159
     atom    3 type  1   force =    -0.24255297    0.15761351   -0.03269665
     atom    4 type  1   force =     0.25270954   -0.16454792    0.01126799
     atom    5 type  1   force =     0.23123564    0.13193716   -0.03267817
     atom    6 type  2   force =     0.00166481   -0.06200070   -0.06273556
     atom    7 type  2   force =    -0.00148874    0.09083409    0.04414174
     atom    8 type  3   force =    -0.26129131   -0.00026964   -0.00793366
     atom    9 type  3   force =     0.66214466    0.60064748    0.00659711
     atom   10 type  3   force =    -0.24911958    0.00975435   -0.22531481
     atom   11 type  3   force =    -0.25083220    0.01033028    0.21883512
     atom   12 type  3   force =    -0.22389371   -0.03196230   -0.19259905
     atom   13 type  3   force =    -0.23548093   -0.01074486    0.22140944
     atom   14 type  3   force =     0.23231882    0.01005065   -0.22298174
     atom   15 type  3   force =     0.24086394    0.01415218    0.21596280
     atom   16 type  3   force =     0.22486835   -0.03047059   -0.19119382
     atom   17 type  3   force =     0.23509594   -0.01338021    0.21933594
     atom   18 type  4   force =    -0.00459731    0.07827337   -0.04647343
     atom   19 type  4   force =     0.07672867    0.00725855    0.05513388
     atom   20 type  4   force =     0.07444856    0.00092613   -0.05097383
     atom   21 type  4   force =    -0.06988382    0.00395864    0.04723718
     atom   22 type  4   force =    -0.06523018    0.00481523   -0.03856611
     atom   23 type  5   force =    -0.11324379   -0.15862124   -0.00301515
     The ionic contribution  to forces
     atom    1 type  1   force =    -0.20983028   -4.90170198   15.01554446
     atom    2 type  1   force =   -27.83646637   -6.23445057    0.78151513
     atom    3 type  1   force =   -27.85850811    6.38772234   -0.71332093
     atom    4 type  1   force =    27.76013834   -6.32757302    0.78079791
     atom    5 type  1   force =    27.50060416    7.23900144   -0.70709981
     atom    6 type  2   force =    -0.21951003   -3.87058591  -14.99573019
     atom    7 type  2   force =    -0.59413873    3.83984918   15.34129545
     atom    8 type  3   force =   -38.71905550   -0.09640091   -0.06740573
     atom    9 type  3   force =    34.57087718   -5.34657804   -0.07364774
     atom   10 type  3   force =   -24.85328232   -2.12102848  -24.62171134
     atom   11 type  3   force =   -23.92601070   -0.85452104   23.61763729
     atom   12 type  3   force =   -24.05746191    0.87532857  -23.72005535
     atom   13 type  3   force =   -24.84210659    2.28313472   24.66013609
     atom   14 type  3   force =    24.81602353   -2.14569277  -24.67042623
     atom   15 type  3   force =    23.88930086   -0.87875431   23.66611809
     atom   16 type  3   force =    23.97771231    0.98104754  -23.86931305
     atom   17 type  3   force =    24.76059553    2.39042344   24.81167253
     atom   18 type  4   force =    -0.55822622    4.59963030  -15.16586526
     atom   19 type  4   force =   -25.11976542    0.91427551  -27.14741185
     atom   20 type  4   force =   -25.07606733   -1.02819263   27.12748033
     atom   21 type  4   force =    25.00553066    0.83205165  -27.44457819
     atom   22 type  4   force =    24.96227943   -1.10772703   27.42671249
     atom   23 type  5   force =     6.62736751    4.57074198   -0.03234409
     The local contribution  to forces
     atom    1 type  1   force =     0.19546718    4.89777900  -15.03862714
     atom    2 type  1   force =    27.96535934    6.40070547   -0.82608981
     atom    3 type  1   force =    27.98275176   -6.55367977    0.72420149
     atom    4 type  1   force =   -27.86937786    6.48872275   -0.82733043
     atom    5 type  1   force =   -27.61113318   -7.41285480    0.72059810
     atom    6 type  2   force =     0.22009988    3.93996380   15.04402175
     atom    7 type  2   force =     0.58792371   -3.93542073  -15.39841619
     atom    8 type  3   force =    38.86373564    0.10618041    0.04276174
     atom    9 type  3   force =   -36.30315502    3.21312894    0.05107531
     atom   10 type  3   force =    25.08545582    2.11447043   24.81240929
     atom   11 type  3   force =    24.16761454    0.83929308  -23.78945291
     atom   12 type  3   force =    24.27602716   -0.84326082   23.87637716
     atom   13 type  3   force =    25.07871998   -2.28915075  -24.83217940
     atom   14 type  3   force =   -25.04369834    2.13747588   24.86337144
     atom   15 type  3   force =   -24.12852658    0.85851791  -23.84013325
     atom   16 type  3   force =   -24.19942739   -0.94841282   24.02682538
     atom   17 type  3   force =   -24.99731198   -2.38785779  -24.98204875
     atom   18 type  4   force =     0.55620026   -4.68171891   15.18150041
     atom   19 type  4   force =    24.90392686   -0.92176687   26.98567864
     atom   20 type  4   force =    24.86181728    1.03978942  -26.95476899
     atom   21 type  4   force =   -24.80598071   -0.83934547   27.28779426
     atom   22 type  4   force =   -24.76438357    1.11400960  -27.26440799
     atom   23 type  5   force =    -5.33598057   -2.85982790    0.02698778
     The core correction contribution to forces
     atom    1 type  1   force =     0.00184304    0.00525619   -0.00208549
     atom    2 type  1   force =    -0.01105027   -0.00143693    0.00079799
     atom    3 type  1   force =    -0.01115304    0.00271058   -0.00191139
     atom    4 type  1   force =     0.01258558   -0.00216213    0.00117998
     atom    5 type  1   force =     0.00471979    0.00633032   -0.00222953
     atom    6 type  2   force =     0.00035569    0.00331702    0.00300671
     atom    7 type  2   force =     0.00018172   -0.00452907   -0.00149011
     atom    8 type  3   force =    -0.03062603    0.00052551   -0.00042043
     atom    9 type  3   force =     0.03655383    0.02291334    0.00171327
     atom   10 type  3   force =    -0.02689347    0.00627513   -0.01685034
     atom   11 type  3   force =    -0.02821138    0.00722604    0.01714445
     atom   12 type  3   force =    -0.02476541   -0.00755575   -0.01487052
     atom   13 type  3   force =    -0.02564544   -0.00554543    0.01614319
     atom   14 type  3   force =     0.02564904    0.00596211   -0.01773640
     atom   15 type  3   force =     0.02720821    0.00756295    0.01813961
     atom   16 type  3   force =     0.02463777   -0.00670934   -0.01421879
     atom   17 type  3   force =     0.02505566   -0.00491584    0.01538223
     atom   18 type  4   force =     0.00031439   -0.00454093    0.00206009
     atom   19 type  4   force =    -0.01042090    0.00022564   -0.00850852
     atom   20 type  4   force =    -0.01038223   -0.00042335    0.00848517
     atom   21 type  4   force =     0.00999671    0.00033302   -0.00795518
     atom   22 type  4   force =     0.00978112   -0.00079590    0.00757666
     atom   23 type  5   force =     0.00000000    0.00000000    0.00000000
     The Hubbard contrib.    to forces
     atom    1 type  1   force =     0.00000000    0.00000000    0.00000000
     atom    2 type  1   force =     0.00000000    0.00000000    0.00000000
     atom    3 type  1   force =     0.00000000    0.00000000    0.00000000
     atom    4 type  1   force =     0.00000000    0.00000000    0.00000000
     atom    5 type  1   force =     0.00000000    0.00000000    0.00000000
     atom    6 type  2   force =     0.00000000    0.00000000    0.00000000
     atom    7 type  2   force =     0.00000000    0.00000000    0.00000000
     atom    8 type  3   force =     0.00000000    0.00000000    0.00000000
     atom    9 type  3   force =     0.00000000    0.00000000    0.00000000
     atom   10 type  3   force =     0.00000000    0.00000000    0.00000000
     atom   11 type  3   force =     0.00000000    0.00000000    0.00000000
     atom   12 type  3   force =     0.00000000    0.00000000    0.00000000
     atom   13 type  3   force =     0.00000000    0.00000000    0.00000000
     atom   14 type  3   force =     0.00000000    0.00000000    0.00000000
     atom   15 type  3   force =     0.00000000    0.00000000    0.00000000
     atom   16 type  3   force =     0.00000000    0.00000000    0.00000000
     atom   17 type  3   force =     0.00000000    0.00000000    0.00000000
     atom   18 type  4   force =     0.00000000    0.00000000    0.00000000
     atom   19 type  4   force =     0.00000000    0.00000000    0.00000000
     atom   20 type  4   force =     0.00000000    0.00000000    0.00000000
     atom   21 type  4   force =     0.00000000    0.00000000    0.00000000
     atom   22 type  4   force =     0.00000000    0.00000000    0.00000000
     atom   23 type  5   force =     0.00000000    0.00000000    0.00000000
     The SCF correction term to forces
     atom    1 type  1   force =     0.00000000   -0.00000000    0.00000000
     atom    2 type  1   force =    -0.00000000   -0.00000000    0.00000000
     atom    3 type  1   force =     0.00000000    0.00000000    0.00000000
     atom    4 type  1   force =     0.00000000   -0.00000000    0.00000000
     atom    5 type  1   force =    -0.00000000    0.00000000    0.00000000
     atom    6 type  2   force =     0.00000000   -0.00000000    0.00000000
     atom    7 type  2   force =     0.00000000    0.00000000    0.00000000
     atom    8 type  3   force =     0.00000000   -0.00000000    0.00000000
     atom    9 type  3   force =     0.00000000   -0.00000000    0.00000000
     atom   10 type  3   force =     0.00438058   -0.02427974   -0.01064222
     atom   11 type  3   force =    -0.00098093   -0.02480238   -0.00275287
     atom   12 type  3   force =     0.00419685    0.02972017   -0.00667848
     atom   13 type  3   force =    -0.00098299    0.03596169   -0.00585690
     atom   14 type  3   force =    -0.00343077   -0.02612542   -0.01057617
     atom   15 type  3   force =    -0.00008782   -0.02530979   -0.00185793
     atom   16 type  3   force =    -0.00218415    0.02934123   -0.00654655
     atom   17 type  3   force =     0.00187873    0.03330261   -0.00519665
     atom   18 type  4   force =     0.00404329    0.02400508    0.01362120
     atom   19 type  4   force =    -0.00065211   -0.00489063   -0.00318404
     atom   20 type  4   force =    -0.00375705   -0.00759291   -0.00898164
     atom   21 type  4   force =     0.00163366   -0.00337319   -0.00029632
     atom   22 type  4   force =     0.00455706   -0.00547875   -0.01182843
     atom   23 type  5   force =     0.00021371   -0.00018247    0.00205716

     Total force =     1.995232     Total SCF correction =     0.091062

     Entering Dynamics:    iteration =     3
                           time      =   0.0006 pico-seconds


ATOMIC_POSITIONS (angstrom)
Hf            2.6699999570        2.8271230292        6.6039642186    0   0   0
Hf            1.2529906802        1.2862841814        5.0584662261    0   0   0
Hf            1.2554868986        7.3898042948        5.0880677674    0   0   0
Hf            4.0870092338        1.2862841814        5.0584662261    0   0   0
Hf            4.0845130154        7.3898042948        5.0880677674    0   0   0
Nb            2.6699999570        2.7969306055        3.5155832167    0   0   0
Nb            2.6699999570        5.8763786763        6.6349979432    0   0   0
Ta            1.2093730560        4.3409278516        5.0711258323    0   0   0
Ta            4.1306268580        4.3409278516        5.0711258323    0   0   0
Ta            1.3072429777        1.3141177942        2.0587628851
Ta            1.3027787173        1.3083842198        8.0945946791
Ta            1.3040029519        7.3758328914        2.0462223600
Ta            1.3077040635        7.3650878153        8.0860169913
Ta            4.0327538688        1.3141169367        2.0587640405
Ta            4.0372187289        1.3083841802        8.0945936916
Ta            4.0359967936        7.3758336077        2.0462232794
Ta            4.0322956178        7.3650887651        8.0860168393
Zr            2.6700004973        5.8662956902        3.5273780067
Zr            1.2437584138        4.3220750971        1.9999400635
Zr            1.2403070872        4.3541249719        8.1498161643
Zr            4.0962371312        4.3220741844        1.9999406975
Zr            4.0996892956        4.3541253146        8.1498146914
H             4.7209273732        5.2331509668        5.0720201063


     kinetic energy (Ekin) =           1.04706854 Ry
     temperature           =        7872.33557602 K 
     Ekin + Etot (const)   =       -2941.46490090 Ry

     Writing config-only to output data dir outdir/pwscf.save/
     NEW-OLD atomic charge density approx. for the potential

     Check: negative core charge=   -0.000002

     negative rho (up, down):  9.067E-01 9.067E-01
     Generating pointlists ...
     new r_m :   0.1264 (alat units)  1.7529 (a.u.) for type    1

     total cpu time spent up to now is      847.1 secs

     Self-consistent Calculation

     iteration #  1     ecut=   120.00 Ry     beta= 0.70
     Davidson diagonalization with overlap
     ethr =  1.00E-06,  avg # of iterations = 16.0

     negative rho (up, down):  9.071E-01 9.071E-01

     total cpu time spent up to now is      920.7 secs

     total energy              =   -2942.61581520 Ry
     estimated scf accuracy    <       0.29774486 Ry

     total magnetization       =    -0.00 Bohr mag/cell
     absolute magnetization    =     0.00 Bohr mag/cell

     iteration #  2     ecut=   120.00 Ry     beta= 0.70
     Davidson diagonalization with overlap
     ethr =  1.07E-04,  avg # of iterations =  2.0

     negative rho (up, down):  9.067E-01 9.067E-01

     total cpu time spent up to now is      953.8 secs

     total energy              =   -2942.63511931 Ry
     estimated scf accuracy    <       0.09541349 Ry

     total magnetization       =    -0.00 Bohr mag/cell
     absolute magnetization    =     0.00 Bohr mag/cell

[...]
   -43.2132 -38.6409 -38.6288 -38.5450 -38.5406 -36.8286 -24.8601 -24.8527
   -24.7699 -24.7692 -24.6617 -24.6432 -24.5350 -24.5236 -24.4217 -24.3749
   -24.3491 -24.3158 -24.3001 -24.2792 -24.2604 -24.2293 -24.2011 -24.1950
   -24.1390 -24.1269 -24.0279 -24.0240 -24.0144 -24.0116 -23.9640 -23.9529
   -23.9230 -23.9213 -23.9078 -23.8933 -21.1824 -20.9746 -20.6467 -20.5587
   -20.2999 -20.1624 -20.1257 -20.0288 -19.9278 -19.8490 -19.8160 -19.6033
   -19.4984 -19.4298 -19.3796 -19.3286 -19.2634 -19.2159 -18.7418 -18.6604
   -18.6050 -17.1886 -16.8788 -16.8719 -16.8287 -16.6432 -16.6241 -16.6201
   -16.6064 -16.5821 -16.5416 -16.3155 -16.3011 -15.1834 -14.9836 -14.8347
     3.2488   4.7582   5.8007   6.1267   6.2624   6.4716   6.5108   6.5988
     6.6154   6.8109   6.9332   7.1001   7.2046   7.4093   7.4985   7.5868
     7.7059   7.8621   8.0198   8.0388   8.1336   8.1848   8.2214   8.2659
     8.4054   8.4455   8.5214   8.5682   8.6526   8.6742   8.7227   8.7949
     8.8573   9.0134   9.0515   9.1388   9.1928   9.2497   9.3039   9.3574
     9.3770   9.5033   9.6822   9.7134   9.7888   9.8572   9.9715  10.1023
    10.1733  10.2314  10.3425  10.3584  10.3945  10.4374  10.5444  10.5897
    10.6962  10.7628  10.9160  10.9441  11.0146  11.0374  11.1852  11.2216
    11.2612  11.3839  11.3944  11.5742  11.6928  11.7865  11.8017  11.8146
    12.0013  12.0575  12.1369  12.1707  12.1937  12.2092  12.2152

     the Fermi energy is    10.2835 ev

!    total energy              =   -2943.21274684 Ry
     estimated scf accuracy    <       0.00018424 Ry
     smearing contrib. (-TS)   =      -0.09589244 Ry
     internal energy E=F+TS    =   -2943.11685440 Ry

     total magnetization       =    -0.00 Bohr mag/cell
     absolute magnetization    =     0.00 Bohr mag/cell

     convergence has been achieved in   5 iterations

     negative rho (up, down):  9.079E-01 9.079E-01

     Forces acting on atoms (cartesian axes, Ry/au):

     atom    1 type  1   force =     0.00039856   -0.02874023    0.01552941
     atom    2 type  1   force =    -0.13384135   -0.02011246    0.00005773
     atom    3 type  1   force =    -0.12695301    0.01706237    0.00740212
     atom    4 type  1   force =     0.15567734   -0.00910189   -0.00137036
     atom    5 type  1   force =     0.08925994    0.06509952    0.01661297
     atom    6 type  2   force =     0.00339260   -0.02158283    0.00373199
     atom    7 type  2   force =    -0.01554336    0.01097706    0.01099904
     atom    8 type  3   force =    -0.12646940    0.00241114   -0.00287041
     atom    9 type  3   force =     0.03954641   -0.20652646   -0.00133196
     atom   10 type  3   force =    -0.04010104   -0.01938279   -0.05954919
     atom   11 type  3   force =    -0.04191402   -0.02557968    0.05438631
     atom   12 type  3   force =    -0.01792555    0.02719867   -0.06097122
     atom   13 type  3   force =    -0.02055911    0.02323719    0.05803953
     atom   14 type  3   force =     0.02761393   -0.02415178   -0.06200068
     atom   15 type  3   force =     0.03309246   -0.03205368    0.05760061
     atom   16 type  3   force =     0.02463416    0.03525313   -0.06115562
     atom   17 type  3   force =     0.02439579    0.03011829    0.05741510
     atom   18 type  4   force =    -0.01433112    0.01766978   -0.01944442
     atom   19 type  4   force =    -0.14176846   -0.00471767   -0.12258833
     atom   20 type  4   force =    -0.14862218    0.00507180    0.11972354
     atom   21 type  4   force =     0.13721050   -0.00524053   -0.12263075
     atom   22 type  4   force =     0.14615180    0.00199013    0.11987205
     atom   23 type  5   force =     0.14665512    0.16110092   -0.00745748
     The non-local contrib.  to forces
     atom    1 type  1   force =     0.00225999   -0.00262643    0.03750369
     atom    2 type  1   force =    -0.24852727   -0.16547167    0.01366075
     atom    3 type  1   force =    -0.23877660    0.15718970   -0.02714760
     atom    4 type  1   force =     0.24835129   -0.21350544    0.01534882
     atom    5 type  1   force =     0.18454763    0.18555984   -0.02145370
     atom    6 type  2   force =     0.00445036   -0.06540578   -0.05542725
     atom    7 type  2   force =     0.00137390    0.08453509    0.05849015
     atom    8 type  3   force =    -0.25614655    0.00537987   -0.00493296
     atom    9 type  3   force =     0.17449306    0.00278631   -0.00476187
     atom   10 type  3   force =    -0.24445076    0.01623227   -0.22067452
     atom   11 type  3   force =    -0.25022879    0.01686863    0.21638727
     atom   12 type  3   force =    -0.21515614   -0.03124839   -0.19806262
     atom   13 type  3   force =    -0.22720536   -0.01109548    0.22337136
     atom   14 type  3   force =     0.23748638    0.00646766   -0.22176713
     atom   15 type  3   force =     0.24453810    0.01000537    0.21233826
     atom   16 type  3   force =     0.22783432   -0.02655331   -0.18982638
     atom   17 type  3   force =     0.23371944   -0.00858453    0.21695092
     atom   18 type  4   force =    -0.00093572    0.07822366   -0.06606873
     atom   19 type  4   force =     0.07212660   -0.00020202    0.05882403
     atom   20 type  4   force =     0.06843103    0.00014285   -0.05499671
     atom   21 type  4   force =    -0.07580933    0.00220569    0.04603605
     atom   22 type  4   force =    -0.07091036    0.00056787   -0.03965900
     atom   23 type  5   force =    -0.03902700   -0.03019759   -0.00229700
     The ionic contribution  to forces
     atom    1 type  1   force =    -0.14087035   -4.83154541   14.96451493
     atom    2 type  1   force =   -27.84510614   -6.14886067    0.78174972
     atom    3 type  1   force =   -27.93113447    6.39670217   -0.71209478
     atom    4 type  1   force =    27.77603594   -6.12217233    0.78116384
     atom    5 type  1   force =    27.16759091    8.28292494   -0.69227840
     atom    6 type  2   force =    -0.14785391   -3.79374933  -14.94068806
     atom    7 type  2   force =    -0.75305610    3.63364203   15.50901347
     atom    8 type  3   force =   -38.76512660   -0.17553583   -0.06745476
     atom    9 type  3   force =    37.66937113   -2.97674700   -0.06719344
     atom   10 type  3   force =   -24.85310990   -2.07356475  -24.61054124
     atom   11 type  3   force =   -23.92584173   -0.80713501   23.60653004
     atom   12 type  3   force =   -24.07341088    0.86906860  -23.74508772
     atom   13 type  3   force =   -24.85735369    2.27607197   24.68450837
     atom   14 type  3   force =    24.81748000   -2.06809472  -24.65585687
     atom   15 type  3   force =    23.89074487   -0.80138142   23.65168999
     atom   16 type  3   force =    23.96673490    0.99255230  -23.97714139
     atom   17 type  3   force =    24.74845364    2.40102340   24.91990566
     atom   18 type  4   force =    -0.70848141    4.40395464  -15.32052173
     atom   19 type  4   force =   -25.11614310    0.88410571  -27.10904375
     atom   20 type  4   force =   -25.07231439   -1.05835782   27.08927516
     atom   21 type  4   force =    25.02590536    0.77442515  -27.34316940
     atom   22 type  4   force =    24.98233347   -1.16690697   27.32626969
     atom   23 type  5   force =     4.14515245    1.10958033   -0.07354933
     The local contribution  to forces
     atom    1 type  1   force =     0.13828886    4.79597246  -14.97767160
     atom    2 type  1   force =    27.97182671    6.29385426   -0.78116526
     atom    3 type  1   force =    28.05222667   -6.54145774    0.76412341
     atom    4 type  1   force =   -27.88158412    6.33313052   -0.78381258
     atom    5 type  1   force =   -27.26146041   -8.41018114    0.74820273
     atom    6 type  2   force =     0.14632613    3.83691156   15.00458992
     atom    7 type  2   force =     0.73420304   -3.69725137  -15.54216466
     atom    8 type  3   force =    38.92395440    0.17383540    0.08290013
     atom    9 type  3   force =   -37.81797762    2.77501373    0.08500262
     atom   10 type  3   force =    25.08757519    2.03488064   24.78287041
     atom   11 type  3   force =    24.15954653    0.75283135  -23.78797197
     atom   12 type  3   force =    24.29635356   -0.80675701   23.89357875
     atom   13 type  3   force =    25.08582089   -2.23214803  -24.86978840
     atom   14 type  3   force =   -25.05717237    2.03838248   24.82901341
     atom   15 type  3   force =   -24.12649496    0.74769402  -23.82672543
     atom   16 type  3   force =   -24.19983496   -0.92816111   24.11524316
     atom   17 type  3   force =   -24.98099328   -2.35270526  -25.09760880
     atom   18 type  4   force =     0.69193911   -4.46375797   15.37127759
     atom   19 type  4   force =    24.91857903   -0.88906787   26.93294025
     atom   20 type  4   force =    24.86008351    1.06438436  -26.92420140
     atom   21 type  4   force =   -24.82989169   -0.78365642   27.17857301
     atom   22 type  4   force =   -24.77044245    1.16888471  -27.17468436
     atom   23 type  5   force =    -3.95943775   -0.91805263    0.07079195
     The core correction contribution to forces
     atom    1 type  1   force =     0.00025362    0.00464062    0.00078285
     atom    2 type  1   force =    -0.01144509   -0.00096732    0.00109039
     atom    3 type  1   force =    -0.00924089    0.00450164   -0.00196734
     atom    4 type  1   force =     0.01318711   -0.00714092    0.00135021
     atom    5 type  1   force =    -0.00136263    0.00636310   -0.00126914
     atom    6 type  2   force =    -0.00022443    0.00324894    0.00208891
     atom    7 type  2   force =     0.00020049   -0.00421437   -0.00209872
     atom    8 type  3   force =    -0.02953455   -0.00001049   -0.00027966
     atom    9 type  3   force =     0.01433806   -0.00782901   -0.00122062
     atom   10 type  3   force =    -0.02702712    0.00697823   -0.01602411
     atom   11 type  3   force =    -0.02859950    0.00754893    0.01691067
     atom   12 type  3   force =    -0.02386574   -0.00794952   -0.01544496
     atom   13 type  3   force =    -0.02451762   -0.00623704    0.01644632
     atom   14 type  3   force =     0.02572544    0.00585472   -0.01730077
     atom   15 type  3   force =     0.02711550    0.00743359    0.01747187
     atom   16 type  3   force =     0.02557520   -0.00723679   -0.01360623
     atom   17 type  3   force =     0.02514264   -0.00558638    0.01468183
     atom   18 type  4   force =     0.00027663   -0.00435345    0.00330927
     atom   19 type  4   force =    -0.01006094    0.00052005   -0.00881054
     atom   20 type  4   force =    -0.01006003   -0.00045133    0.00868238
     atom   21 type  4   force =     0.01033631    0.00048673   -0.00794187
     atom   22 type  4   force =     0.01023758   -0.00047646    0.00763394
     atom   23 type  5   force =     0.00000000    0.00000000    0.00000000
     The Hubbard contrib.    to forces
     atom    1 type  1   force =     0.00000000    0.00000000    0.00000000
     atom    2 type  1   force =     0.00000000    0.00000000    0.00000000
     atom    3 type  1   force =     0.00000000    0.00000000    0.00000000
     atom    4 type  1   force =     0.00000000    0.00000000    0.00000000
     atom    5 type  1   force =     0.00000000    0.00000000    0.00000000
     atom    6 type  2   force =     0.00000000    0.00000000    0.00000000
     atom    7 type  2   force =     0.00000000    0.00000000    0.00000000
     atom    8 type  3   force =     0.00000000    0.00000000    0.00000000
     atom    9 type  3   force =     0.00000000    0.00000000    0.00000000
     atom   10 type  3   force =     0.00000000    0.00000000    0.00000000
     atom   11 type  3   force =     0.00000000    0.00000000    0.00000000
     atom   12 type  3   force =     0.00000000    0.00000000    0.00000000
     atom   13 type  3   force =     0.00000000    0.00000000    0.00000000
     atom   14 type  3   force =     0.00000000    0.00000000    0.00000000
     atom   15 type  3   force =     0.00000000    0.00000000    0.00000000
     atom   16 type  3   force =     0.00000000    0.00000000    0.00000000
     atom   17 type  3   force =     0.00000000    0.00000000    0.00000000
     atom   18 type  4   force =     0.00000000    0.00000000    0.00000000
     atom   19 type  4   force =     0.00000000    0.00000000    0.00000000
     atom   20 type  4   force =     0.00000000    0.00000000    0.00000000
     atom   21 type  4   force =     0.00000000    0.00000000    0.00000000
     atom   22 type  4   force =     0.00000000    0.00000000    0.00000000
     atom   23 type  5   force =     0.00000000    0.00000000    0.00000000
     The SCF correction term to forces
     atom    1 type  1   force =     0.00000000    0.00000000   -0.00000000
     atom    2 type  1   force =    -0.00000000    0.00000000   -0.00000000
     atom    3 type  1   force =    -0.00000000    0.00000000   -0.00000000
     atom    4 type  1   force =    -0.00000000    0.00000000   -0.00000000
     atom    5 type  1   force =    -0.00000000    0.00000000   -0.00000000
     atom    6 type  2   force =     0.00000000   -0.00000000   -0.00000000
     atom    7 type  2   force =     0.00000000   -0.00000000   -0.00000000
     atom    8 type  3   force =     0.00000000   -0.00000000   -0.00000000
     atom    9 type  3   force =    -0.00000000    0.00000000   -0.00000000
     atom   10 type  3   force =    -0.00309493   -0.00399307    0.00583763
     atom   11 type  3   force =     0.00320299    0.00422254    0.00354766
     atom   12 type  3   force =    -0.00185284    0.00400110    0.00506268
     atom   13 type  3   force =     0.00269019   -0.00343812    0.00451924
     atom   14 type  3   force =     0.00408800   -0.00684581    0.00492804
     atom   15 type  3   force =    -0.00281753    0.00411087    0.00384328
     atom   16 type  3   force =     0.00431822    0.00456814    0.00519257
     atom   17 type  3   force =    -0.00193313   -0.00411284    0.00450283
     atom   18 type  4   force =     0.00286378    0.00351900   -0.00642347
     atom   19 type  4   force =    -0.00627653   -0.00015743    0.00451904
     atom   20 type  4   force =     0.00523121   -0.00073016    0.00198147
     atom   21 type  4   force =     0.00666336    0.00121441    0.00488882
     atom   22 type  4   force =    -0.00507293   -0.00016291    0.00132914
     atom   23 type  5   force =    -0.00003907   -0.00031308   -0.00138575

     Total force =     0.480273     Total SCF correction =     0.025933

     Entering Dynamics:    iteration =    10
                           time      =   0.0020 pico-seconds


ATOMIC_POSITIONS (angstrom)
Hf            2.6699999570        2.8271230292        6.6039642186    0   0   0
Hf            1.2529906802        1.2862841814        5.0584662261    0   0   0
Hf            1.2554868986        7.3898042948        5.0880677674    0   0   0
Hf            4.0870092338        1.2862841814        5.0584662261    0   0   0
Hf            4.0845130154        7.3898042948        5.0880677674    0   0   0
Nb            2.6699999570        2.7969306055        3.5155832167    0   0   0
Nb            2.6699999570        5.8763786763        6.6349979432    0   0   0
Ta            1.2093730560        4.3409278516        5.0711258323    0   0   0
Ta            4.1306268580        4.3409278516        5.0711258323    0   0   0
Ta            1.3071419444        1.3140691391        2.0586028417
Ta            1.3026783960        1.3083175547        8.0947476151
Ta            1.3039433640        7.3759031255        2.0460716313
Ta            1.3076427871        7.3651408024        8.0861672796
Ta            4.0328227951        1.3140572061        2.0586089996
Ta            4.0372943553        1.3083097583        8.0947436128
Ta            4.0360614036        7.3759131952        2.0460787850
Ta            4.0323597736        7.3651514216        8.0861661192
Zr            2.6699718843        5.8663952423        3.5272991822
Zr            1.2429984839        4.3220459475        1.9993332150
Zr            1.2395259984        4.3541422528        8.1504269853
Zr            4.0969579656        4.3220407418        1.9993357350
Zr            4.1004407816        4.3541429709        8.1504177032
H             4.5732180326        5.8548017519        5.0705892938


     kinetic energy (Ekin) =           1.74443657 Ry
     temperature           =       13115.46431113 K 
     Ekin + Etot (const)   =       -2941.46831027 Ry

     The maximum number of steps has been reached.

     End of molecular dynamics calculation

     diffusion coefficients :
     atom     1   D =       0.00000000 cm^2/s
     atom     2   D =       0.00000000 cm^2/s
     atom     3   D =       0.00000000 cm^2/s
     atom     4   D =       0.00000000 cm^2/s
     atom     5   D =       0.00000000 cm^2/s
     atom     6   D =       0.00000000 cm^2/s
     atom     7   D =       0.00000000 cm^2/s
     atom     8   D =       0.00000000 cm^2/s
     atom     9   D =       0.00000000 cm^2/s
     atom    10   D =       0.00000000 cm^2/s
     atom    11   D =       0.00000000 cm^2/s
     atom    12   D =       0.00000000 cm^2/s
     atom    13   D =       0.00000000 cm^2/s
     atom    14   D =       0.00000000 cm^2/s
     atom    15   D =       0.00000000 cm^2/s
     atom    16   D =       0.00000000 cm^2/s
     atom    17   D =       0.00000000 cm^2/s
     atom    18   D =       0.00000000 cm^2/s
     atom    19   D =       0.00000001 cm^2/s
     atom    20   D =       0.00000001 cm^2/s
     atom    21   D =       0.00000001 cm^2/s
     atom    22   D =       0.00000001 cm^2/s
     atom    23   D =       0.00592512 cm^2/s

     < D > =       0.00042323 cm^2/s

     Writing all to output data dir outdir/pwscf.save/

     init_run     :     22.02s CPU     22.43s WALL (       1 calls)
     electrons    :   2088.10s CPU   2120.76s WALL (      10 calls)
     update_pot   :     22.48s CPU     22.59s WALL (       9 calls)
     forces       :    160.35s CPU    162.61s WALL (      10 calls)

     Called by init_run:
     wfcinit      :     17.07s CPU     17.25s WALL (       1 calls)
     potinit      :      1.05s CPU      1.08s WALL (       1 calls)
     hinit0       :      1.77s CPU      1.80s WALL (       1 calls)

     Called by electrons:
     c_bands      :   1689.84s CPU   1700.47s WALL (      52 calls)
     sum_band     :    282.52s CPU    294.78s WALL (      52 calls)
     v_of_rho     :     12.88s CPU     13.30s WALL (      62 calls)
     newd         :    123.39s CPU    134.06s WALL (      62 calls)
     mix_rho      :      0.99s CPU      1.02s WALL (      52 calls)

     Called by c_bands:
     init_us_2    :      2.83s CPU      2.84s WALL (     230 calls)
     init_us_2:cp :      2.82s CPU      2.84s WALL (     230 calls)
     regterg      :   1675.52s CPU   1686.09s WALL (     104 calls)

     Called by *egterg:
     rdiaghg      :     28.83s CPU     29.19s WALL (     687 calls)
     h_psi        :    694.72s CPU    702.68s WALL (     707 calls)
     s_psi        :    252.71s CPU    253.06s WALL (     707 calls)
     g_psi        :      0.52s CPU      0.53s WALL (     601 calls)

     Called by h_psi:
     h_psi:calbec :    315.56s CPU    316.18s WALL (     707 calls)
     vloc_psi     :    124.25s CPU    131.23s WALL (     707 calls)
     add_vuspsi   :    253.78s CPU    254.15s WALL (     707 calls)

     General routines
     calbec       :    533.16s CPU    534.11s WALL (     891 calls)
     fft          :     11.64s CPU     12.17s WALL (    1089 calls)
     ffts         :      0.27s CPU      0.31s WALL (      52 calls)
     fftw         :    127.64s CPU    134.87s WALL (   53740 calls)

     Parallel routines

     PWSCF        :  38m32.79s CPU  39m10.27s WALL


   This run was terminated on:   9: 0:21  11Jun2023            

=------------------------------------------------------------------------------=
   JOB DONE.
=------------------------------------------------------------------------------=
