
     Program PWSCF v.7.2 starts on 11Jun2023 at  4:59:53 

     This program is part of the open-source Quantum ESPRESSO suite
     for quantum simulation of materials; please cite
         "P. Giannozzi et al., J. Phys.:Condens. Matter 21 395502 (2009);
         "P. Giannozzi et al., J. Phys.:Condens. Matter 29 465901 (2017);
         "P. Giannozzi et al., J. Chem. Phys. 152 154105 (2020);
          URL http://www.quantum-espresso.org", 
     in publications or presentations arising from this work. More details at
     http://www.quantum-espresso.org/quote

     Parallel version (MPI), running on    12 processors

     MPI processes distributed on     1 nodes
     75769 MiB available memory on the printing compute node when the environment starts

     Reading input from md_data/md_Hf5Nb2Ta10Zr5H_10steps_100eV_incident0_polar0.in
Warning: card &CELL ignored
Warning: card / ignored

     Current dimensions of program PWSCF are:
     Max number of different atomic species (ntypx) = 10
     Max number of k-points (npk) =  40000
     Max angular momentum in pseudopotentials (lmaxx) =  4

     File outdir/pwscf.md deleted, as requested

     gamma-point specific algorithms are used

     R & G space division:  proc/nbgrp/npool/nimage =      12
     Subspace diagonalization in iterative solution of the eigenvalue problem:
     one sub-group per band group will be used
     custom distributed-memory algorithm (size of sub-group:  2*  2 procs)


     Parallelization info
     --------------------
     sticks:   dense  smooth     PW     G-vecs:    dense   smooth      PW
     Min         723     723    180                64572    64572    8072
     Max         724     724    182                64584    64584    8078
     Sum        8687    8687   2177               774967   774967   96907

     Using Slab Decomposition



     bravais-lattice index     =            0
     lattice parameter (alat)  =      13.8706  a.u.
     unit-cell volume          =    4363.8306 (a.u.)^3
     number of atoms/cell      =           23
     number of atomic types    =            5
     number of electrons       =       277.00
     number of Kohn-Sham states=          167
     kinetic-energy cutoff     =     120.0000  Ry
     charge density cutoff     =     480.0000  Ry
     scf convergence threshold =      1.0E-03
     mixing beta               =       0.7000
     number of iterations used =            8  TF        mixing
     energy convergence thresh.=      0.0E+00
     force convergence thresh. =      0.0E+00
     Exchange-correlation=  SLA  PW   PBX  PBC
                           (   1   4   3   4   0   0   0)
     nstep                     =           10


     celldm(1)=  13.870589  celldm(2)=   0.000000  celldm(3)=   0.000000
     celldm(4)=   0.000000  celldm(5)=   0.000000  celldm(6)=   0.000000

     crystal axes: (cart. coord. in units of alat)
               a(1) = (   1.000000   0.000000   0.000000 )  
               a(2) = (   0.000000   1.182561   0.000000 )  
               a(3) = (   0.000000   0.000000   1.382801 )  

     reciprocal axes: (cart. coord. in units 2 pi/alat)
               b(1) = (  1.000000  0.000000  0.000000 )  
               b(2) = (  0.000000  0.845622  0.000000 )  
               b(3) = (  0.000000  0.000000  0.723170 )  


     PseudoPot. # 1 for Hf read from file:
     q-e/pseudo/hf_pbe_v1.uspp.F.UPF
     MD5 check sum: 8ee9378dfe14276e333edf04c5e4aa26
     Pseudo is Ultrasoft + core correction, Zval = 12.0
     Generated by new atomic code, or converted to UPF format
     Using radial grid of  921 points,  8 beta functions with: 
                l(1) =   0
                l(2) =   0
                l(3) =   0
                l(4) =   1
                l(5) =   1
                l(6) =   2
                l(7) =   2
                l(8) =   3
     Q(r) pseudized with  6 coefficients,  rinner =    1.200   1.200   1.200
                                                       1.200   1.200   1.200
                                                       1.200

     PseudoPot. # 2 for Nb read from file:
     q-e/pseudo/nb_pbe_v1.uspp.F.UPF
     MD5 check sum: 573aab8a2fa660278ed4a62cd769473f
     Pseudo is Ultrasoft + core correction, Zval = 13.0
     Generated by new atomic code, or converted to UPF format
     Using radial grid of  887 points,  6 beta functions with: 
                l(1) =   0
                l(2) =   0
                l(3) =   1
                l(4) =   1
                l(5) =   2
                l(6) =   2
     Q(r) pseudized with  6 coefficients,  rinner =    1.000   1.000   1.000
                                                       1.000   1.000

     PseudoPot. # 3 for Ta read from file:
     q-e/pseudo/ta_pbe_v1.uspp.F.UPF
     MD5 check sum: f8bbe9446314a3b8ea5d9f3e3836c939
     Pseudo is Ultrasoft + core correction, Zval = 13.0
     Generated by new atomic code, or converted to UPF format
     Using radial grid of  921 points,  7 beta functions with: 
                l(1) =   0
                l(2) =   0
                l(3) =   1
                l(4) =   1
                l(5) =   2
                l(6) =   2
                l(7) =   3
     Q(r) pseudized with  6 coefficients,  rinner =    1.300   1.300   1.300
                                                       1.300   1.300   1.300
                                                       1.300

     PseudoPot. # 4 for Zr read from file:
     q-e/pseudo/zr_pbe_v1.uspp.F.UPF
     MD5 check sum: 5db81b1e868ab7776c4564c113de050b
     Pseudo is Ultrasoft + core correction, Zval = 12.0
     Generated by new atomic code, or converted to UPF format
     Using radial grid of  887 points,  6 beta functions with: 
                l(1) =   0
                l(2) =   0
                l(3) =   1
                l(4) =   1
                l(5) =   2
                l(6) =   2
     Q(r) pseudized with  6 coefficients,  rinner =    1.200   1.200   1.200
                                                       1.200   1.200

     PseudoPot. # 5 for H  read from file:
     q-e/pseudo/h_pbe_v1.4.uspp.F.UPF
     MD5 check sum: 761ae9a214b05c3daf00ab9f6b793d6f
     Pseudo is Ultrasoft, Zval =  1.0
     Generated by new atomic code, or converted to UPF format
     Using radial grid of  615 points,  2 beta functions with: 
                l(1) =   0
                l(2) =   0
     Q(r) pseudized with  8 coefficients,  rinner =    0.700

     atomic species   valence    mass     pseudopotential
        Hf            12.00   178.49000     Hf( 1.00)
        Nb            13.00    92.90637     Nb( 1.00)
        Ta            13.00   180.94788     Ta( 1.00)
        Zr            12.00    91.22400     Zr( 1.00)
        H              1.00     2.01400     H ( 1.00)

     Starting magnetic structure 
     atomic species   magnetization
        Hf           0.000
        Nb           0.000
        Ta           0.000
        Zr           0.000
        H            0.000

     No symmetry found



   Cartesian axes

     site n.     atom                  positions (alat units)
         1           Hf  tau(   1) = (   0.3637602   0.3851666   0.8997227  )
         2           Hf  tau(   2) = (   0.1707072   0.1752431   0.6891644  )
         3           Hf  tau(   3) = (   0.1710473   1.0067854   0.6931973  )
         4           Hf  tau(   4) = (   0.5568133   0.1752431   0.6891644  )
         5           Hf  tau(   5) = (   0.5564732   1.0067854   0.6931973  )
         6           Nb  tau(   6) = (   0.3637602   0.3810532   0.4789623  )
         7           Nb  tau(   7) = (   0.3637602   0.8005966   0.9039507  )
         8           Ta  tau(   8) = (   0.1647647   0.5914071   0.6908891  )
         9           Ta  tau(   9) = (   0.5627557   0.5914071   0.6908891  )
        10           Ta  tau(  10) = (   0.1780998   0.1790358   0.2804876  )
        11           Ta  tau(  11) = (   0.1774916   0.1782549   1.1028038  )
        12           Ta  tau(  12) = (   0.1776580   1.0048810   0.2787789  )
        13           Ta  tau(  13) = (   0.1781622   1.0034173   1.1016352  )
        14           Ta  tau(  14) = (   0.5494206   0.1790358   0.2804876  )
        15           Ta  tau(  15) = (   0.5500289   0.1782549   1.1028038  )
        16           Ta  tau(  16) = (   0.5498625   1.0048810   0.2787789  )
        17           Ta  tau(  17) = (   0.5493582   1.0034173   1.1016352  )
        18           Zr  tau(  18) = (   0.3637602   0.7992215   0.4805700  )
        19           Zr  tau(  19) = (   0.1694598   0.5888390   0.2724796  )
        20           Zr  tau(  20) = (   0.1689898   0.5932048   1.1103210  )
        21           Zr  tau(  21) = (   0.5580607   0.5888390   0.2724796  )
        22           Zr  tau(  22) = (   0.5585306   0.5932048   1.1103210  )
        23           H   tau(  23) = (   0.6989955   0.5912807   0.6910327  )

     number of k points=     1  Gaussian smearing, width (Ry)=  0.0220
                       cart. coord. in units 2pi/alat
        k(    1) = (   0.0000000   0.0000000   0.0000000), wk =   1.0000000

     Dense  grid:   387484 G-vectors     FFT dimensions: ( 100, 120, 135)

     Estimated max dynamical RAM per process >     326.54 MB

     Estimated total dynamical RAM >       3.83 GB

     Check: negative core charge=   -0.000002
     Generating pointlists ...
     new r_m :   0.1421 (alat units)  1.9717 (a.u.) for type    1
     new r_m :   0.1397 (alat units)  1.9374 (a.u.) for type    2
     new r_m :   0.0562 (alat units)  0.7795 (a.u.) for type    3
     new r_m :   0.1415 (alat units)  1.9625 (a.u.) for type    4
     new r_m :   0.0562 (alat units)  0.7795 (a.u.) for type    5

     Initial potential from superposition of free atoms

     starting charge     266.9726, renormalised to     277.0000

     negative rho (up, down):  9.202E-01 9.202E-01
     Starting wfcs are  287 randomized atomic wfcs

     total cpu time spent up to now is       24.9 secs

     Self-consistent Calculation

     iteration #  1     ecut=   120.00 Ry     beta= 0.70
     Davidson diagonalization with overlap
     ethr =  1.00E-02,  avg # of iterations =  3.0

     negative rho (up, down):  9.523E-01 9.523E-01

     total cpu time spent up to now is       70.4 secs

     total energy              =   -2932.99768458 Ry
     estimated scf accuracy    <     321.72424075 Ry

     total magnetization       =     0.00 Bohr mag/cell
     absolute magnetization    =     0.08 Bohr mag/cell

     iteration #  2     ecut=   120.00 Ry     beta= 0.70
     Davidson diagonalization with overlap
     ethr =  1.00E-02,  avg # of iterations =  5.0

     negative rho (up, down):  8.880E-01 8.880E-01

     total cpu time spent up to now is      111.1 secs

     total energy              =   -2941.21112155 Ry
     estimated scf accuracy    <      47.14940084 Ry

     total magnetization       =     0.01 Bohr mag/cell
     absolute magnetization    =     0.09 Bohr mag/cell

     iteration #  3     ecut=   120.00 Ry     beta= 0.70
     Davidson diagonalization with overlap
     ethr =  1.00E-02,  avg # of iterations =  4.0

     negative rho (up, down):  9.124E-01 9.122E-01

     total cpu time spent up to now is      147.7 secs

     total energy              =   -2941.68235792 Ry
     estimated scf accuracy    <      18.61760869 Ry

     total magnetization       =    -0.01 Bohr mag/cell
     absolute magnetization    =     0.11 Bohr mag/cell

     iteration #  4     ecut=   120.00 Ry     beta= 0.70
     Davidson diagonalization with overlap
     ethr =  6.72E-03,  avg # of iterations =  2.0

     negative rho (up, down):  9.195E-01 9.193E-01

     total cpu time spent up to now is      182.2 secs

     total energy              =   -2942.04883001 Ry
     estimated scf accuracy    <       3.64995524 Ry

     total magnetization       =    -0.00 Bohr mag/cell
     absolute magnetization    =     0.12 Bohr mag/cell

     iteration #  5     ecut=   120.00 Ry     beta= 0.70
     Davidson diagonalization with overlap
     ethr =  1.32E-03,  avg # of iterations =  7.5

     negative rho (up, down):  9.142E-01 9.140E-01

     total cpu time spent up to now is      223.8 secs

     total energy              =   -2942.26422786 Ry
     estimated scf accuracy    <       2.05746500 Ry

     total magnetization       =    -0.04 Bohr mag/cell
     absolute magnetization    =     0.19 Bohr mag/cell

     iteration #  6     ecut=   120.00 Ry     beta= 0.70
     Davidson diagonalization with overlap
     ethr =  7.43E-04,  avg # of iterations =  3.5

     negative rho (up, down):  9.131E-01 9.130E-01

     total cpu time spent up to now is      259.4 secs

     total energy              =   -2942.25968746 Ry
     estimated scf accuracy    <       0.82026692 Ry

     total magnetization       =    -0.01 Bohr mag/cell
     absolute magnetization    =     0.13 Bohr mag/cell

     iteration #  7     ecut=   120.00 Ry     beta= 0.70
     Davidson diagonalization with overlap
     ethr =  2.96E-04,  avg # of iterations =  6.0

     negative rho (up, down):  9.063E-01 9.063E-01

     total cpu time spent up to now is      297.2 secs

     total energy              =   -2942.29271821 Ry
     estimated scf accuracy    <       0.13018790 Ry

     total magnetization       =    -0.02 Bohr mag/cell
     absolute magnetization    =     0.14 Bohr mag/cell

     iteration #  8     ecut=   120.00 Ry     beta= 0.70
     Davidson diagonalization with overlap
     ethr =  4.70E-05,  avg # of iterations = 10.0

     negative rho (up, down):  9.041E-01 9.041E-01

     total cpu time spent up to now is      341.6 secs

     total energy              =   -2942.29586657 Ry
     estimated scf accuracy    <       0.07449705 Ry

     total magnetization       =    -0.02 Bohr mag/cell
     absolute magnetization    =     0.09 Bohr mag/cell

     iteration #  9     ecut=   120.00 Ry     beta= 0.70
     Davidson diagonalization with overlap
     ethr =  2.69E-05,  avg # of iterations =  2.0

     negative rho (up, down):  9.049E-01 9.049E-01

     total cpu time spent up to now is      378.4 secs

     total energy              =   -2942.30019279 Ry
     estimated scf accuracy    <       0.04673807 Ry

     total magnetization       =    -0.01 Bohr mag/cell
     absolute magnetization    =     0.07 Bohr mag/cell

     iteration # 10     ecut=   120.00 Ry     beta= 0.70
     Davidson diagonalization with overlap
     ethr =  1.69E-05,  avg # of iterations =  2.0

     negative rho (up, down):  9.059E-01 9.059E-01

     total cpu time spent up to now is      412.0 secs

     total energy              =   -2942.30262196 Ry
     estimated scf accuracy    <       0.00530251 Ry

     total magnetization       =    -0.01 Bohr mag/cell
     absolute magnetization    =     0.07 Bohr mag/cell

     iteration # 11     ecut=   120.00 Ry     beta= 0.70
     Davidson diagonalization with overlap
     ethr =  1.91E-06,  avg # of iterations = 13.5

     negative rho (up, down):  9.065E-01 9.065E-01

     total cpu time spent up to now is      457.7 secs

     total energy              =   -2942.30319094 Ry
     estimated scf accuracy    <       0.00194301 Ry

     total magnetization       =    -0.01 Bohr mag/cell
     absolute magnetization    =     0.05 Bohr mag/cell

     iteration # 12     ecut=   120.00 Ry     beta= 0.70
     Davidson diagonalization with overlap
     ethr =  7.01E-07,  avg # of iterations =  2.0

     negative rho (up, down):  9.064E-01 9.064E-01

     Magnetic moment per site  (integrated on atomic sphere of radius R)
     atom   1 (R=0.142)  charge=  9.4636   -0.0002
     atom   2 (R=0.142)  charge=  9.0584   -0.0001
     atom   3 (R=0.142)  charge=  9.0592   -0.0002
     atom   4 (R=0.142)  charge=  9.0571    0.0000
     atom   5 (R=0.142)  charge=  9.0583   -0.0001
     atom   6 (R=0.140)  charge= 10.3564    0.0000
     atom   7 (R=0.140)  charge= 10.3540   -0.0001
     atom   8 (R=0.056)  charge=  1.3451   -0.0000
     atom   9 (R=0.056)  charge=  1.3616   -0.0000
     atom  10 (R=0.056)  charge=  1.3417   -0.0000
     atom  11 (R=0.056)  charge=  1.3410    0.0001
     atom  12 (R=0.056)  charge=  1.3413    0.0000
     atom  13 (R=0.056)  charge=  1.3414    0.0000
     atom  14 (R=0.056)  charge=  1.3427   -0.0000
     atom  15 (R=0.056)  charge=  1.3426    0.0000
     atom  16 (R=0.056)  charge=  1.3412   -0.0000
     atom  17 (R=0.056)  charge=  1.3424   -0.0000
     atom  18 (R=0.141)  charge=  9.4600   -0.0002
     atom  19 (R=0.141)  charge=  9.0010   -0.0021
     atom  20 (R=0.141)  charge=  8.9985    0.0007
     atom  21 (R=0.141)  charge=  8.9987   -0.0017
     atom  22 (R=0.141)  charge=  8.9973    0.0010
     atom  23 (R=0.056)  charge=  0.7591   -0.0000

     total cpu time spent up to now is      492.7 secs

     End of self-consistent calculation

 ------ SPIN UP ------------


          k = 0.0000 0.0000 0.0000 ( 48454 PWs)   bands (ev):

   -57.8511 -57.8486 -57.8048 -57.8028 -57.7939 -57.7667 -57.7627 -57.7230
   -57.7185 -57.4775 -51.3889 -51.3429 -51.2648 -51.2195 -49.6960 -43.2129
   -43.1933 -38.5834 -38.5713 -38.4856 -38.4809 -36.7957 -26.1338 -24.8504
   -24.8479 -24.7653 -24.7601 -24.6783 -24.6680 -24.6065 -24.5468 -24.5354
   -24.3818 -24.3720 -24.3497 -24.3188 -24.3109 -24.2744 -24.2618 -24.2569
   -24.2042 -24.1967 -24.0343 -24.0330 -24.0241 -24.0123 -23.9585 -23.9509
   -23.9346 -23.9337 -23.7125 -23.6302 -21.1795 -20.9715 -20.6508 -20.5722
   -20.3084 -20.1661 -20.1396 -20.0427 -19.9352 -19.8551 -19.8461 -19.6254
   -19.4740 -19.4121 -19.3587 -19.3176 -19.2549 -19.2063 -18.7652 -18.6856
   -18.6389 -17.1437 -16.8266 -16.8149 -16.7688 -16.5815 -16.5728 -16.5652
   -16.5494 -16.5232 -16.4912 -16.2610 -16.2513 -15.1621 -14.9340 -14.8070
     4.0771   4.9307   5.8048   6.1318   6.3044   6.4345   6.5182   6.6065
     6.6148   6.8194   6.9556   7.1530   7.2272   7.4132   7.5436   7.5830
     7.7023   7.7445   7.9420   8.0407   8.0537   8.1951   8.2560   8.3091
     8.3576   8.4329   8.5325   8.5572   8.6381   8.6960   8.7567   8.8176
     8.8715   9.0076   9.0957   9.1827   9.1890   9.2688   9.3176   9.3932
     9.4136   9.4487   9.5674   9.8152   9.8584   9.9534  10.0285  10.1293
    10.1723  10.1961  10.3534  10.4018  10.4224  10.5082  10.5586  10.5712
    10.6646  10.8350  10.8398  10.9172  10.9635  11.0296  11.1322  11.2283
    11.2741  11.2936  11.3061  11.3977  11.5991  11.7250  11.8089  11.8345
    11.9140  12.0105  12.1793  12.1859  12.2013  12.2190  12.2252

 ------ SPIN DOWN ----------


          k = 0.0000 0.0000 0.0000 ( 48454 PWs)   bands (ev):

   -57.8508 -57.8489 -57.8044 -57.8030 -57.7940 -57.7669 -57.7619 -57.7230
   -57.7177 -57.4777 -51.3890 -51.3431 -51.2650 -51.2196 -49.6962 -43.2129
   -43.1934 -38.5850 -38.5704 -38.4849 -38.4825 -36.7959 -26.1341 -24.8502
   -24.8478 -24.7655 -24.7593 -24.6782 -24.6683 -24.6068 -24.5461 -24.5355
   -24.3818 -24.3719 -24.3498 -24.3186 -24.3108 -24.2745 -24.2613 -24.2563
   -24.2041 -24.1957 -24.0339 -24.0334 -24.0233 -24.0126 -23.9576 -23.9511
   -23.9345 -23.9333 -23.7127 -23.6304 -21.1796 -20.9716 -20.6509 -20.5724
   -20.3086 -20.1663 -20.1398 -20.0429 -19.9354 -19.8553 -19.8462 -19.6255
   -19.4742 -19.4123 -19.3588 -19.3177 -19.2550 -19.2063 -18.7654 -18.6858
   -18.6391 -17.1455 -16.8255 -16.8163 -16.7712 -16.5807 -16.5741 -16.5645
   -16.5507 -16.5225 -16.4905 -16.2635 -16.2503 -15.1623 -14.9343 -14.8075
     4.0769   4.9305   5.8047   6.1318   6.3040   6.4345   6.5179   6.6064
     6.6149   6.8192   6.9556   7.1528   7.2270   7.4131   7.5434   7.5830
     7.7020   7.7443   7.9417   8.0406   8.0536   8.1949   8.2563   8.3091
     8.3574   8.4327   8.5322   8.5571   8.6373   8.6960   8.7566   8.8173
     8.8714   9.0075   9.0957   9.1828   9.1888   9.2688   9.3175   9.3929
     9.4137   9.4485   9.5672   9.8153   9.8585   9.9534  10.0285  10.1284
    10.1718  10.1954  10.3523  10.4017  10.4226  10.5084  10.5590  10.5705
    10.6643  10.8348  10.8398  10.9168  10.9633  11.0299  11.1320  11.2285
    11.2738  11.2935  11.3059  11.3977  11.5993  11.7247  11.8086  11.8343
    11.9140  12.0104  12.1795  12.1860  12.2011  12.2193  12.2255

     the Fermi energy is    10.3030 ev

!    total energy              =   -2942.30333592 Ry
     estimated scf accuracy    <       0.00021832 Ry
     smearing contrib. (-TS)   =      -0.09814819 Ry
     internal energy E=F+TS    =   -2942.20518774 Ry

     total magnetization       =    -0.00 Bohr mag/cell
     absolute magnetization    =     0.03 Bohr mag/cell

     convergence has been achieved in  12 iterations

     negative rho (up, down):  9.064E-01 9.064E-01

     Forces acting on atoms (cartesian axes, Ry/au):

     atom    1 type  1   force =     0.00095493   -0.02509687    0.02048986
     atom    2 type  1   force =    -0.12982855   -0.01507474   -0.00318190
     atom    3 type  1   force =    -0.12761562    0.01230063    0.00260156
     atom    4 type  1   force =     0.13221942   -0.01574325   -0.00323021
     atom    5 type  1   force =     0.13002859    0.01284431    0.00313029
     atom    6 type  2   force =    -0.00068405   -0.01977160   -0.00944475
     atom    7 type  2   force =    -0.00074977    0.01819767    0.01245485
     atom    8 type  3   force =    -0.14827679    0.00304205   -0.00376470
     atom    9 type  3   force =    -2.09796458    0.00239549   -0.00539942
     atom   10 type  3   force =    -0.03201325   -0.02421962   -0.05818224
     atom   11 type  3   force =    -0.03601874   -0.03047394    0.05837000
     atom   12 type  3   force =    -0.02884440    0.02946765   -0.05704176
     atom   13 type  3   force =    -0.02689838    0.02347957    0.05831380
     atom   14 type  3   force =     0.03045775   -0.02128064   -0.05705185
     atom   15 type  3   force =     0.03483883   -0.02804171    0.05687192
     atom   16 type  3   force =     0.02745526    0.02693419   -0.05539462
     atom   17 type  3   force =     0.02558854    0.02066295    0.05692959
     atom   18 type  4   force =     0.00028136    0.02716988   -0.02539777
     atom   19 type  4   force =    -0.14577751   -0.00317535   -0.12022428
     atom   20 type  4   force =    -0.14939923    0.00559682    0.12297227
     atom   21 type  4   force =     0.14582880   -0.00416543   -0.12160867
     atom   22 type  4   force =     0.14980624    0.00645343    0.12420711
     atom   23 type  5   force =     2.24661118   -0.00150150    0.00358092
     The non-local contrib.  to forces
     atom    1 type  1   force =     0.00138686   -0.00182535    0.03279048
     atom    2 type  1   force =    -0.24508181   -0.16137629    0.01718618
     atom    3 type  1   force =    -0.24083588    0.15624481   -0.03100844
     atom    4 type  1   force =     0.24772562   -0.15901962    0.01726453
     atom    5 type  1   force =     0.24439410    0.15324682   -0.03106459
     atom    6 type  2   force =    -0.00635218   -0.08238150   -0.06539718
     atom    7 type  2   force =    -0.00683262    0.09489145    0.05920224
     atom    8 type  3   force =    -0.26700940   -0.00131374   -0.00380746
     atom    9 type  3   force =     1.01566732   -0.00188321   -0.00422822
     atom   10 type  3   force =    -0.22622063    0.00788881   -0.22044259
     atom   11 type  3   force =    -0.23202984    0.01015257    0.21365819
     atom   12 type  3   force =    -0.21161896   -0.02397164   -0.19542343
     atom   13 type  3   force =    -0.22073121   -0.00977900    0.21801030
     atom   14 type  3   force =     0.22637282    0.00836291   -0.22169416
     atom   15 type  3   force =     0.23407879    0.01011505    0.21447674
     atom   16 type  3   force =     0.21351829   -0.02408039   -0.19589106
     atom   17 type  3   force =     0.22083350   -0.01024401    0.21907722
     atom   18 type  4   force =    -0.00481804    0.09411040   -0.07406539
     atom   19 type  4   force =     0.08260666    0.00212243    0.04898918
     atom   20 type  4   force =     0.07825520   -0.00063303   -0.04446590
     atom   21 type  4   force =    -0.08221627    0.00183316    0.05163904
     atom   22 type  4   force =    -0.07818027   -0.00008549   -0.04714036
     atom   23 type  5   force =    -0.19466407    0.00026885    0.00015857
     The ionic contribution  to forces
     atom    1 type  1   force =    -0.29214385   -4.86967578   15.07382228
     atom    2 type  1   force =   -27.79521002   -6.33843383    0.78124131
     atom    3 type  1   force =   -27.79139218    6.32369256   -0.71391173
     atom    4 type  1   force =    27.65947235   -6.61479109    0.77983593
     atom    5 type  1   force =    27.65456033    6.60095391   -0.71227775
     atom    6 type  2   force =    -0.30660581   -3.84083407  -15.05911641
     atom    7 type  2   force =    -0.30666060    3.87749208   15.09425924
     atom    8 type  3   force =   -38.49361835    0.07371315   -0.06742486
     atom    9 type  3   force =    31.46015993    0.08021618   -0.07481392
     atom   10 type  3   force =   -24.83666062   -2.17127880  -24.64259975
     atom   11 type  3   force =   -23.90943669   -0.90473999   23.63837120
     atom   12 type  3   force =   -24.03263876    0.85020322  -23.68498018
     atom   13 type  3   force =   -24.81693060    2.25824197   24.62471082
     atom   14 type  3   force =    24.78942440   -2.22959461  -24.71280010
     atom   15 type  3   force =    23.86298590   -0.96244780   23.70805210
     atom   16 type  3   force =    23.98629240    0.90751224  -23.75427106
     atom   17 type  3   force =    24.76964803    2.31656023   24.69492182
     atom   18 type  4   force =    -0.28772781    4.63605768  -14.93633404
     atom   19 type  4   force =   -25.07659647    0.97403460  -27.16233438
     atom   20 type  4   force =   -25.03294361   -0.96807936   27.14157245
     atom   21 type  4   force =    24.95149644    0.97231436  -27.45336452
     atom   22 type  4   force =    24.90930157   -0.96673101   27.43147794
     atom   23 type  5   force =     8.93522402   -0.00438586    0.00596362
     The local contribution  to forces
     atom    1 type  1   force =     0.29111809    4.84181831  -15.08386329
     atom    2 type  1   force =    27.92111662    6.48327300   -0.80679398
     atom    3 type  1   force =    27.91618526   -6.46718298    0.74677289
     atom    4 type  1   force =   -27.78622574    6.75781387   -0.80577106
     atom    5 type  1   force =   -27.78081878   -6.74220854    0.74725541
     atom    6 type  2   force =     0.31128818    3.90405601   15.10107607
     atom    7 type  2   force =     0.31289860   -3.95036856  -15.13217089
     atom    8 type  3   force =    38.63916792   -0.06917654    0.06139690
     atom    9 type  3   force =   -34.63446204   -0.07450756    0.06832994
     atom   10 type  3   force =    25.05735538    2.12888755   24.81701951
     atom   11 type  3   force =    24.13128197    0.84970608  -23.80630029
     atom   12 type  3   force =    24.24426897   -0.78897895   23.83093532
     atom   13 type  3   force =    25.03714068   -2.22027128  -24.79135166
     atom   14 type  3   force =   -25.01354018    2.19160678   24.88978912
     atom   15 type  3   force =   -24.08936549    0.90961176  -23.87799014
     atom   16 type  3   force =   -24.20483804   -0.84758683   23.90174774
     atom   17 type  3   force =   -24.99226242   -2.28148850  -24.86418483
     atom   18 type  4   force =     0.29034089   -4.70078750   14.96873656
     atom   19 type  4   force =    24.86301889   -0.97725604   26.99655246
     atom   20 type  4   force =    24.81827778    0.98035815  -26.97455161
     atom   21 type  4   force =   -24.73941246   -0.97812331   27.28492648
     atom   22 type  4   force =   -24.69447846    0.97969977  -27.26216075
     atom   23 type  5   force =    -6.49328969    0.00261318   -0.00309460
     The core correction contribution to forces
     atom    1 type  1   force =     0.00072486    0.00762283   -0.00204473
     atom    2 type  1   force =    -0.01218577   -0.00007661    0.00116104
     atom    3 type  1   force =    -0.01247918    0.00067208   -0.00193032
     atom    4 type  1   force =     0.01232612   -0.00077417    0.00126445
     atom    5 type  1   force =     0.01259625    0.00129513   -0.00202841
     atom    6 type  2   force =     0.00038415    0.00403815    0.00246578
     atom    7 type  2   force =     0.00040310   -0.00468525   -0.00189613
     atom    8 type  3   force =    -0.03110292    0.00053901   -0.00071615
     atom    9 type  3   force =     0.06588191   -0.00047575   -0.00003732
     atom   10 type  3   force =    -0.02405100    0.00632470   -0.01628656
     atom   11 type  3   force =    -0.02556819    0.00769290    0.01696687
     atom   12 type  3   force =    -0.02351656   -0.00737970   -0.01555650
     atom   13 type  3   force =    -0.02351006   -0.00590567    0.01629595
     atom   14 type  3   force =     0.02487412    0.00648735   -0.01608507
     atom   15 type  3   force =     0.02634839    0.00789924    0.01676006
     atom   16 type  3   force =     0.02430680   -0.00765071   -0.01530627
     atom   17 type  3   force =     0.02428916   -0.00614221    0.01602361
     atom   18 type  4   force =     0.00031497   -0.00534076    0.00352491
     atom   19 type  4   force =    -0.01056755    0.00052392   -0.00811962
     atom   20 type  4   force =    -0.01042773   -0.00035447    0.00800377
     atom   21 type  4   force =     0.01066121    0.00052838   -0.00819406
     atom   22 type  4   force =     0.01054283   -0.00038303    0.00808392
     atom   23 type  5   force =     0.00000000    0.00000000    0.00000000
     The Hubbard contrib.    to forces
     atom    1 type  1   force =     0.00000000    0.00000000    0.00000000
     atom    2 type  1   force =     0.00000000    0.00000000    0.00000000
     atom    3 type  1   force =     0.00000000    0.00000000    0.00000000
     atom    4 type  1   force =     0.00000000    0.00000000    0.00000000
     atom    5 type  1   force =     0.00000000    0.00000000    0.00000000
     atom    6 type  2   force =     0.00000000    0.00000000    0.00000000
     atom    7 type  2   force =     0.00000000    0.00000000    0.00000000
     atom    8 type  3   force =     0.00000000    0.00000000    0.00000000
     atom    9 type  3   force =     0.00000000    0.00000000    0.00000000
     atom   10 type  3   force =     0.00000000    0.00000000    0.00000000
     atom   11 type  3   force =     0.00000000    0.00000000    0.00000000
     atom   12 type  3   force =     0.00000000    0.00000000    0.00000000
     atom   13 type  3   force =     0.00000000    0.00000000    0.00000000
     atom   14 type  3   force =     0.00000000    0.00000000    0.00000000
     atom   15 type  3   force =     0.00000000    0.00000000    0.00000000
     atom   16 type  3   force =     0.00000000    0.00000000    0.00000000
     atom   17 type  3   force =     0.00000000    0.00000000    0.00000000
     atom   18 type  4   force =     0.00000000    0.00000000    0.00000000
     atom   19 type  4   force =     0.00000000    0.00000000    0.00000000
     atom   20 type  4   force =     0.00000000    0.00000000    0.00000000
     atom   21 type  4   force =     0.00000000    0.00000000    0.00000000
     atom   22 type  4   force =     0.00000000    0.00000000    0.00000000
     atom   23 type  5   force =     0.00000000    0.00000000    0.00000000
     The SCF correction term to forces
     atom    1 type  1   force =    -0.00000000   -0.00000000   -0.00000000
     atom    2 type  1   force =     0.00000000    0.00000000    0.00000000
     atom    3 type  1   force =     0.00000000   -0.00000000    0.00000000
     atom    4 type  1   force =    -0.00000000    0.00000000    0.00000000
     atom    5 type  1   force =    -0.00000000   -0.00000000    0.00000000
     atom    6 type  2   force =     0.00000000   -0.00000000    0.00000000
     atom    7 type  2   force =    -0.00000000    0.00000000   -0.00000000
     atom    8 type  3   force =     0.00000000   -0.00000000    0.00000000
     atom    9 type  3   force =    -0.00000000   -0.00000000    0.00000000
     atom   10 type  3   force =    -0.00247710    0.00393393    0.00381704
     atom   11 type  3   force =    -0.00030670    0.00669032   -0.00463607
     atom   12 type  3   force =    -0.00537980   -0.00042948    0.00767293
     atom   13 type  3   force =    -0.00290791    0.00116936   -0.00966171
     atom   14 type  3   force =     0.00328587    0.00183274    0.00342826
     atom   15 type  3   force =     0.00075053    0.00675585   -0.00473693
     atom   16 type  3   force =     0.00813509   -0.00128430    0.00801594
     atom   17 type  3   force =     0.00303955    0.00195325   -0.00921833
     atom   18 type  4   force =     0.00213064    0.00310588    0.01243009
     atom   19 type  4   force =    -0.00427975   -0.00262444    0.00437798
     atom   20 type  4   force =    -0.00260159   -0.00571864   -0.00789655
     atom   21 type  4   force =     0.00525917   -0.00074220    0.00307428
     atom   22 type  4   force =     0.00257986   -0.00607100   -0.00636375
     atom   23 type  5   force =    -0.00069980   -0.00002186    0.00024323

     Total force =     2.287975     Total SCF correction =     0.032488

     Molecular Dynamics Calculation

     Starting temperature  =   300.00 K

     temperature is set once at start

     mass Hf               =   178.49
     mass Nb               =    92.91
     mass Ta               =   180.95
     mass Zr               =    91.22
     mass H                =     2.01
     Time step             =     4.20 a.u.,  0.2032 femto-seconds

     Entering Dynamics:    iteration =     1
                           time      =   0.0002 pico-seconds


ATOMIC_POSITIONS (angstrom)
Hf            2.6699999570        2.8271230292        6.6039642186    0   0   0
Hf            1.2529906802        1.2862841814        5.0584662261    0   0   0
Hf            1.2554868986        7.3898042948        5.0880677674    0   0   0
Hf            4.0870092338        1.2862841814        5.0584662261    0   0   0
Hf            4.0845130154        7.3898042948        5.0880677674    0   0   0
Nb            2.6699999570        2.7969306055        3.5155832167    0   0   0
Nb            2.6699999570        5.8763786763        6.6349979432    0   0   0
Ta            1.2093730560        4.3409278516        5.0711258323    0   0   0
Ta            4.1306268580        4.3409278516        5.0711258323    0   0   0
Ta            1.3072517781        1.3141219040        2.0587774635
Ta            1.3027872949        1.3083902736        8.0945808543
Ta            1.3040088058        7.3758269580        2.0462355655
Ta            1.3077100372        7.3650836129        8.0860038711
Ta            4.0327480919        1.3141219872        2.0587774955
Ta            4.0372125857        1.3083903424        8.0945808119
Ta            4.0359910689        7.3758268863        2.0462356121
Ta            4.0322898398        7.3650835332        8.0860038319
Zr            2.6699999728        5.8662873686        3.5273825047
Zr            1.2438264358        4.3220777863        1.9999932513
Zr            1.2403770262        4.3541235987        8.1497624523
Zr            4.0961734810        4.3220777307        1.9999931735
Zr            4.0996229106        4.3541236468        8.1497625216
H             5.0369024879        4.3399961325        5.0721888997


     kinetic energy (Ekin) =           1.83717927 Ry
     temperature           =       13812.74593808 K 
     Ekin + Etot (const)   =       -2940.46615665 Ry

     File outdir/pwscf.msd.dat deleted, as requested

     Writing config-only to output data dir outdir/pwscf.save/
     NEW-OLD atomic charge density approx. for the potential

     Check: negative core charge=   -0.000002

     negative rho (up, down):  9.059E-01 9.059E-01
     Generating pointlists ...
     new r_m :   0.0509 (alat units)  0.7065 (a.u.) for type    3
     new r_m :   0.0509 (alat units)  0.7065 (a.u.) for type    5

     total cpu time spent up to now is      513.6 secs

     Self-consistent Calculation

     iteration #  1     ecut=   120.00 Ry     beta= 0.70
     Davidson diagonalization with overlap
     ethr =  1.00E-06,  avg # of iterations =  6.0

     negative rho (up, down):  9.064E-01 9.064E-01

     total cpu time spent up to now is      577.2 secs

     total energy              =   -2941.80396897 Ry
     estimated scf accuracy    <       0.03338797 Ry

     total magnetization       =    -0.00 Bohr mag/cell
     absolute magnetization    =     0.02 Bohr mag/cell

     iteration #  2     ecut=   120.00 Ry     beta= 0.70
     Davidson diagonalization with overlap
     ethr =  1.21E-05,  avg # of iterations =  3.0

     negative rho (up, down):  9.065E-01 9.065E-01

     total cpu time spent up to now is      613.2 secs

     total energy              =   -2941.80691326 Ry
     estimated scf accuracy    <       0.01127490 Ry

     total magnetization       =    -0.00 Bohr mag/cell
     absolute magnetization    =     0.02 Bohr mag/cell

     iteration #  3     ecut=   120.00 Ry     beta= 0.70
     Davidson diagonalization with overlap
     ethr =  4.07E-06,  avg # of iterations =  1.0

     negative rho (up, down):  9.065E-01 9.064E-01

     Magnetic moment per site  (integrated on atomic sphere of radius R)
     atom   1 (R=0.142)  charge=  9.4643   -0.0001
     atom   2 (R=0.142)  charge=  9.0583   -0.0000
     atom   3 (R=0.142)  charge=  9.0597   -0.0001
     atom   4 (R=0.142)  charge=  9.0581   -0.0000
     atom   5 (R=0.142)  charge=  9.0597   -0.0000
     atom   6 (R=0.140)  charge= 10.3538   -0.0000
     atom   7 (R=0.140)  charge= 10.3541   -0.0000
     atom   8 (R=0.051)  charge=  0.8027   -0.0000
     atom   9 (R=0.051)  charge=  0.8171   -0.0000
     atom  10 (R=0.051)  charge=  0.8033   -0.0000
     atom  11 (R=0.051)  charge=  0.8030    0.0000
     atom  12 (R=0.051)  charge=  0.8036    0.0000
     atom  13 (R=0.051)  charge=  0.8035    0.0000
     atom  14 (R=0.051)  charge=  0.8034   -0.0000
     atom  15 (R=0.051)  charge=  0.8037    0.0000
     atom  16 (R=0.051)  charge=  0.8051   -0.0000
     atom  17 (R=0.051)  charge=  0.8039   -0.0000
     atom  18 (R=0.141)  charge=  9.4565   -0.0001
     atom  19 (R=0.141)  charge=  8.9984   -0.0014
     atom  20 (R=0.141)  charge=  8.9985    0.0005
     atom  21 (R=0.141)  charge=  8.9976   -0.0013
     atom  22 (R=0.141)  charge=  8.9978    0.0007
     atom  23 (R=0.051)  charge=  0.7164   -0.0000

     total cpu time spent up to now is      643.1 secs

     End of self-consistent calculation

 ------ SPIN UP ------------


          k = 0.0000 0.0000 0.0000 ( 48454 PWs)   bands (ev):

   -58.0558 -57.8915 -57.8541 -57.8416 -57.8079 -57.7955 -57.7664 -57.7599
   -57.7224 -57.7158 -51.3914 -51.3452 -51.2671 -51.2216 -49.7083 -43.2280
   -43.2127 -38.5905 -38.5758 -38.4902 -38.4879 -36.8039 -27.1842 -24.8593
   -24.8439 -24.7653 -24.7582 -24.7480 -24.6691 -24.6489 -24.5522 -24.5281
   -24.4184 -24.3961 -24.3733 -24.3484 -24.3134 -24.3061 -24.2666 -24.2575
   -24.2037 -24.2008 -24.0365 -24.0294 -24.0245 -24.0064 -23.9634 -23.9441
   -23.9379 -23.9251 -23.8591 -23.7741 -21.1857 -20.9775 -20.6576 -20.5774
   -20.3119 -20.1720 -20.1438 -20.0487 -19.9408 -19.8581 -19.8527 -19.6296
   -19.4937 -19.4307 -19.3704 -19.3299 -19.2643 -19.2185 -18.7761 -18.6972
   -18.6526 -17.1486 -16.8302 -16.8206 -16.7739 -16.5873 -16.5806 -16.5707
   -16.5567 -16.5280 -16.4966 -16.2657 -16.2555 -15.1718 -14.9422 -14.8137
     4.1582   4.9729   5.8050   6.1248   6.2931   6.4143   6.5003   6.5904
     6.6044   6.8035   6.9518   7.1477   7.2173   7.4108   7.5593   7.5785
     7.6881   7.7836   7.9386   8.0387   8.0456   8.1910   8.2583   8.3230
     8.3449   8.4223   8.5048   8.5459   8.6409   8.6936   8.7499   8.8021
     8.8692   9.0039   9.0918   9.1765   9.1859   9.2662   9.3097   9.3857
     9.4091   9.4298   9.6048   9.8094   9.8515   9.9580  10.0262  10.1456
    10.1686  10.1967  10.3448  10.3983  10.4236  10.5016  10.5589  10.5917
    10.6943  10.8334  10.8536  10.9076  10.9232  11.0328  11.1267  11.2275
    11.2536  11.2725  11.2767  11.3859  11.5987  11.6863  11.8067  11.8267
    11.8928  12.0057  12.1663  12.1776  12.1978  12.2113  12.2230

 ------ SPIN DOWN ----------


          k = 0.0000 0.0000 0.0000 ( 48454 PWs)   bands (ev):

   -58.0559 -57.8916 -57.8539 -57.8419 -57.8077 -57.7957 -57.7660 -57.7601
   -57.7220 -57.7159 -51.3914 -51.3453 -51.2672 -51.2216 -49.7084 -43.2280
   -43.2127 -38.5918 -38.5752 -38.4899 -38.4889 -36.8040 -27.1843 -24.8590
   -24.8442 -24.7648 -24.7583 -24.7481 -24.6689 -24.6492 -24.5517 -24.5283
   -24.4184 -24.3961 -24.3734 -24.3484 -24.3132 -24.3064 -24.2661 -24.2577
   -24.2031 -24.2009 -24.0362 -24.0290 -24.0249 -24.0067 -23.9630 -23.9443
   -23.9374 -23.9254 -23.8591 -23.7741 -21.1857 -20.9776 -20.6576 -20.5775
   -20.3119 -20.1720 -20.1438 -20.0488 -19.9409 -19.8582 -19.8528 -19.6296
   -19.4938 -19.4307 -19.3704 -19.3299 -19.2644 -19.2185 -18.7762 -18.6973
   -18.6527 -17.1498 -16.8294 -16.8217 -16.7759 -16.5868 -16.5816 -16.5703
   -16.5577 -16.5276 -16.4962 -16.2677 -16.2548 -15.1719 -14.9424 -14.8139
     4.1581   4.9728   5.8050   6.1248   6.2930   6.4143   6.5002   6.5903
     6.6045   6.8034   6.9518   7.1477   7.2172   7.4107   7.5591   7.5786
     7.6879   7.7835   7.9385   8.0387   8.0454   8.1908   8.2584   8.3229
     8.3448   8.4221   8.5047   8.5457   8.6403   8.6936   8.7498   8.8020
     8.8692   9.0038   9.0917   9.1766   9.1858   9.2661   9.3096   9.3856
     9.4091   9.4298   9.6046   9.8094   9.8515   9.9578  10.0261  10.1450
    10.1684  10.1961  10.3440  10.3984  10.4237  10.5017  10.5590  10.5915
    10.6939  10.8334  10.8535  10.9075  10.9230  11.0328  11.1266  11.2275
    11.2534  11.2722  11.2768  11.3859  11.5987  11.6861  11.8065  11.8266
    11.8927  12.0055  12.1664  12.1776  12.1977  12.2114  12.2231

     the Fermi energy is    10.3042 ev

!    total energy              =   -2941.80701730 Ry
     estimated scf accuracy    <       0.00095687 Ry
     smearing contrib. (-TS)   =      -0.09766725 Ry
     internal energy E=F+TS    =   -2941.70935004 Ry

     total magnetization       =    -0.00 Bohr mag/cell
     absolute magnetization    =     0.02 Bohr mag/cell

     convergence has been achieved in   3 iterations

     negative rho (up, down):  9.065E-01 9.064E-01

     Forces acting on atoms (cartesian axes, Ry/au):

     atom    1 type  1   force =     0.00099333   -0.02874393    0.02419220
     atom    2 type  1   force =    -0.12835762   -0.01459233    0.00407718
     atom    3 type  1   force =    -0.12634595    0.01311563    0.01004432
     atom    4 type  1   force =     0.13133972   -0.01866032    0.00384739
     atom    5 type  1   force =     0.12935513    0.01706544    0.00965245
     atom    6 type  2   force =     0.00270959   -0.02071419   -0.01153238
     atom    7 type  2   force =     0.00260835    0.01940554    0.01190745
     atom    8 type  3   force =    -0.13452413    0.00249991   -0.00132746
     atom    9 type  3   force =    -3.32583992    0.00253239   -0.00517697
     atom   10 type  3   force =    -0.03373924   -0.02221966   -0.05882659
     atom   11 type  3   force =    -0.03581087   -0.02947116    0.05304444
     atom   12 type  3   force =    -0.03097333    0.02915707   -0.05604522
     atom   13 type  3   force =    -0.02759128    0.02434194    0.05159999
     atom   14 type  3   force =     0.03351462   -0.01936522   -0.05823844
     atom   15 type  3   force =     0.03586828   -0.02685817    0.05256652
     atom   16 type  3   force =     0.03112535    0.02683299   -0.05525687
     atom   17 type  3   force =     0.02739421    0.02139564    0.05114339
     atom   18 type  4   force =     0.00170547    0.02839425   -0.02424328
     atom   19 type  4   force =    -0.14642392   -0.00502433   -0.11971301
     atom   20 type  4   force =    -0.15130177    0.00397759    0.11749812
     atom   21 type  4   force =     0.14831383   -0.00556238   -0.12295758
     atom   22 type  4   force =     0.15314181    0.00487942    0.12044088
     atom   23 type  5   force =     3.44283832   -0.00238612    0.00330346
     The non-local contrib.  to forces
     atom    1 type  1   force =    -0.00117150   -0.00154542    0.03392059
     atom    2 type  1   force =    -0.24669570   -0.16185453    0.02138290
     atom    3 type  1   force =    -0.24309119    0.15747025   -0.02668544
     atom    4 type  1   force =     0.24683183   -0.15978867    0.02154026
     atom    5 type  1   force =     0.24397123    0.15474646   -0.02717244
     atom    6 type  2   force =    -0.00699131   -0.08230764   -0.06370371
     atom    7 type  2   force =    -0.00732488    0.09427178    0.05793504
     atom    8 type  3   force =    -0.24992535   -0.00198708    0.00050032
     atom    9 type  3   force =     1.44805765   -0.00367292   -0.00050258
     atom   10 type  3   force =    -0.23000114    0.01054053   -0.22011409
     atom   11 type  3   force =    -0.23495608    0.01280873    0.21034150
     atom   12 type  3   force =    -0.21743657   -0.02639354   -0.19313798
     atom   13 type  3   force =    -0.22301794   -0.01035617    0.21331985
     atom   14 type  3   force =     0.22956355    0.00916377   -0.22204134
     atom   15 type  3   force =     0.23648496    0.01121026    0.21213985
     atom   16 type  3   force =     0.21954997   -0.02455261   -0.19466974
     atom   17 type  3   force =     0.22244327   -0.00906011    0.21533625
     atom   18 type  4   force =    -0.00495625    0.09263910   -0.06773493
     atom   19 type  4   force =     0.08138768    0.00148693    0.04698412
     atom   20 type  4   force =     0.07775484   -0.00218715   -0.04462701
     atom   21 type  4   force =    -0.08182202    0.00170879    0.04907362
     atom   22 type  4   force =    -0.07847647   -0.00190876   -0.04662787
     atom   23 type  5   force =    -0.15792864    0.00039082    0.00003137
     The ionic contribution  to forces
     atom    1 type  1   force =    -0.31348449   -4.88590683   15.09061525
     atom    2 type  1   force =   -27.80742600   -6.33706804    0.78124998
     atom    3 type  1   force =   -27.80364390    6.32234029   -0.71391461
     atom    4 type  1   force =    27.66845118   -6.62929539    0.77976488
     atom    5 type  1   force =    27.66352975    6.61554896   -0.71218984
     atom    6 type  2   force =    -0.32874981   -3.85796239  -15.07678851
     atom    7 type  2   force =    -0.32881279    3.89455698   15.11199967
     atom    8 type  3   force =   -38.55284517    0.07371651   -0.06742873
     atom    9 type  3   force =    29.86737578    0.08257981   -0.07754431
     atom   10 type  3   force =   -24.84154216   -2.17098626  -24.64219703
     atom   11 type  3   force =   -23.91427839   -0.90443997   23.63795818
     atom   12 type  3   force =   -24.03748112    0.84992041  -23.68458380
     atom   13 type  3   force =   -24.82181296    2.25795643   24.62430838
     atom   14 type  3   force =    24.79255331   -2.23217789  -24.71580767
     atom   15 type  3   force =    23.86610639   -0.96498929   23.71101955
     atom   16 type  3   force =    23.98941504    0.91004973  -23.75723447
     atom   17 type  3   force =    24.77277522    2.31915142   24.69793083
     atom   18 type  4   force =    -0.30862721    4.65204180  -14.95287978
     atom   19 type  4   force =   -25.08771013    0.97403437  -27.16055219
     atom   20 type  4   force =   -25.04400192   -0.96808523   27.13976646
     atom   21 type  4   force =    24.95979031    0.97221856  -27.46795270
     atom   22 type  4   force =    24.91759777   -0.96666154   27.44594577
     atom   23 type  5   force =    10.69282131   -0.00654242    0.00851468
     The local contribution  to forces
     atom    1 type  1   force =     0.30581016    4.84255558  -15.08144089
     atom    2 type  1   force =    27.93779536    6.48238275   -0.77708734
     atom    3 type  1   force =    27.93256093   -6.46284345    0.77597190
     atom    4 type  1   force =   -27.79824060    6.75994155   -0.77694876
     atom    5 type  1   force =   -27.79243971   -6.74081685    0.77341740
     atom    6 type  2   force =     0.32717468    3.91190421   15.13840862
     atom    7 type  2   force =     0.32744534   -3.95376913  -15.13404811
     atom    8 type  3   force =    38.70536853   -0.07253821    0.08931360
     atom    9 type  3   force =   -34.80621993   -0.07851560    0.09630678
     atom   10 type  3   force =    25.05379803    2.14200438   24.82279117
     atom   11 type  3   force =    24.13457293    0.85255364  -23.82335480
     atom   12 type  3   force =    24.23813848   -0.79041740   23.84309881
     atom   13 type  3   force =    25.03644740   -2.21149318  -24.81827282
     atom   14 type  3   force =   -25.00544274    2.20387941   24.89538183
     atom   15 type  3   force =   -24.09093415    0.91513517  -23.89510606
     atom   16 type  3   force =   -24.19374858   -0.85106348   23.91478454
     atom   17 type  3   force =   -24.98930477   -2.27505747  -24.89043436
     atom   18 type  4   force =     0.30478376   -4.71051856   15.00692381
     atom   19 type  4   force =    24.86498274   -0.98608332   26.99975953
     atom   20 type  4   force =    24.81906034    0.97043220  -26.99199674
     atom   21 type  4   force =   -24.73736533   -0.98497656   27.29014794
     atom   22 type  4   force =   -24.69312128    0.97001078  -27.28214760
     atom   23 type  5   force =    -7.09726490    0.00353495   -0.00212182
     The core correction contribution to forces
     atom    1 type  1   force =     0.00042639    0.00750908   -0.00180388
     atom    2 type  1   force =    -0.01254631   -0.00012389    0.00107414
     atom    3 type  1   force =    -0.01283319    0.00075975   -0.00186657
     atom    4 type  1   force =     0.01236178   -0.00083995    0.00111837
     atom    5 type  1   force =     0.01262965    0.00140934   -0.00192409
     atom    6 type  2   force =     0.00044138    0.00409217    0.00249928
     atom    7 type  2   force =     0.00044494   -0.00474035   -0.00194014
     atom    8 type  3   force =    -0.03046431    0.00047785   -0.00060819
     atom    9 type  3   force =     0.11358742   -0.00061689   -0.00000471
     atom   10 type  3   force =    -0.02421974    0.00630596   -0.01632770
     atom   11 type  3   force =    -0.02551290    0.00792057    0.01673313
     atom   12 type  3   force =    -0.02362538   -0.00751059   -0.01549645
     atom   13 type  3   force =    -0.02349367   -0.00603091    0.01607543
     atom   14 type  3   force =     0.02499970    0.00623137   -0.01625141
     atom   15 type  3   force =     0.02627080    0.00776728    0.01668709
     atom   16 type  3   force =     0.02440876   -0.00737654   -0.01540697
     atom   17 type  3   force =     0.02426955   -0.00594507    0.01600019
     atom   18 type  4   force =     0.00026263   -0.00523588    0.00337242
     atom   19 type  4   force =    -0.01055662    0.00049330   -0.00795997
     atom   20 type  4   force =    -0.01051213   -0.00033524    0.00789395
     atom   21 type  4   force =     0.01067777    0.00048337   -0.00807201
     atom   22 type  4   force =     0.01062943   -0.00034819    0.00799262
     atom   23 type  5   force =     0.00000000    0.00000000    0.00000000
     The Hubbard contrib.    to forces
     atom    1 type  1   force =     0.00000000    0.00000000    0.00000000
     atom    2 type  1   force =     0.00000000    0.00000000    0.00000000
     atom    3 type  1   force =     0.00000000    0.00000000    0.00000000
     atom    4 type  1   force =     0.00000000    0.00000000    0.00000000
     atom    5 type  1   force =     0.00000000    0.00000000    0.00000000
     atom    6 type  2   force =     0.00000000    0.00000000    0.00000000
     atom    7 type  2   force =     0.00000000    0.00000000    0.00000000
     atom    8 type  3   force =     0.00000000    0.00000000    0.00000000
     atom    9 type  3   force =     0.00000000    0.00000000    0.00000000
     atom   10 type  3   force =     0.00000000    0.00000000    0.00000000
     atom   11 type  3   force =     0.00000000    0.00000000    0.00000000
     atom   12 type  3   force =     0.00000000    0.00000000    0.00000000
     atom   13 type  3   force =     0.00000000    0.00000000    0.00000000
     atom   14 type  3   force =     0.00000000    0.00000000    0.00000000
     atom   15 type  3   force =     0.00000000    0.00000000    0.00000000
     atom   16 type  3   force =     0.00000000    0.00000000    0.00000000
     atom   17 type  3   force =     0.00000000    0.00000000    0.00000000
     atom   18 type  4   force =     0.00000000    0.00000000    0.00000000
     atom   19 type  4   force =     0.00000000    0.00000000    0.00000000
     atom   20 type  4   force =     0.00000000    0.00000000    0.00000000
     atom   21 type  4   force =     0.00000000    0.00000000    0.00000000
     atom   22 type  4   force =     0.00000000    0.00000000    0.00000000
     atom   23 type  5   force =     0.00000000    0.00000000    0.00000000
     The SCF correction term to forces
     atom    1 type  1   force =     0.00000000    0.00000000   -0.00000000
     atom    2 type  1   force =    -0.00000000    0.00000000   -0.00000000
     atom    3 type  1   force =    -0.00000000   -0.00000000   -0.00000000
     atom    4 type  1   force =     0.00000000    0.00000000   -0.00000000
     atom    5 type  1   force =     0.00000000   -0.00000000   -0.00000000
     atom    6 type  2   force =     0.00000000    0.00000000   -0.00000000
     atom    7 type  2   force =     0.00000000   -0.00000000   -0.00000000
     atom    8 type  3   force =    -0.00000000    0.00000000   -0.00000000
     atom    9 type  3   force =     0.00000000    0.00000000   -0.00000000
     atom   10 type  3   force =     0.00738823   -0.01012866   -0.00154661
     atom   11 type  3   force =     0.00352602    0.00164148    0.01279875
     atom   12 type  3   force =     0.00859373    0.00351380   -0.00449347
     atom   13 type  3   force =     0.00344835   -0.00577861    0.01760148
     atom   14 type  3   force =    -0.00899674   -0.00650628    0.00191247
     atom   15 type  3   force =    -0.00289726    0.00397402    0.00925842
     atom   16 type  3   force =    -0.00933737   -0.00026852   -0.00129791
     atom   17 type  3   force =    -0.00362661   -0.00773752    0.01374281
     atom   18 type  4   force =     0.00940500   -0.00057660   -0.01249247
     atom   19 type  4   force =     0.00463488    0.00500000    0.00348781
     atom   20 type  4   force =     0.00555956    0.00410862    0.00789379
     atom   21 type  4   force =    -0.00380444    0.00495908    0.01527789
     atom   22 type  4   force =    -0.00432519    0.00374275   -0.00328973
     atom   23 type  5   force =     0.00437300    0.00018613   -0.00168844

     Total force =     3.469790     Total SCF correction =     0.046252

     Entering Dynamics:    iteration =     2
                           time      =   0.0004 pico-seconds


ATOMIC_POSITIONS (angstrom)
Hf            2.6699999570        2.8271230292        6.6039642186    0   0   0
Hf            1.2529906802        1.2862841814        5.0584662261    0   0   0
Hf            1.2554868986        7.3898042948        5.0880677674    0   0   0
Hf            4.0870092338        1.2862841814        5.0584662261    0   0   0
Hf            4.0845130154        7.3898042948        5.0880677674    0   0   0
Nb            2.6699999570        2.7969306055        3.5155832167    0   0   0
Nb            2.6699999570        5.8763786763        6.6349979432    0   0   0
Ta            1.2093730560        4.3409278516        5.0711258323    0   0   0
Ta            4.1306268580        4.3409278516        5.0711258323    0   0   0
Ta            1.3072489625        1.3141199609        2.0587724874
Ta            1.3027842486        1.3083877431        8.0945855085
Ta            1.3040062364        7.3758294423        2.0462307791
Ta            1.3077077143        7.3650856551        8.0860084419
Ta            4.0327508507        1.3141202888        2.0587725847
Ta            4.0372156018        1.3083880287        8.0945853966
Ta            4.0359936076        7.3758291673        2.0462309169
Ta            4.0322921144        7.3650853289        8.0860083377
Zr            2.6700001801        5.8662920815        3.5273783572
Zr            1.2438018138        4.3220770439        1.9999730624
Zr            1.2403516532        4.3541243594        8.1497825467
Zr            4.0961983181        4.3220768724        1.9999725428
Zr            4.0996485130        4.3541245568        8.1497830157
H             4.9606857240        4.3399801808        5.0722148034


     kinetic energy (Ekin) =           1.34153360 Ry
     temperature           =       10086.25729710 K 
     Ekin + Etot (const)   =       -2940.46548369 Ry

     Writing config-only to output data dir outdir/pwscf.save/
     NEW-OLD atomic charge density approx. for the potential

     Check: negative core charge=   -0.000002

     negative rho (up, down):  9.060E-01 9.060E-01
     Generating pointlists ...
     new r_m :   0.0466 (alat units)  0.6470 (a.u.) for type    3
     new r_m :   0.0466 (alat units)  0.6470 (a.u.) for type    5

     total cpu time spent up to now is      664.2 secs

     Self-consistent Calculation

     iteration #  1     ecut=   120.00 Ry     beta= 0.70
     Davidson diagonalization with overlap
     c_bands:  1 eigenvalues not converged
     c_bands:  1 eigenvalues not converged
     ethr =  1.00E-06,  avg # of iterations = 20.0

     negative rho (up, down):  9.067E-01 9.067E-01

     total cpu time spent up to now is      738.2 secs

     total energy              =   -2941.18861817 Ry
     estimated scf accuracy    <       0.21326144 Ry

     total magnetization       =    -0.00 Bohr mag/cell
     absolute magnetization    =     0.02 Bohr mag/cell

     iteration #  2     ecut=   120.00 Ry     beta= 0.70
     Davidson diagonalization with overlap
     ethr =  7.70E-05,  avg # of iterations =  2.0

     negative rho (up, down):  9.067E-01 9.067E-01

     total cpu time spent up to now is      771.6 secs

     total energy              =   -2941.20281676 Ry
     estimated scf accuracy    <       0.09784689 Ry

     total magnetization       =    -0.00 Bohr mag/cell
     absolute magnetization    =     0.01 Bohr mag/cell

     iteration #  3     ecut=   120.00 Ry     beta= 0.70
     Davidson diagonalization with overlap
     ethr =  3.53E-05,  avg # of iterations =  2.0

     negative rho (up, down):  9.067E-01 9.067E-01

     total cpu time spent up to now is      805.0 secs

     total energy              =   -2941.20844669 Ry
     estimated scf accuracy    <       0.00259365 Ry

     total magnetization       =    -0.00 Bohr mag/cell
     absolute magnetization    =     0.01 Bohr mag/cell

     iteration #  4     ecut=   120.00 Ry     beta= 0.70
     Davidson diagonalization with overlap
     c_bands:  1 eigenvalues not converged
     c_bands:  1 eigenvalues not converged
     ethr =  9.36E-07,  avg # of iterations = 20.0

     negative rho (up, down):  9.067E-01 9.067E-01

     total cpu time spent up to now is      845.4 secs

     total energy              =   -2941.20859482 Ry
     estimated scf accuracy    <       0.00145276 Ry

     total magnetization       =    -0.00 Bohr mag/cell
     absolute magnetization    =     0.01 Bohr mag/cell

     iteration #  5     ecut=   120.00 Ry     beta= 0.70
     Davidson diagonalization with overlap
     ethr =  5.24E-07,  avg # of iterations =  1.0

     negative rho (up, down):  9.067E-01 9.067E-01

     Magnetic moment per site  (integrated on atomic sphere of radius R)
     atom   1 (R=0.142)  charge=  9.4613   -0.0000
     atom   2 (R=0.142)  charge=  9.0573   -0.0000
     atom   3 (R=0.142)  charge=  9.0587   -0.0000
     atom   4 (R=0.142)  charge=  9.0552    0.0000
     atom   5 (R=0.142)  charge=  9.0568   -0.0000
     atom   6 (R=0.140)  charge= 10.3507   -0.0000
     atom   7 (R=0.140)  charge= 10.3514   -0.0000
     atom   8 (R=0.047)  charge=  0.4668   -0.0000
     atom   9 (R=0.047)  charge=  0.4765    0.0000
     atom  10 (R=0.047)  charge=  0.4637   -0.0000
     atom  11 (R=0.047)  charge=  0.4634    0.0000
     atom  12 (R=0.047)  charge=  0.4634    0.0000
     atom  13 (R=0.047)  charge=  0.4638    0.0000
     atom  14 (R=0.047)  charge=  0.4630   -0.0000
     atom  15 (R=0.047)  charge=  0.4621    0.0000
     atom  16 (R=0.047)  charge=  0.4631   -0.0000
     atom  17 (R=0.047)  charge=  0.4633   -0.0000
     atom  18 (R=0.141)  charge=  9.4540   -0.0000
     atom  19 (R=0.141)  charge=  8.9989   -0.0008
     atom  20 (R=0.141)  charge=  8.9938    0.0004
     atom  21 (R=0.141)  charge=  8.9966   -0.0009
     atom  22 (R=0.141)  charge=  8.9912    0.0004
     atom  23 (R=0.047)  charge=  0.6827    0.0000

     total cpu time spent up to now is      875.2 secs

     End of self-consistent calculation

 ------ SPIN UP ------------


          k = 0.0000 0.0000 0.0000 ( 48454 PWs)   bands (ev):

   -58.7349 -57.9467 -57.8514 -57.8436 -57.8055 -57.7973 -57.7700 -57.7608
   -57.7260 -57.7164 -51.4035 -51.3576 -51.2793 -51.2339 -49.7294 -43.2424
   -43.2360 -38.5924 -38.5721 -38.4890 -38.4857 -36.8137 -28.0794 -24.8763
   -24.8491 -24.8075 -24.7677 -24.7566 -24.6659 -24.6538 -24.5523 -24.5331
   -24.4527 -24.4175 -24.3770 -24.3614 -24.3186 -24.3064 -24.2699 -24.2627
   -24.2132 -24.1999 -24.0892 -24.0328 -24.0264 -24.0192 -24.0110 -23.9824
   -23.9541 -23.9501 -23.9322 -23.9282 -21.1987 -20.9910 -20.6688 -20.5870
   -20.3227 -20.1853 -20.1554 -20.0618 -19.9536 -19.8672 -19.8652 -19.6391
   -19.5128 -19.4501 -19.3847 -19.3457 -19.2770 -19.2348 -18.7920 -18.7163
   -18.6701 -17.1512 -16.8253 -16.8236 -16.7749 -16.5865 -16.5840 -16.5666
   -16.5578 -16.5275 -16.4956 -16.2656 -16.2489 -15.1817 -14.9526 -14.8206
     4.2235   5.0469   5.8036   6.1198   6.2817   6.3953   6.4835   6.5697
     6.5986   6.7909   6.9470   7.1434   7.2062   7.4056   7.5648   7.5755
     7.6731   7.8235   7.9346   8.0237   8.0482   8.1844   8.2548   8.3294
     8.3362   8.4074   8.4805   8.5383   8.6336   8.6951   8.7423   8.7867
     8.8646   8.9982   9.0879   9.1680   9.1842   9.2637   9.3012   9.3791
     9.4018   9.4125   9.6273   9.8038   9.8494   9.9617  10.0218  10.1576
    10.1623  10.1995  10.3363  10.3933  10.4260  10.4894  10.5534  10.5995
    10.7273  10.8235  10.8615  10.8943  10.9233  11.0332  11.1218  11.2058
    11.2263  11.2579  11.2695  11.3726  11.6010  11.6421  11.8027  11.8255
    11.8739  11.9981  12.1547  12.1670  12.1935  12.2047  12.2195

 ------ SPIN DOWN ----------


          k = 0.0000 0.0000 0.0000 ( 48454 PWs)   bands (ev):

   -58.7349 -57.9467 -57.8516 -57.8435 -57.8056 -57.7972 -57.7702 -57.7607
   -57.7261 -57.7163 -51.4035 -51.3576 -51.2793 -51.2339 -49.7295 -43.2424
   -43.2360 -38.5932 -38.5717 -38.4897 -38.4853 -36.8137 -28.0794 -24.8763
   -24.8491 -24.8075 -24.7678 -24.7565 -24.6660 -24.6538 -24.5522 -24.5332
   -24.4527 -24.4175 -24.3771 -24.3613 -24.3188 -24.3063 -24.2701 -24.2625
   -24.2133 -24.1998 -24.0892 -24.0330 -24.0263 -24.0192 -24.0111 -23.9824
   -23.9540 -23.9501 -23.9324 -23.9280 -21.1987 -20.9910 -20.6689 -20.5870
   -20.3228 -20.1853 -20.1554 -20.0618 -19.9536 -19.8672 -19.8652 -19.6391
   -19.5128 -19.4502 -19.3848 -19.3457 -19.2770 -19.2348 -18.7920 -18.7164
   -18.6701 -17.1519 -16.8255 -16.8235 -16.7761 -16.5866 -16.5843 -16.5664
   -16.5584 -16.5273 -16.4953 -16.2668 -16.2484 -15.1818 -14.9527 -14.8207
     4.2235   5.0469   5.8035   6.1198   6.2817   6.3954   6.4834   6.5697
     6.5986   6.7908   6.9469   7.1434   7.2061   7.4056   7.5647   7.5755
     7.6730   7.8234   7.9345   8.0237   8.0481   8.1843   8.2548   8.3294
     8.3362   8.4073   8.4805   8.5382   8.6333   8.6950   8.7423   8.7867
     8.8645   8.9982   9.0878   9.1679   9.1841   9.2637   9.3011   9.3790
     9.4018   9.4124   9.6272   9.8038   9.8493   9.9616  10.0218  10.1574
    10.1621  10.1989  10.3360  10.3932  10.4261  10.4894  10.5534  10.5994
    10.7270  10.8234  10.8615  10.8942  10.9232  11.0331  11.1218  11.2057
    11.2263  11.2579  11.2694  11.3726  11.6009  11.6420  11.8026  11.8254
    11.8739  11.9979  12.1547  12.1669  12.1934  12.2046  12.2194

     the Fermi energy is    10.3032 ev

!    total energy              =   -2941.20835186 Ry
     estimated scf accuracy    <       0.00033810 Ry
     smearing contrib. (-TS)   =      -0.09780558 Ry
     internal energy E=F+TS    =   -2941.11054628 Ry

     total magnetization       =    -0.00 Bohr mag/cell
     absolute magnetization    =     0.01 Bohr mag/cell

     convergence has been achieved in   5 iterations

     negative rho (up, down):  9.067E-01 9.067E-01

     Forces acting on atoms (cartesian axes, Ry/au):

     atom    1 type  1   force =     0.00742719   -0.02290551    0.01574342
     atom    2 type  1   force =    -0.13086269   -0.01323657   -0.00778345
     atom    3 type  1   force =    -0.12933186    0.01067064   -0.00179219
     atom    4 type  1   force =     0.13267819   -0.01104063   -0.00729835
     atom    5 type  1   force =     0.13093152    0.00830907   -0.00209859
     atom    6 type  2   force =     0.00639669   -0.01974238   -0.00912448
     atom    7 type  2   force =     0.00618664    0.01799168    0.01366181
     atom    8 type  3   force =    -0.12799182    0.00277184   -0.00385600
     atom    9 type  3   force =    -4.86178721    0.00440291   -0.00810768
     atom   10 type  3   force =    -0.03378779   -0.02503477   -0.05571314
     atom   11 type  3   force =    -0.03604276   -0.02870428    0.05875681
     atom   12 type  3   force =    -0.03022155    0.03039629   -0.05356143
     atom   13 type  3   force =    -0.02906612    0.02243506    0.05905451
     atom   14 type  3   force =     0.03040429   -0.02148833   -0.05498677
     atom   15 type  3   force =     0.03432002   -0.02568704    0.05831589
     atom   16 type  3   force =     0.02840476    0.02711316   -0.05303985
     atom   17 type  3   force =     0.02631737    0.01897715    0.05815892
     atom   18 type  4   force =     0.00681676    0.02680105   -0.02508599
     atom   19 type  4   force =    -0.14914999   -0.00418470   -0.11753131
     atom   20 type  4   force =    -0.15209276    0.00508060    0.12270693
     atom   21 type  4   force =     0.14931526   -0.00445057   -0.11569643
     atom   22 type  4   force =     0.15245107    0.00567486    0.12099750
     atom   23 type  5   force =     4.96868480   -0.00414952    0.00827988
     The non-local contrib.  to forces
     atom    1 type  1   force =     0.00195276    0.00286450    0.02745996
     atom    2 type  1   force =    -0.24802310   -0.16346526    0.01420474
     atom    3 type  1   force =    -0.24475698    0.15870627   -0.03282590
     atom    4 type  1   force =     0.24575553   -0.15651956    0.01511262
     atom    5 type  1   force =     0.24307544    0.15137634   -0.03330767
     atom    6 type  2   force =    -0.00880046   -0.08326564   -0.06186620
     atom    7 type  2   force =    -0.00909058    0.09458477    0.05544714
     atom    8 type  3   force =    -0.24255217   -0.00179387   -0.00388051
     atom    9 type  3   force =     1.75542706   -0.00505336   -0.00204090
     atom   10 type  3   force =    -0.23005602    0.00876008   -0.21997530
     atom   11 type  3   force =    -0.23797406    0.01451958    0.21255095
     atom   12 type  3   force =    -0.21716007   -0.02663056   -0.19298352
     atom   13 type  3   force =    -0.22586915   -0.01189969    0.21782011
     atom   14 type  3   force =     0.22890686    0.00689677   -0.22153123
     atom   15 type  3   force =     0.23981062    0.01200783    0.21405554
     atom   16 type  3   force =     0.21951699   -0.02398151   -0.19482916
     atom   17 type  3   force =     0.22514513   -0.00984376    0.21894714
     atom   18 type  4   force =    -0.00488781    0.09111078   -0.06755604
     atom   19 type  4   force =     0.08107313    0.00272068    0.04641617
     atom   20 type  4   force =     0.07854869   -0.00178594   -0.04218451
     atom   21 type  4   force =    -0.08103267    0.00302997    0.05088741
     atom   22 type  4   force =    -0.07881749   -0.00149901   -0.04627610
     atom   23 type  5   force =    -0.07241540    0.00035718    0.00039173
     The ionic contribution  to forces
     atom    1 type  1   force =    -0.33043564   -4.90001015   15.10557565
     atom    2 type  1   force =   -27.81731727   -6.33647294    0.78125281
     atom    3 type  1   force =   -27.81356711    6.32175079   -0.71390646
     atom    4 type  1   force =    27.67669856   -6.64052608    0.77970663
     atom    5 type  1   force =    27.67178279    6.62683966   -0.71211496
     atom    6 type  2   force =    -0.34628698   -3.87279522  -15.09249678
     atom    7 type  2   force =    -0.34635995    3.90934500   15.12775352
     atom    8 type  3   force =   -38.60023006    0.07374124   -0.06746046
     atom    9 type  3   force =    28.15732307    0.08555096   -0.08103454
     atom   10 type  3   force =   -24.84535989   -2.17078499  -24.64181689
     atom   11 type  3   force =   -23.91806603   -0.90423009   23.63757276
     atom   12 type  3   force =   -24.04130549    0.84974557  -23.68423134
     atom   13 type  3   force =   -24.82563498    2.25776882   24.62393301
     atom   14 type  3   force =    24.79521305   -2.23405548  -24.71787906
     atom   15 type  3   force =    23.86875642   -0.96683391   23.71306446
     atom   16 type  3   force =    23.99210412    0.91191256  -23.75929604
     atom   17 type  3   force =    24.77543691    2.32104481   24.70000805
     atom   18 type  4   force =    -0.32519228    4.66583460  -14.96755286
     atom   19 type  4   force =   -25.09631870    0.97401734  -27.15915806
     atom   20 type  4   force =   -25.05256237   -0.96807896   27.13835937
     atom   21 type  4   force =    24.96703980    0.97213114  -27.47868697
     atom   22 type  4   force =    24.92483208   -0.96659919   27.45660090
     atom   23 type  5   force =    12.52944995   -0.00929547    0.01180725
     The local contribution  to forces
     atom    1 type  1   force =     0.33801347    4.87200563  -15.13154806
     atom    2 type  1   force =    27.94557775    6.48889473   -0.82440532
     atom    3 type  1   force =    27.93912671   -6.47213589    0.72552454
     atom    4 type  1   force =   -27.79853350    6.79127031   -0.82278657
     atom    5 type  1   force =   -27.79173772   -6.77516296    0.72437561
     atom    6 type  2   force =     0.36358591    3.93188901   15.12719261
     atom    7 type  2   force =     0.36410257   -3.98775858  -15.18610032
     atom    8 type  3   force =    38.73983754   -0.07016922    0.04872331
     atom    9 type  3   force =   -34.93365494   -0.07603256    0.05534090
     atom   10 type  3   force =    25.06614648    2.12501996   24.82559023
     atom   11 type  3   force =    24.14805745    0.85798286  -23.80448733
     atom   12 type  3   force =    24.25256689   -0.78178972   23.84038994
     atom   13 type  3   force =    25.04683168   -2.22312893  -24.79259322
     atom   14 type  3   force =   -25.01828811    2.19443610   24.90393163
     atom   15 type  3   force =   -24.10137751    0.92684789  -23.88230166
     atom   16 type  3   force =   -24.20737533   -0.85118711   23.91778694
     atom   17 type  3   force =   -24.99789649   -2.29204577  -24.87097499
     atom   18 type  4   force =     0.33938723   -4.72304894   14.98952954
     atom   19 type  4   force =    24.87358539   -0.97953100   27.00564008
     atom   20 type  4   force =    24.83334171    0.97589506  -26.97913381
     atom   21 type  4   force =   -24.74250422   -0.97797115   27.32576180
     atom   22 type  4   force =   -24.70319552    0.97448098  -27.29819983
     atom   23 type  5   force =    -7.48854766    0.00485875   -0.00713846
     The core correction contribution to forces
     atom    1 type  1   force =     0.00060122    0.00733399   -0.00133074
     atom    2 type  1   force =    -0.01268444   -0.00045436    0.00095849
     atom    3 type  1   force =    -0.01291942    0.00103645   -0.00174230
     atom    4 type  1   force =     0.01212926   -0.00078833    0.00101538
     atom    5 type  1   force =     0.01229118    0.00133834   -0.00172146
     atom    6 type  2   force =     0.00058740    0.00425579    0.00251326
     atom    7 type  2   force =     0.00059456   -0.00484704   -0.00194597
     atom    8 type  3   force =    -0.03000237    0.00040369   -0.00064783
     atom    9 type  3   force =     0.16626002   -0.00073709    0.00042511
     atom   10 type  3   force =    -0.02428117    0.00617508   -0.01631632
     atom   11 type  3   force =    -0.02573375    0.00800986    0.01678215
     atom   12 type  3   force =    -0.02347766   -0.00752037   -0.01539169
     atom   13 type  3   force =    -0.02375737   -0.00595847    0.01620581
     atom   14 type  3   force =     0.02500731    0.00587559   -0.01634308
     atom   15 type  3   force =     0.02654437    0.00752776    0.01688662
     atom   16 type  3   force =     0.02430247   -0.00707209   -0.01545289
     atom   17 type  3   force =     0.02453503   -0.00563466    0.01621102
     atom   18 type  4   force =     0.00037700   -0.00521660    0.00322246
     atom   19 type  4   force =    -0.01057686    0.00046425   -0.00793865
     atom   20 type  4   force =    -0.01050259   -0.00032380    0.00784312
     atom   21 type  4   force =     0.01065731    0.00045060   -0.00799809
     atom   22 type  4   force =     0.01059596   -0.00034460    0.00789015
     atom   23 type  5   force =     0.00000000    0.00000000    0.00000000
     The Hubbard contrib.    to forces
     atom    1 type  1   force =     0.00000000    0.00000000    0.00000000
     atom    2 type  1   force =     0.00000000    0.00000000    0.00000000
     atom    3 type  1   force =     0.00000000    0.00000000    0.00000000
     atom    4 type  1   force =     0.00000000    0.00000000    0.00000000
     atom    5 type  1   force =     0.00000000    0.00000000    0.00000000
     atom    6 type  2   force =     0.00000000    0.00000000    0.00000000
     atom    7 type  2   force =     0.00000000    0.00000000    0.00000000
     atom    8 type  3   force =     0.00000000    0.00000000    0.00000000
     atom    9 type  3   force =     0.00000000    0.00000000    0.00000000
     atom   10 type  3   force =     0.00000000    0.00000000    0.00000000
     atom   11 type  3   force =     0.00000000    0.00000000    0.00000000
     atom   12 type  3   force =     0.00000000    0.00000000    0.00000000
     atom   13 type  3   force =     0.00000000    0.00000000    0.00000000
     atom   14 type  3   force =     0.00000000    0.00000000    0.00000000
     atom   15 type  3   force =     0.00000000    0.00000000    0.00000000
     atom   16 type  3   force =     0.00000000    0.00000000    0.00000000
     atom   17 type  3   force =     0.00000000    0.00000000    0.00000000
     atom   18 type  4   force =     0.00000000    0.00000000    0.00000000
     atom   19 type  4   force =     0.00000000    0.00000000    0.00000000
     atom   20 type  4   force =     0.00000000    0.00000000    0.00000000
     atom   21 type  4   force =     0.00000000    0.00000000    0.00000000
     atom   22 type  4   force =     0.00000000    0.00000000    0.00000000
     atom   23 type  5   force =     0.00000000    0.00000000    0.00000000
     The SCF correction term to forces
     atom    1 type  1   force =    -0.00000000   -0.00000000    0.00000000
     atom    2 type  1   force =     0.00000000   -0.00000000    0.00000000
     atom    3 type  1   force =     0.00000000    0.00000000    0.00000000
     atom    4 type  1   force =    -0.00000000   -0.00000000    0.00000000
     atom    5 type  1   force =    -0.00000000    0.00000000    0.00000000
     atom    6 type  2   force =    -0.00000000    0.00000000    0.00000000
     atom    7 type  2   force =    -0.00000000    0.00000000    0.00000000
     atom    8 type  3   force =     0.00000000    0.00000000    0.00000000
     atom    9 type  3   force =    -0.00000000    0.00000000    0.00000000
     atom   10 type  3   force =    -0.00004617    0.00584835   -0.00471186
     atom   11 type  3   force =    -0.00213536   -0.00493324   -0.00517872
     atom   12 type  3   force =    -0.00065420   -0.00335539   -0.00286182
     atom   13 type  3   force =    -0.00044528    0.00570658   -0.00782820
     atom   14 type  3   force =    -0.00024380    0.00541194   -0.00468203
     atom   15 type  3   force =     0.00077714   -0.00518336   -0.00490607
     atom   16 type  3   force =     0.00004753   -0.00250544   -0.00276568
     atom   17 type  3   force =    -0.00071218    0.00550978   -0.00754931
     atom   18 type  4   force =    -0.00267637   -0.00182554    0.01575392
     atom   19 type  4   force =     0.00327807   -0.00180271   -0.00400784
     atom   20 type  4   force =    -0.00072718   -0.00057252   -0.00369424
     atom   21 type  4   force =    -0.00465395   -0.00203788   -0.00717758
     atom   22 type  4   force =    -0.00077293   -0.00031006   -0.00053461
     atom   23 type  5   force =     0.00038892   -0.00001673    0.00170236

     Total force =     4.987549     Total SCF correction =     0.028552

     Entering Dynamics:    iteration =     3
                           time      =   0.0006 pico-seconds


ATOMIC_POSITIONS (angstrom)
Hf            2.6699999570        2.8271230292        6.6039642186    0   0   0
Hf            1.2529906802        1.2862841814        5.0584662261    0   0   0
Hf            1.2554868986        7.3898042948        5.0880677674    0   0   0
Hf            4.0870092338        1.2862841814        5.0584662261    0   0   0
Hf            4.0845130154        7.3898042948        5.0880677674    0   0   0
Nb            2.6699999570        2.7969306055        3.5155832167    0   0   0
Nb            2.6699999570        5.8763786763        6.6349979432    0   0   0
Ta            1.2093730560        4.3409278516        5.0711258323    0   0   0
Ta            4.1306268580        4.3409278516        5.0711258323    0   0   0
Ta            1.3072442345        1.3141166009        2.0587643579
Ta            1.3027791624        1.3083835880        8.0945934883
Ta            1.3040019565        7.3758336469        2.0462229611
Ta            1.3077037463        7.3650889671        8.0860163552
Ta            4.0327553305        1.3141173743        2.0587645616
Ta            4.0372205604        1.3083842610        8.0945932820
Ta            4.0359977539        7.3758329829        2.0462232197
Ta            4.0322958786        7.3650881988        8.0860161353
Zr            2.6700011526        5.8662998034        3.5273713934
Zr            1.2437604468        4.3220758318        1.9999396785
Zr            1.2403092049        4.3541256905        8.1498164173
Zr            4.0962399188        4.3220755144        1.9999389228
Zr            4.0996912310        4.3541261040        8.1498170941
H             4.9097358384        4.3399431279        5.0722828122


     kinetic energy (Ekin) =           0.75125389 Ry
     temperature           =        5648.26707830 K 
     Ekin + Etot (const)   =       -2940.45709796 Ry

     Writing config-only to output data dir outdir/pwscf.save/
     NEW-OLD atomic charge density approx. for the potential

     Check: negative core charge=   -0.000002

     negative rho (up, down):  9.063E-01 9.063E-01
     Generating pointlists ...
     new r_m :   0.0438 (alat units)  0.6073 (a.u.) for type    3
     new r_m :   0.0438 (alat units)  0.6073 (a.u.) for type    5

     total cpu time spent up to now is      896.1 secs

     Self-consistent Calculation

     iteration #  1     ecut=   120.00 Ry     beta= 0.70
     Davidson diagonalization with overlap
[...]
   -43.1913 -38.5829 -38.5680 -38.4824 -38.4801 -36.7881 -25.2856 -24.8448
   -24.8363 -24.7583 -24.7553 -24.6662 -24.6548 -24.5485 -24.5253 -24.5062
   -24.3741 -24.3633 -24.3160 -24.3091 -24.3018 -24.2593 -24.2461 -24.2380
   -24.1983 -24.1919 -24.0318 -24.0234 -24.0222 -24.0016 -23.9567 -23.9403
   -23.9362 -23.9233 -23.6626 -23.5833 -21.1760 -20.9684 -20.6477 -20.5710
   -20.3050 -20.1630 -20.1377 -20.0401 -19.9315 -19.8539 -19.8434 -19.6243
   -19.4639 -19.4054 -19.3544 -19.3131 -19.2493 -19.2013 -18.7540 -18.6735
   -18.6258 -17.1400 -16.8246 -16.8119 -16.7683 -16.5793 -16.5737 -16.5620
   -16.5481 -16.5207 -16.4876 -16.2632 -16.2516 -15.1525 -14.9287 -14.8023
     4.0467   4.9539   5.8063   6.1353   6.3087   6.4516   6.5332   6.6112
     6.6283   6.8331   6.9596   7.1553   7.2293   7.4125   7.5272   7.5860
     7.7072   7.7245   7.9451   8.0392   8.0631   8.1985   8.2588   8.3019
     8.3667   8.4436   8.5492   8.5687   8.6432   8.6962   8.7593   8.8210
     8.8747   9.0128   9.0980   9.1882   9.1907   9.2689   9.3226   9.3965
     9.4208   9.4653   9.5336   9.8189   9.8607   9.9497  10.0313  10.1220
    10.1769  10.1981  10.3601  10.4049  10.4211  10.5157  10.5404  10.5695
    10.6523  10.8293  10.8437  10.9217  11.0007  11.0329  11.1370  11.2304
    11.2779  11.3202  11.3443  11.4051  11.6001  11.7670  11.8134  11.8387
    11.9364  12.0192  12.1836  12.1922  12.2060  12.2238  12.2286

     the Fermi energy is    10.3033 ev

!    total energy              =   -2942.65001910 Ry
     estimated scf accuracy    <       0.00051370 Ry
     smearing contrib. (-TS)   =      -0.09871063 Ry
     internal energy E=F+TS    =   -2942.55130847 Ry

     total magnetization       =    -0.00 Bohr mag/cell
     absolute magnetization    =     0.00 Bohr mag/cell

     convergence has been achieved in   5 iterations

     negative rho (up, down):  9.065E-01 9.065E-01

     Forces acting on atoms (cartesian axes, Ry/au):

     atom    1 type  1   force =    -0.00192355   -0.02695870    0.02562634
     atom    2 type  1   force =    -0.12899649   -0.01590932    0.00490362
     atom    3 type  1   force =    -0.12637475    0.01295333    0.00982532
     atom    4 type  1   force =     0.13133267   -0.01690053    0.00447143
     atom    5 type  1   force =     0.12875824    0.01411277    0.01030516
     atom    6 type  2   force =    -0.00331536   -0.01865536   -0.00974379
     atom    7 type  2   force =    -0.00356110    0.01719675    0.01046160
     atom    8 type  3   force =    -0.15332339    0.00336910   -0.00204845
     atom    9 type  3   force =    -1.28946704    0.00414078   -0.00647740
     atom   10 type  3   force =    -0.03218879   -0.02209748   -0.06173378
     atom   11 type  3   force =    -0.03551259   -0.03051805    0.05567748
     atom   12 type  3   force =    -0.02893980    0.02868676   -0.06021907
     atom   13 type  3   force =    -0.02744048    0.02432603    0.05460503
     atom   14 type  3   force =     0.03108798   -0.01992520   -0.06035028
     atom   15 type  3   force =     0.03443171   -0.02806984    0.05355620
     atom   16 type  3   force =     0.02790508    0.02607071   -0.05783744
     atom   17 type  3   force =     0.02637718    0.02211171    0.05323841
     atom   18 type  4   force =    -0.00202744    0.02662531   -0.02289638
     atom   19 type  4   force =    -0.14279006   -0.00354424   -0.12149654
     atom   20 type  4   force =    -0.14928057    0.00454712    0.11925232
     atom   21 type  4   force =     0.14287273   -0.00428770   -0.12378260
     atom   22 type  4   force =     0.14967372    0.00546240    0.12145656
     atom   23 type  5   force =     1.45270211   -0.00273633    0.00320628
     The non-local contrib.  to forces
     atom    1 type  1   force =     0.00025922   -0.00677726    0.03916354
     atom    2 type  1   force =    -0.24506145   -0.16071578    0.02117491
     atom    3 type  1   force =    -0.24084062    0.15572335   -0.02834368
     atom    4 type  1   force =     0.24993626   -0.15974149    0.02083960
     atom    5 type  1   force =     0.24635186    0.15418779   -0.02832074
     atom    6 type  2   force =    -0.00540612   -0.08095157   -0.06474787
     atom    7 type  2   force =    -0.00623555    0.09363964    0.05844205
     atom    8 type  3   force =    -0.28595758   -0.00129118   -0.00166892
     atom    9 type  3   force =     0.60837101   -0.00096423   -0.00279502
     atom   10 type  3   force =    -0.22696325    0.01015695   -0.22139252
     atom   11 type  3   force =    -0.22890550    0.00990635    0.21334857
     atom   12 type  3   force =    -0.21213695   -0.02495964   -0.19607897
     atom   13 type  3   force =    -0.21925941   -0.01011450    0.21646884
     atom   14 type  3   force =     0.22776228    0.01041176   -0.22263724
     atom   15 type  3   force =     0.23097993    0.01042243    0.21399812
     atom   16 type  3   force =     0.21397815   -0.02572235   -0.19597658
     atom   17 type  3   force =     0.21975948   -0.01057197    0.21787470
     atom   18 type  4   force =    -0.00470472    0.09435411   -0.07163842
     atom   19 type  4   force =     0.08228130    0.00166100    0.04989108
     atom   20 type  4   force =     0.07698482   -0.00104848   -0.04679993
     atom   21 type  4   force =    -0.08117430    0.00141407    0.05126003
     atom   22 type  4   force =    -0.07620274   -0.00042484   -0.04811294
     atom   23 type  5   force =    -0.19347633    0.00026839   -0.00019734
     The ionic contribution  to forces
     atom    1 type  1   force =    -0.26919123   -4.84437553   15.06221943
     atom    2 type  1   force =   -27.77916241   -6.33860981    0.78122071
     atom    3 type  1   force =   -27.77545660    6.32338612   -0.71370912
     atom    4 type  1   force =    27.64824535   -6.59678525    0.77976628
     atom    5 type  1   force =    27.64380560    6.58199778   -0.71213684
     atom    6 type  2   force =    -0.28228526   -3.81283074  -15.04628027
     atom    7 type  2   force =    -0.28254397    3.85016369   15.08061505
     atom    8 type  3   force =   -38.42062073    0.07465102   -0.06855702
     atom    9 type  3   force =    32.73267481    0.08447229   -0.08228579
     atom   10 type  3   force =   -24.82532746   -2.16733697  -24.63423320
     atom   11 type  3   force =   -23.89806210   -0.90086419   23.63010192
     atom   12 type  3   force =   -24.02272955    0.84693308  -23.67736617
     atom   13 type  3   force =   -24.80560291    2.25469872   24.61635588
     atom   14 type  3   force =    24.78041620   -2.22239580  -24.70041989
     atom   15 type  3   force =    23.85382812   -0.95546801   23.69587756
     atom   16 type  3   force =    23.97875920    0.90118280  -23.74280135
     atom   17 type  3   force =    24.76061206    2.30985025   24.68256575
     atom   18 type  4   force =    -0.26430072    4.60788236  -14.92254280
     atom   19 type  4   force =   -25.04741258    0.97357819  -27.14390212
     atom   20 type  4   force =   -25.00337673   -0.96780621   27.12348468
     atom   21 type  4   force =    24.92720708    0.97188184  -27.41544584
     atom   22 type  4   force =    24.88408052   -0.96649856   27.39471096
     atom   23 type  5   force =     7.46644332   -0.00770707    0.01276221
     The local contribution  to forces
     atom    1 type  1   force =     0.26473322    4.81201551  -15.05193602
     atom    2 type  1   force =    27.90854307    6.48273967   -0.77438044
     atom    3 type  1   force =    27.90443729   -6.46737623    0.77869705
     atom    4 type  1   force =   -27.78063723    6.73797179   -0.77300104
     atom    5 type  1   force =   -27.77638808   -6.72209113    0.77808857
     atom    6 type  2   force =     0.28274112    3.87513012   15.11446465
     atom    7 type  2   force =     0.28313056   -3.91605030  -15.09921468
     atom    8 type  3   force =    38.58342411   -0.06904755    0.09126552
     atom    9 type  3   force =   -34.66397033   -0.07774671    0.10145665
     atom   10 type  3   force =    25.04767229    2.13529554   24.80241067
     atom   11 type  3   force =    24.11541480    0.84701691  -23.80515631
     atom   12 type  3   force =    24.23275512   -0.79277651   23.82191207
     atom   13 type  3   force =    25.02085975   -2.20969733  -24.79648378
     atom   14 type  3   force =   -25.00575239    2.19319008   24.87141341
     atom   15 type  3   force =   -24.07511062    0.90366233  -23.87376854
     atom   16 type  3   force =   -24.19275273   -0.84921804   23.88934577
     atom   17 type  3   force =   -24.97813212   -2.26700261  -24.86551412
     atom   18 type  4   force =     0.26486987   -4.67448572   14.98340345
     atom   19 type  4   force =    24.83957048   -0.97912370   26.97482952
     atom   20 type  4   force =    24.78515924    0.97472107  -26.96484638
     atom   21 type  4   force =   -24.72090259   -0.97824569   27.24063205
     atom   22 type  4   force =   -24.66630156    0.97393415  -27.23079529
     atom   23 type  5   force =    -5.81967373    0.00467913   -0.00515155
     The core correction contribution to forces
     atom    1 type  1   force =     0.00076862    0.00733252   -0.00187425
     atom    2 type  1   force =    -0.01206400   -0.00007088    0.00117509
     atom    3 type  1   force =    -0.01244662    0.00075398   -0.00217949
     atom    4 type  1   force =     0.01240885   -0.00074460    0.00128054
     atom    5 type  1   force =     0.01276751    0.00138047   -0.00231133
     atom    6 type  2   force =     0.00029054    0.00380540    0.00235377
     atom    7 type  2   force =     0.00032150   -0.00449544   -0.00172508
     atom    8 type  3   force =    -0.03204961    0.00051178   -0.00062154
     atom    9 type  3   force =     0.03622509   -0.00033904   -0.00028999
     atom   10 type  3   force =    -0.02420281    0.00642882   -0.01641611
     atom   11 type  3   force =    -0.02543427    0.00748215    0.01704868
     atom   12 type  3   force =    -0.02373931   -0.00726968   -0.01573310
     atom   13 type  3   force =    -0.02350193   -0.00590541    0.01641901
     atom   14 type  3   force =     0.02502998    0.00675949   -0.01605398
     atom   15 type  3   force =     0.02612975    0.00799573    0.01663464
     atom   16 type  3   force =     0.02446999   -0.00781886   -0.01529536
     atom   17 type  3   force =     0.02421037   -0.00635230    0.01596718
     atom   18 type  4   force =     0.00028379   -0.00522062    0.00351872
     atom   19 type  4   force =    -0.01049773    0.00053393   -0.00817798
     atom   20 type  4   force =    -0.01040026   -0.00036892    0.00810200
     atom   21 type  4   force =     0.01057787    0.00055140   -0.00823224
     atom   22 type  4   force =     0.01050051   -0.00039846    0.00814706
     atom   23 type  5   force =     0.00000000    0.00000000    0.00000000
     The Hubbard contrib.    to forces
     atom    1 type  1   force =     0.00000000    0.00000000    0.00000000
     atom    2 type  1   force =     0.00000000    0.00000000    0.00000000
     atom    3 type  1   force =     0.00000000    0.00000000    0.00000000
     atom    4 type  1   force =     0.00000000    0.00000000    0.00000000
     atom    5 type  1   force =     0.00000000    0.00000000    0.00000000
     atom    6 type  2   force =     0.00000000    0.00000000    0.00000000
     atom    7 type  2   force =     0.00000000    0.00000000    0.00000000
     atom    8 type  3   force =     0.00000000    0.00000000    0.00000000
     atom    9 type  3   force =     0.00000000    0.00000000    0.00000000
     atom   10 type  3   force =     0.00000000    0.00000000    0.00000000
     atom   11 type  3   force =     0.00000000    0.00000000    0.00000000
     atom   12 type  3   force =     0.00000000    0.00000000    0.00000000
     atom   13 type  3   force =     0.00000000    0.00000000    0.00000000
     atom   14 type  3   force =     0.00000000    0.00000000    0.00000000
     atom   15 type  3   force =     0.00000000    0.00000000    0.00000000
     atom   16 type  3   force =     0.00000000    0.00000000    0.00000000
     atom   17 type  3   force =     0.00000000    0.00000000    0.00000000
     atom   18 type  4   force =     0.00000000    0.00000000    0.00000000
     atom   19 type  4   force =     0.00000000    0.00000000    0.00000000
     atom   20 type  4   force =     0.00000000    0.00000000    0.00000000
     atom   21 type  4   force =     0.00000000    0.00000000    0.00000000
     atom   22 type  4   force =     0.00000000    0.00000000    0.00000000
     atom   23 type  5   force =     0.00000000    0.00000000    0.00000000
     The SCF correction term to forces
     atom    1 type  1   force =     0.00000000    0.00000000   -0.00000000
     atom    2 type  1   force =    -0.00000000    0.00000000   -0.00000000
     atom    3 type  1   force =    -0.00000000    0.00000000   -0.00000000
     atom    4 type  1   force =     0.00000000    0.00000000   -0.00000000
     atom    5 type  1   force =     0.00000000   -0.00000000   -0.00000000
     atom    6 type  2   force =     0.00000000   -0.00000000   -0.00000000
     atom    7 type  2   force =     0.00000000   -0.00000000   -0.00000000
     atom    8 type  3   force =     0.00000000   -0.00000000   -0.00000000
     atom    9 type  3   force =    -0.00000000   -0.00000000   -0.00000000
     atom   10 type  3   force =    -0.00333291   -0.00671672    0.00977246
     atom   11 type  3   force =     0.00150914    0.00586583    0.00220970
     atom   12 type  3   force =    -0.00305447    0.00668461    0.00892219
     atom   13 type  3   force =     0.00009867   -0.00473034    0.00372017
     atom   14 type  3   force =     0.00366657   -0.00796564    0.00922250
     atom   15 type  3   force =    -0.00136083    0.00524278    0.00268951
     atom   16 type  3   force =     0.00348511    0.00757227    0.00876517
     atom   17 type  3   force =    -0.00003796   -0.00388656    0.00422000
     atom   18 type  4   force =     0.00185899    0.00402028   -0.01376225
     atom   19 type  4   force =    -0.00669687   -0.00026857    0.00773805
     atom   20 type  4   force =     0.00238701   -0.00102524    0.00118704
     atom   21 type  4   force =     0.00719933    0.00003578    0.00987849
     atom   22 type  4   force =    -0.00236836   -0.00122478   -0.00061813
     atom   23 type  5   force =    -0.00055651   -0.00005168   -0.00233195

     Total force =     1.514971     Total SCF correction =     0.035007

     Entering Dynamics:    iteration =    10
                           time      =   0.0020 pico-seconds


ATOMIC_POSITIONS (angstrom)
Hf            2.6699999570        2.8271230292        6.6039642186    0   0   0
Hf            1.2529906802        1.2862841814        5.0584662261    0   0   0
Hf            1.2554868986        7.3898042948        5.0880677674    0   0   0
Hf            4.0870092338        1.2862841814        5.0584662261    0   0   0
Hf            4.0845130154        7.3898042948        5.0880677674    0   0   0
Nb            2.6699999570        2.7969306055        3.5155832167    0   0   0
Nb            2.6699999570        5.8763786763        6.6349979432    0   0   0
Ta            1.2093730560        4.3409278516        5.0711258323    0   0   0
Ta            4.1306268580        4.3409278516        5.0711258323    0   0   0
Ta            1.3071576622        1.3140552611        2.0586161675
Ta            1.3026861719        1.3083073232        8.0947394143
Ta            1.3039240319        7.3759104260        2.0460808843
Ta            1.3076299379        7.3651495902        8.0861612682
Ta            4.0328354844        1.3140646694        2.0586181250
Ta            4.0373103832        1.3083155084        8.0947379848
Ta            4.0360724381        7.3759020980        2.0460827450
Ta            4.0323641296        7.3651402429        8.0861591267
Zr            2.6700286280        5.8664332445        3.5272497978
Zr            1.2430061134        4.3220533526        1.9993323447
Zr            1.2395325510        4.3541512395        8.1504342365
Zr            4.0969973268        4.3220509382        1.9993341665
Zr            4.1004715434        4.3541551741        8.1504329458
H             5.3434691636        4.3387462416        5.0742134189


     kinetic energy (Ekin) =           2.18910274 Ry
     temperature           =       16458.66602176 K 
     Ekin + Etot (const)   =       -2940.46091636 Ry

     The maximum number of steps has been reached.

     End of molecular dynamics calculation

     diffusion coefficients :
     atom     1   D =       0.00000000 cm^2/s
     atom     2   D =       0.00000000 cm^2/s
     atom     3   D =       0.00000000 cm^2/s
     atom     4   D =       0.00000000 cm^2/s
     atom     5   D =       0.00000000 cm^2/s
     atom     6   D =       0.00000000 cm^2/s
     atom     7   D =       0.00000000 cm^2/s
     atom     8   D =       0.00000000 cm^2/s
     atom     9   D =       0.00000000 cm^2/s
     atom    10   D =       0.00000000 cm^2/s
     atom    11   D =       0.00000000 cm^2/s
     atom    12   D =       0.00000000 cm^2/s
     atom    13   D =       0.00000000 cm^2/s
     atom    14   D =       0.00000000 cm^2/s
     atom    15   D =       0.00000000 cm^2/s
     atom    16   D =       0.00000000 cm^2/s
     atom    17   D =       0.00000000 cm^2/s
     atom    18   D =       0.00000000 cm^2/s
     atom    19   D =       0.00000001 cm^2/s
     atom    20   D =       0.00000001 cm^2/s
     atom    21   D =       0.00000001 cm^2/s
     atom    22   D =       0.00000001 cm^2/s
     atom    23   D =       0.00037164 cm^2/s

     < D > =       0.00002655 cm^2/s

     Writing all to output data dir outdir/pwscf.save/

     init_run     :     23.71s CPU     24.21s WALL (       1 calls)
     electrons    :   2183.62s CPU   2217.94s WALL (      10 calls)
     update_pot   :     20.84s CPU     20.92s WALL (       9 calls)
     forces       :    162.30s CPU    164.61s WALL (      10 calls)

     Called by init_run:
     wfcinit      :     18.81s CPU     19.04s WALL (       1 calls)
     potinit      :      1.04s CPU      1.06s WALL (       1 calls)
     hinit0       :      1.76s CPU      1.81s WALL (       1 calls)

     Called by electrons:
     c_bands      :   1769.11s CPU   1780.37s WALL (      53 calls)
     sum_band     :    293.38s CPU    305.73s WALL (      53 calls)
     v_of_rho     :     13.48s CPU     13.93s WALL (      63 calls)
     newd         :    128.01s CPU    139.59s WALL (      63 calls)
     mix_rho      :      1.07s CPU      1.08s WALL (      53 calls)

     Called by c_bands:
     init_us_2    :      2.95s CPU      2.98s WALL (     234 calls)
     init_us_2:cp :      2.94s CPU      2.98s WALL (     234 calls)
     regterg      :   1754.20s CPU   1765.41s WALL (     106 calls)

     Called by *egterg:
     rdiaghg      :     34.02s CPU     34.47s WALL (     790 calls)
     h_psi        :    728.78s CPU    737.05s WALL (     810 calls)
     s_psi        :    266.78s CPU    267.18s WALL (     810 calls)
     g_psi        :      0.53s CPU      0.54s WALL (     702 calls)

     Called by h_psi:
     h_psi:calbec :    327.09s CPU    327.71s WALL (     810 calls)
     vloc_psi     :    132.79s CPU    140.05s WALL (     810 calls)
     add_vuspsi   :    267.77s CPU    268.15s WALL (     810 calls)

     General routines
     calbec       :    549.10s CPU    550.03s WALL (     996 calls)
     fft          :     10.53s CPU     11.09s WALL (    1104 calls)
     ffts         :      0.28s CPU      0.33s WALL (      53 calls)
     fftw         :    137.04s CPU    144.54s WALL (   55036 calls)

     Parallel routines

     PWSCF        :  40m10.38s CPU  40m49.62s WALL


   This run was terminated on:   5:40:43  11Jun2023            

=------------------------------------------------------------------------------=
   JOB DONE.
=------------------------------------------------------------------------------=
