
     Program PWSCF v.7.2 starts on  5Jun2023 at 18:58:35 

     This program is part of the open-source Quantum ESPRESSO suite
     for quantum simulation of materials; please cite
         "P. Giannozzi et al., J. Phys.:Condens. Matter 21 395502 (2009);
         "P. Giannozzi et al., J. Phys.:Condens. Matter 29 465901 (2017);
         "P. Giannozzi et al., J. Chem. Phys. 152 154105 (2020);
          URL http://www.quantum-espresso.org", 
     in publications or presentations arising from this work. More details at
     http://www.quantum-espresso.org/quote

     Parallel version (MPI), running on    12 processors

     MPI processes distributed on     1 nodes
     67164 MiB available memory on the printing compute node when the environment starts

     Reading input from relax_Hf5Nb2Ta10Zr5.in
Warning: card &CELL ignored
Warning: card / ignored

     Current dimensions of program PWSCF are:
     Max number of different atomic species (ntypx) = 10
     Max number of k-points (npk) =  40000
     Max angular momentum in pseudopotentials (lmaxx) =  4

     gamma-point specific algorithms are used
     Message from routine setup:
     using ibrav=0 with symmetry is DISCOURAGED, use correct ibrav instead

     R & G space division:  proc/nbgrp/npool/nimage =      12
     Subspace diagonalization in iterative solution of the eigenvalue problem:
     one sub-group per band group will be used
     custom distributed-memory algorithm (size of sub-group:  2*  2 procs)


     Parallelization info
     --------------------
     sticks:   dense  smooth     PW     G-vecs:    dense   smooth      PW
     Min        1052     525    130               113644    40162    5010
     Max        1054     528    132               113654    40172    5024
     Sum       12635    6325   1579              1363791   482019   60243

     Using Slab Decomposition



     bravais-lattice index     =            0
     lattice parameter (alat)  =      10.0911  a.u.
     unit-cell volume          =    2715.0466 (a.u.)^3
     number of atoms/cell      =           22
     number of atomic types    =            4
     number of electrons       =       276.00
     number of Kohn-Sham states=          166
     kinetic-energy cutoff     =     120.0000  Ry
     charge density cutoff     =     960.0000  Ry
     scf convergence threshold =      1.0E-06
     mixing beta               =       0.7000
     number of iterations used =            8  plain     mixing
     energy convergence thresh.=      1.0E-03
     force convergence thresh. =      1.0E-02
     Exchange-correlation= SLA  PW   PBE  PBE
                           (   1   4   3   4   0   0   0)
     nstep                     =           50


     celldm(1)=  10.091137  celldm(2)=   0.000000  celldm(3)=   0.000000
     celldm(4)=   0.000000  celldm(5)=   0.000000  celldm(6)=   0.000000

     crystal axes: (cart. coord. in units of alat)
               a(1) = (   1.000000   0.000000   0.000000 )  
               a(2) = (   0.000000   1.625468   0.000000 )  
               a(3) = (   0.000000   0.000000   1.625468 )  

     reciprocal axes: (cart. coord. in units 2 pi/alat)
               b(1) = (  1.000000  0.000000  0.000000 )  
               b(2) = (  0.000000  0.615207  0.000000 )  
               b(3) = (  0.000000  0.000000  0.615207 )  


     PseudoPot. # 1 for Hf read from file:
     q-e/pseudo/hf_pbe_v1.uspp.F.UPF
     MD5 check sum: 8ee9378dfe14276e333edf04c5e4aa26
     Pseudo is Ultrasoft + core correction, Zval = 12.0
     Generated by new atomic code, or converted to UPF format
     Using radial grid of  921 points,  8 beta functions with: 
                l(1) =   0
                l(2) =   0
                l(3) =   0
                l(4) =   1
                l(5) =   1
                l(6) =   2
                l(7) =   2
                l(8) =   3
     Q(r) pseudized with  6 coefficients,  rinner =    1.200   1.200   1.200
                                                       1.200   1.200   1.200
                                                       1.200

     PseudoPot. # 2 for Nb read from file:
     q-e/pseudo/nb_pbe_v1.uspp.F.UPF
     MD5 check sum: 573aab8a2fa660278ed4a62cd769473f
     Pseudo is Ultrasoft + core correction, Zval = 13.0
     Generated by new atomic code, or converted to UPF format
     Using radial grid of  887 points,  6 beta functions with: 
                l(1) =   0
                l(2) =   0
                l(3) =   1
                l(4) =   1
                l(5) =   2
                l(6) =   2
     Q(r) pseudized with  6 coefficients,  rinner =    1.000   1.000   1.000
                                                       1.000   1.000

     PseudoPot. # 3 for Ta read from file:
     q-e/pseudo/ta_pbe_v1.uspp.F.UPF
     MD5 check sum: f8bbe9446314a3b8ea5d9f3e3836c939
     Pseudo is Ultrasoft + core correction, Zval = 13.0
     Generated by new atomic code, or converted to UPF format
     Using radial grid of  921 points,  7 beta functions with: 
                l(1) =   0
                l(2) =   0
                l(3) =   1
                l(4) =   1
                l(5) =   2
                l(6) =   2
                l(7) =   3
     Q(r) pseudized with  6 coefficients,  rinner =    1.300   1.300   1.300
                                                       1.300   1.300   1.300
                                                       1.300

     PseudoPot. # 4 for Zr read from file:
     q-e/pseudo/zr_pbe_v1.uspp.F.UPF
     MD5 check sum: 5db81b1e868ab7776c4564c113de050b
     Pseudo is Ultrasoft + core correction, Zval = 12.0
     Generated by new atomic code, or converted to UPF format
     Using radial grid of  887 points,  6 beta functions with: 
                l(1) =   0
                l(2) =   0
                l(3) =   1
                l(4) =   1
                l(5) =   2
                l(6) =   2
     Q(r) pseudized with  6 coefficients,  rinner =    1.200   1.200   1.200
                                                       1.200   1.200

     atomic species   valence    mass     pseudopotential
        Hf            12.00   178.49000     Hf( 1.00)
        Nb            13.00    92.90637     Nb( 1.00)
        Ta            13.00   180.94788     Ta( 1.00)
        Zr            12.00    91.22400     Zr( 1.00)

      2 Sym. Ops. (no inversion) found



   Cartesian axes

     site n.     atom                  positions (alat units)
         1           Hf  tau(   1) = (   0.5000000   0.5000000   1.1254682  )
         2           Hf  tau(   2) = (   0.1872659   0.1872659   0.8127341  )
         3           Hf  tau(   3) = (   0.1872659   1.4382022   0.8127341  )
         4           Hf  tau(   4) = (   0.8127341   0.1872659   0.8127341  )
         5           Hf  tau(   5) = (   0.8127341   1.4382022   0.8127341  )
         6           Nb  tau(   6) = (   0.5000000   0.5000000   0.5000000  )
         7           Nb  tau(   7) = (   0.5000000   1.1254682   1.1254682  )
         8           Ta  tau(   8) = (   0.1872659   0.8127341   0.8127341  )
         9           Ta  tau(   9) = (   0.8127341   0.8127341   0.8127341  )
        10           Ta  tau(  10) = (   0.1872659   0.1872659   0.1872659  )
        11           Ta  tau(  11) = (   0.1872659   0.1872659   1.4382022  )
        12           Ta  tau(  12) = (   0.1872659   1.4382022   0.1872659  )
        13           Ta  tau(  13) = (   0.1872659   1.4382022   1.4382022  )
        14           Ta  tau(  14) = (   0.8127341   0.1872659   0.1872659  )
        15           Ta  tau(  15) = (   0.8127341   0.1872659   1.4382022  )
        16           Ta  tau(  16) = (   0.8127341   1.4382022   0.1872659  )
        17           Ta  tau(  17) = (   0.8127341   1.4382022   1.4382022  )
        18           Zr  tau(  18) = (   0.5000000   1.1254682   0.5000000  )
        19           Zr  tau(  19) = (   0.1872659   0.8127341   0.1872659  )
        20           Zr  tau(  20) = (   0.1872659   0.8127341   1.4382022  )
        21           Zr  tau(  21) = (   0.8127341   0.8127341   0.1872659  )
        22           Zr  tau(  22) = (   0.8127341   0.8127341   1.4382022  )

     number of k points=     1  Gaussian smearing, width (Ry)=  0.0220
                       cart. coord. in units 2pi/alat
        k(    1) = (   0.0000000   0.0000000   0.0000000), wk =   2.0000000

     Dense  grid:   681896 G-vectors     FFT dimensions: ( 100, 162, 162)

     Smooth grid:   241010 G-vectors     FFT dimensions: (  72, 120, 120)

     Estimated max dynamical RAM per process >     446.27 MB

     Estimated total dynamical RAM >       5.23 GB

     Initial potential from superposition of free atoms

     starting charge     265.9727, renormalised to     276.0000

     negative rho (up, down):  1.802E+00 0.000E+00
     Starting wfcs are  286 randomized atomic wfcs

     total cpu time spent up to now is       12.6 secs

     Self-consistent Calculation

     iteration #  1     ecut=   120.00 Ry     beta= 0.70
     Davidson diagonalization with overlap
     ethr =  1.00E-02,  avg # of iterations =  5.0

     negative rho (up, down):  1.691E+00 0.000E+00

     total cpu time spent up to now is       31.0 secs

     total energy              =   -2473.20583745 Ry
     estimated scf accuracy    <     581.02911529 Ry

     iteration #  2     ecut=   120.00 Ry     beta= 0.70
     Davidson diagonalization with overlap
     ethr =  1.00E-02,  avg # of iterations = 13.0

     negative rho (up, down):  1.525E+00 0.000E+00

     total cpu time spent up to now is       79.6 secs

     total energy              =   -2743.03617495 Ry
     estimated scf accuracy    <    4047.01492784 Ry

     iteration #  3     ecut=   120.00 Ry     beta= 0.70
     Davidson diagonalization with overlap
     ethr =  1.00E-02,  avg # of iterations = 11.0

     negative rho (up, down):  1.520E+00 0.000E+00

     total cpu time spent up to now is      120.1 secs

     total energy              =   -2908.58673137 Ry
     estimated scf accuracy    <    1070.03804610 Ry

     iteration #  4     ecut=   120.00 Ry     beta= 0.70
     Davidson diagonalization with overlap
     ethr =  1.00E-02,  avg # of iterations =  7.0

     negative rho (up, down):  1.548E+00 0.000E+00

     total cpu time spent up to now is      142.6 secs

     total energy              =   -2952.39072108 Ry
     estimated scf accuracy    <     519.49954467 Ry

     iteration #  5     ecut=   120.00 Ry     beta= 0.70
     Davidson diagonalization with overlap
     ethr =  1.00E-02,  avg # of iterations =  6.0

     negative rho (up, down):  1.605E+00 0.000E+00

     total cpu time spent up to now is      161.6 secs

     total energy              =   -2948.44300914 Ry
     estimated scf accuracy    <     201.85518367 Ry

     iteration #  6     ecut=   120.00 Ry     beta= 0.70
     Davidson diagonalization with overlap
     ethr =  1.00E-02,  avg # of iterations =  6.0

     negative rho (up, down):  1.634E+00 0.000E+00

     total cpu time spent up to now is      176.5 secs

     total energy              =   -2947.95261971 Ry
     estimated scf accuracy    <     110.54186384 Ry

     iteration #  7     ecut=   120.00 Ry     beta= 0.70
     Davidson diagonalization with overlap
     ethr =  1.00E-02,  avg # of iterations =  2.0

     negative rho (up, down):  1.650E+00 0.000E+00

     total cpu time spent up to now is      189.8 secs

     total energy              =   -2946.12999480 Ry
     estimated scf accuracy    <      84.77471729 Ry

     iteration #  8     ecut=   120.00 Ry     beta= 0.70
     Davidson diagonalization with overlap
     ethr =  1.00E-02,  avg # of iterations =  1.0

     negative rho (up, down):  1.663E+00 0.000E+00

     total cpu time spent up to now is      202.6 secs

     total energy              =   -2944.27512160 Ry
     estimated scf accuracy    <      67.64504584 Ry

     iteration #  9     ecut=   120.00 Ry     beta= 0.70
     Davidson diagonalization with overlap
     ethr =  1.00E-02,  avg # of iterations =  1.0

     negative rho (up, down):  1.671E+00 0.000E+00

     total cpu time spent up to now is      215.6 secs

     total energy              =   -2942.94342245 Ry
     estimated scf accuracy    <      59.41615851 Ry

     iteration # 10     ecut=   120.00 Ry     beta= 0.70
     Davidson diagonalization with overlap
     ethr =  1.00E-02,  avg # of iterations =  1.0

     negative rho (up, down):  1.822E+00 0.000E+00

     total cpu time spent up to now is      228.1 secs

     total energy              =   -2920.40376298 Ry
     estimated scf accuracy    <      51.61831133 Ry

     iteration # 11     ecut=   120.00 Ry     beta= 0.70
     Davidson diagonalization with overlap
     ethr =  1.00E-02,  avg # of iterations =  6.0

     negative rho (up, down):  1.742E+00 0.000E+00

     total cpu time spent up to now is      247.2 secs

     total energy              =   -2925.49431805 Ry
     estimated scf accuracy    <     264.36823568 Ry

     iteration # 12     ecut=   120.00 Ry     beta= 0.70
     Davidson diagonalization with overlap
     ethr =  1.00E-02,  avg # of iterations =  4.0

     negative rho (up, down):  1.723E+00 0.000E+00

     total cpu time spent up to now is      262.2 secs

     total energy              =   -2936.67828913 Ry
     estimated scf accuracy    <      12.84037408 Ry

     iteration # 13     ecut=   120.00 Ry     beta= 0.70
     Davidson diagonalization with overlap
     ethr =  4.65E-03,  avg # of iterations =  4.0

     negative rho (up, down):  1.723E+00 0.000E+00

     total cpu time spent up to now is      276.6 secs

     total energy              =   -2937.80159495 Ry
     estimated scf accuracy    <       1.24011092 Ry

     iteration # 14     ecut=   120.00 Ry     beta= 0.70
     Davidson diagonalization with overlap
     ethr =  4.49E-04,  avg # of iterations =  8.0

     negative rho (up, down):  1.724E+00 0.000E+00

     total cpu time spent up to now is      295.8 secs

     total energy              =   -2937.79808546 Ry
     estimated scf accuracy    <       3.44174966 Ry

     iteration # 15     ecut=   120.00 Ry     beta= 0.70
     Davidson diagonalization with overlap
     ethr =  4.49E-04,  avg # of iterations =  2.0

     negative rho (up, down):  1.726E+00 0.000E+00

     total cpu time spent up to now is      309.6 secs

     total energy              =   -2937.79995467 Ry
     estimated scf accuracy    <       1.23898058 Ry

     iteration # 16     ecut=   120.00 Ry     beta= 0.70
     Davidson diagonalization with overlap
     ethr =  4.49E-04,  avg # of iterations =  2.0

     negative rho (up, down):  1.727E+00 0.000E+00

     total cpu time spent up to now is      325.3 secs

     total energy              =   -2937.74171776 Ry
     estimated scf accuracy    <       1.48768288 Ry

     iteration # 17     ecut=   120.00 Ry     beta= 0.70
     Davidson diagonalization with overlap
     ethr =  4.49E-04,  avg # of iterations =  2.0

     negative rho (up, down):  1.728E+00 0.000E+00

     total cpu time spent up to now is      339.8 secs

     total energy              =   -2937.80248385 Ry
     estimated scf accuracy    <       0.53147530 Ry

     iteration # 18     ecut=   120.00 Ry     beta= 0.70
     Davidson diagonalization with overlap
     ethr =  1.93E-04,  avg # of iterations =  3.0

     negative rho (up, down):  1.731E+00 0.000E+00

     total cpu time spent up to now is      356.0 secs

     total energy              =   -2937.81198284 Ry
     estimated scf accuracy    <       0.74568964 Ry

     iteration # 19     ecut=   120.00 Ry     beta= 0.70
     Davidson diagonalization with overlap
     ethr =  1.93E-04,  avg # of iterations =  2.0

     negative rho (up, down):  1.732E+00 0.000E+00

     total cpu time spent up to now is      370.9 secs

     total energy              =   -2937.82530162 Ry
     estimated scf accuracy    <       0.22175115 Ry

     iteration # 20     ecut=   120.00 Ry     beta= 0.70
     Davidson diagonalization with overlap
     ethr =  8.03E-05,  avg # of iterations =  8.0

     negative rho (up, down):  1.733E+00 0.000E+00

     total cpu time spent up to now is      384.6 secs

     total energy              =   -2937.82302734 Ry
     estimated scf accuracy    <       0.13730542 Ry

     iteration # 21     ecut=   120.00 Ry     beta= 0.70
     Davidson diagonalization with overlap
     ethr =  4.97E-05,  avg # of iterations =  3.0

     negative rho (up, down):  1.733E+00 0.000E+00

     total cpu time spent up to now is      398.7 secs

     total energy              =   -2937.82203804 Ry
     estimated scf accuracy    <       0.09051149 Ry

     iteration # 22     ecut=   120.00 Ry     beta= 0.70
     Davidson diagonalization with overlap
     ethr =  3.28E-05,  avg # of iterations = 17.0

     negative rho (up, down):  1.733E+00 0.000E+00

     total cpu time spent up to now is      414.7 secs

     total energy              =   -2937.81865437 Ry
     estimated scf accuracy    <       0.17595813 Ry

     iteration # 23     ecut=   120.00 Ry     beta= 0.70
     Davidson diagonalization with overlap
     ethr =  3.28E-05,  avg # of iterations =  3.0

     negative rho (up, down):  1.734E+00 0.000E+00

     total cpu time spent up to now is      430.4 secs

     total energy              =   -2937.83556775 Ry
     estimated scf accuracy    <       0.00599807 Ry

     iteration # 24     ecut=   120.00 Ry     beta= 0.70
     Davidson diagonalization with overlap
     ethr =  2.17E-06,  avg # of iterations = 10.0

     negative rho (up, down):  1.734E+00 0.000E+00

     total cpu time spent up to now is      451.4 secs

     total energy              =   -2937.83640773 Ry
     estimated scf accuracy    <       0.00354181 Ry

     iteration # 25     ecut=   120.00 Ry     beta= 0.70
     Davidson diagonalization with overlap
     ethr =  1.28E-06,  avg # of iterations =  3.0

     negative rho (up, down):  1.734E+00 0.000E+00

     total cpu time spent up to now is      469.6 secs

     total energy              =   -2937.83650598 Ry
     estimated scf accuracy    <       0.00545685 Ry

     iteration # 26     ecut=   120.00 Ry     beta= 0.70
     Davidson diagonalization with overlap
     ethr =  1.28E-06,  avg # of iterations =  2.0

     negative rho (up, down):  1.734E+00 0.000E+00

     total cpu time spent up to now is      485.2 secs

     total energy              =   -2937.83694928 Ry
     estimated scf accuracy    <       0.00078360 Ry

     iteration # 27     ecut=   120.00 Ry     beta= 0.70
     Davidson diagonalization with overlap
     ethr =  2.84E-07,  avg # of iterations =  3.0

     negative rho (up, down):  1.734E+00 0.000E+00

     total cpu time spent up to now is      501.4 secs

     total energy              =   -2937.83693325 Ry
     estimated scf accuracy    <       0.00185619 Ry

     iteration # 28     ecut=   120.00 Ry     beta= 0.70
     Davidson diagonalization with overlap
     ethr =  2.84E-07,  avg # of iterations =  2.0

     negative rho (up, down):  1.734E+00 0.000E+00

     total cpu time spent up to now is      517.9 secs

     total energy              =   -2937.83697677 Ry
     estimated scf accuracy    <       0.00104186 Ry

     iteration # 29     ecut=   120.00 Ry     beta= 0.70
     Davidson diagonalization with overlap
     ethr =  2.84E-07,  avg # of iterations =  1.0

     negative rho (up, down):  1.734E+00 0.000E+00

     total cpu time spent up to now is      533.3 secs

     total energy              =   -2937.83702165 Ry
     estimated scf accuracy    <       0.00017777 Ry

     iteration # 30     ecut=   120.00 Ry     beta= 0.70
     Davidson diagonalization with overlap
     ethr =  6.44E-08,  avg # of iterations =  2.0

     negative rho (up, down):  1.734E+00 0.000E+00

     total cpu time spent up to now is      550.6 secs

     total energy              =   -2937.83703026 Ry
     estimated scf accuracy    <       0.00025552 Ry

     iteration # 31     ecut=   120.00 Ry     beta= 0.70
     Davidson diagonalization with overlap
     ethr =  6.44E-08,  avg # of iterations =  2.0

     negative rho (up, down):  1.734E+00 0.000E+00

     total cpu time spent up to now is      566.9 secs

     total energy              =   -2937.83704127 Ry
     estimated scf accuracy    <       0.00003261 Ry

     iteration # 32     ecut=   120.00 Ry     beta= 0.70
     Davidson diagonalization with overlap
     ethr =  1.18E-08,  avg # of iterations =  5.0

     negative rho (up, down):  1.734E+00 0.000E+00

     total cpu time spent up to now is      585.2 secs

     total energy              =   -2937.83703489 Ry
     estimated scf accuracy    <       0.00016836 Ry

     iteration # 33     ecut=   120.00 Ry     beta= 0.70
     Davidson diagonalization with overlap
     ethr =  1.18E-08,  avg # of iterations =  3.0

     negative rho (up, down):  1.734E+00 0.000E+00

     total cpu time spent up to now is      602.4 secs

     total energy              =   -2937.83704529 Ry
     estimated scf accuracy    <       0.00002386 Ry

     iteration # 34     ecut=   120.00 Ry     beta= 0.70
     Davidson diagonalization with overlap
     ethr =  8.65E-09,  avg # of iterations =  2.0

     negative rho (up, down):  1.734E+00 0.000E+00

     total cpu time spent up to now is      618.5 secs

     total energy              =   -2937.83704708 Ry
     estimated scf accuracy    <       0.00000174 Ry

     iteration # 35     ecut=   120.00 Ry     beta= 0.70
     Davidson diagonalization with overlap
     ethr =  6.29E-10,  avg # of iterations =  6.0

     negative rho (up, down):  1.734E+00 0.000E+00

     total cpu time spent up to now is      636.7 secs

     total energy              =   -2937.83704652 Ry
     estimated scf accuracy    <       0.00001426 Ry

     iteration # 36     ecut=   120.00 Ry     beta= 0.70
     Davidson diagonalization with overlap
     ethr =  6.29E-10,  avg # of iterations =  5.0

     negative rho (up, down):  1.734E+00 0.000E+00

     total cpu time spent up to now is      654.5 secs

     End of self-consistent calculation

          k = 0.0000 0.0000 0.0000 ( 30122 PWs)   bands (ev):

   -51.7849 -50.6742 -50.6468 -50.6161 -50.2483 -49.5422 -49.5102 -49.4831
   -49.1258 -48.3789 -44.7753 -43.3997 -43.3911 -43.2892 -42.0055 -36.5203
   -36.5121 -32.4250 -30.3630 -30.3589 -30.0654 -28.2162 -20.9464 -20.9343
   -20.6969 -19.8607 -19.8450 -19.8351 -19.6586 -19.6363 -19.6107 -19.3619
   -18.7160 -18.6913 -18.6895 -16.6300 -16.5994 -16.4043 -16.0509 -15.6699
   -15.6386 -15.0574 -15.0387 -15.0350 -14.9779 -14.8844 -14.1604 -14.1539
   -14.1360 -14.0972 -14.0755 -14.0426 -13.8043 -13.3234 -13.2559 -13.2189
   -13.0083 -12.7644 -12.6990 -12.6602 -12.6479 -12.6383 -12.5781 -12.5646
   -12.2278 -12.0591 -12.0329 -11.9164 -11.6928 -11.6926 -11.0199 -10.9142
   -10.5870 -10.0086  -9.6903  -9.2894  -8.9690  -8.6714  -8.2544  -8.2313
    -8.2008  -7.8457  -7.8386  -6.5751  -5.9177  -5.6247  -4.6806  -4.4199
     9.3515  10.5950  10.6044  11.2547  12.2320  12.4488  12.4534  12.5597
    12.7197  12.9545  13.1459  13.2100  13.8019  13.8687  14.0775  14.2583
    14.3425  14.5890  14.6238  14.7032  14.9110  14.9807  14.9900  15.0766
    15.0890  15.3368  15.4842  15.5022  15.6033  16.2449  16.2711  16.3032
    16.4057  16.7011  16.8369  16.8964  16.9990  17.1397  17.2595  17.2689
    17.3193  17.4273  17.4625  17.4868  17.6669  17.8271  17.8998  18.0194
    18.0697  18.1327  18.2545  18.2792  18.3679  18.5289  18.8279  18.9295
    18.9743  19.0925  19.2311  19.2585  19.2791  19.5422  19.5722  19.6085
    19.6406  19.6884  19.8105  19.9859  20.0611  20.2869  20.3032  20.3764
    20.4644  20.6317  20.6806  20.8237  20.9418  21.0095

     the Fermi energy is    18.1944 ev

!    total energy              =   -2937.83704721 Ry
     estimated scf accuracy    <       0.00000063 Ry
     smearing contrib. (-TS)   =      -0.07525895 Ry
     internal energy E=F+TS    =   -2937.76178826 Ry

     The total energy is F=E-TS. E is the sum of the following terms:
     one-electron contribution =    -776.88195836 Ry
     hartree contribution      =     526.44121328 Ry
     xc contribution           =    -937.70556524 Ry
     ewald contribution        =   -1749.61547794 Ry

     convergence has been achieved in  36 iterations

     negative rho (up, down):  1.734E+00 0.000E+00

     Forces acting on atoms (cartesian axes, Ry/au):

     atom    1 type  1   force =     0.00000000   -0.00285749   -0.01069439
     atom    2 type  1   force =     0.65782406    0.63447584   -0.01083268
     atom    3 type  1   force =     0.66408726   -0.63395571    0.01401263
     atom    4 type  1   force =    -0.65782406    0.63447584   -0.01083268
     atom    5 type  1   force =    -0.66408726   -0.63395571    0.01401263
     atom    6 type  2   force =     0.00000000    0.00074926    0.02564970
     atom    7 type  2   force =     0.00000000   -0.00143657   -0.02457032
     atom    8 type  3   force =     0.67480745   -0.00084910    0.00088296
     atom    9 type  3   force =    -0.67480745   -0.00084910    0.00088296
     atom   10 type  3   force =     0.80672852    0.86781074    0.87452301
     atom   11 type  3   force =     0.80177893    0.86248053   -0.86990134
     atom   12 type  3   force =     0.80546260   -0.86340515    0.87103877
     atom   13 type  3   force =     0.80682522   -0.86641039   -0.87620495
     atom   14 type  3   force =    -0.80672852    0.86781074    0.87452301
     atom   15 type  3   force =    -0.80177893    0.86248053   -0.86990134
     atom   16 type  3   force =    -0.80546260   -0.86340515    0.87103877
     atom   17 type  3   force =    -0.80682522   -0.86641039   -0.87620495
     atom   18 type  4   force =     0.00000000    0.01034371    0.00305508
     atom   19 type  4   force =     0.56911417   -0.01261052    0.53269513
     atom   20 type  4   force =     0.56538131    0.00906430   -0.53293358
     atom   21 type  4   force =    -0.56911417   -0.01261052    0.53269513
     atom   22 type  4   force =    -0.56538131    0.00906430   -0.53293358
     The non-local contrib.  to forces
     atom    1 type  1   force =     0.00000000   -0.02682212    0.04280300
     atom    2 type  1   force =    -0.68485262   -0.61320203    0.01252206
     atom    3 type  1   force =    -0.67664705    0.60968430   -0.01657005
     atom    4 type  1   force =     0.68485262   -0.61320203    0.01252206
     atom    5 type  1   force =     0.67664705    0.60968430   -0.01657005
     atom    6 type  2   force =     0.00000000   -0.04914440   -0.03988517
     atom    7 type  2   force =     0.00000000    0.05807603    0.02924356
     atom    8 type  3   force =    -0.75953686    0.00285484   -0.00298248
     atom    9 type  3   force =     0.75953686    0.00285484   -0.00298248
     atom   10 type  3   force =    -0.65355383   -0.63599943   -0.62527905
     atom   11 type  3   force =    -0.65056761   -0.64728842    0.64023035
     atom   12 type  3   force =    -0.64210107    0.64007701   -0.63128774
     atom   13 type  3   force =    -0.65398140    0.63397090    0.62754857
     atom   14 type  3   force =     0.65355383   -0.63599943   -0.62527905
     atom   15 type  3   force =     0.65056761   -0.64728842    0.64023035
     atom   16 type  3   force =     0.64210107    0.64007701   -0.63128774
     atom   17 type  3   force =     0.65398140    0.63397090    0.62754857
     atom   18 type  4   force =     0.00000000    0.04178684   -0.02288262
     atom   19 type  4   force =    -0.05472412    0.02447259   -0.14739352
     atom   20 type  4   force =    -0.05779947   -0.02307148    0.14706333
     atom   21 type  4   force =     0.05472412    0.02447259   -0.14739352
     atom   22 type  4   force =     0.05779947   -0.02307148    0.14706333
     The ionic contribution  to forces
     atom    1 type  1   force =    -0.00000000    2.83496093   -2.83496621
     atom    2 type  1   force =    13.09673849   14.65013680    0.32959139
     atom    3 type  1   force =    13.09673675  -14.65013441   -0.32959158
     atom    4 type  1   force =   -13.09673849   14.65013680    0.32959139
     atom    5 type  1   force =   -13.09673675  -14.65013441   -0.32959158
     atom    6 type  2   force =    -0.00000000    3.39462649    3.39462649
     atom    7 type  2   force =     0.00000000   -3.39463381   -3.39463381
     atom    8 type  3   force =     6.81620181    0.00000043    0.00000043
     atom    9 type  3   force =    -6.81620181    0.00000043    0.00000043
     atom   10 type  3   force =    22.46757340   26.31817662   26.31817662
     atom   11 type  3   force =    22.65697876   26.76245891  -26.76245816
     atom   12 type  3   force =    22.65697876  -26.76245816   26.76245891
     atom   13 type  3   force =    22.46757122  -26.31817370  -26.31817370
     atom   14 type  3   force =   -22.46757340   26.31817662   26.31817662
     atom   15 type  3   force =   -22.65697876   26.76245891  -26.76245816
     atom   16 type  3   force =   -22.65697876  -26.76245816   26.76245891
     atom   17 type  3   force =   -22.46757122  -26.31817370  -26.31817370
     atom   18 type  4   force =    -0.00000000   -2.83496621    2.83496093
     atom   19 type  4   force =    13.09673849    0.32959139   14.65013680
     atom   20 type  4   force =    13.09673675   -0.32959158  -14.65013441
     atom   21 type  4   force =   -13.09673849    0.32959139   14.65013680
     atom   22 type  4   force =   -13.09673675   -0.32959158  -14.65013441
     The local contribution  to forces
     atom    1 type  1   force =    -0.00001935   -2.81568735    2.77994431
     atom    2 type  1   force =   -11.70272495  -13.36821085   -0.34997533
     atom    3 type  1   force =   -11.70453437   13.37309937    0.35841914
     atom    4 type  1   force =    11.70275988  -13.36818855   -0.34997519
     atom    5 type  1   force =    11.70456936   13.37307662    0.35841946
     atom    6 type  2   force =    -0.00002170   -3.34648491   -3.32888708
     atom    7 type  2   force =    -0.00002218    3.33767547    3.34088536
     atom    8 type  3   force =    -5.37016636   -0.00483827    0.00411035
     atom    9 type  3   force =     5.37018498   -0.00483774    0.00411071
     atom   10 type  3   force =   -20.98619863  -24.79192890  -24.79599380
     atom   11 type  3   force =   -21.18660450  -25.23100768   25.22943217
     atom   12 type  3   force =   -21.19239105   25.23685772  -25.23869459
     atom   13 type  3   force =   -20.98606696   24.79491351   24.79220014
     atom   14 type  3   force =    20.98620024  -24.79193195  -24.79600274
     atom   15 type  3   force =    21.18660772  -25.23100942   25.22944358
     atom   16 type  3   force =    21.19239703   25.23686620  -25.23869968
     atom   17 type  3   force =    20.98607591   24.79492002   24.79220742
     atom   18 type  4   force =    -0.00001990    2.80531791   -2.80913183
     atom   19 type  4   force =   -12.47291786   -0.36544723  -13.97506852
     atom   20 type  4   force =   -12.47294371    0.36045334   13.97566594
     atom   21 type  4   force =    12.47292701   -0.36544864  -13.97506845
     atom   22 type  4   force =    12.47295481    0.36045256   13.97566535
     The core correction contribution to forces
     atom    1 type  1   force =    -0.00000009    0.00393028    0.00075805
     atom    2 type  1   force =    -0.05118966   -0.03405182   -0.00242345
     atom    3 type  1   force =    -0.05149583    0.03396930    0.00203298
     atom    4 type  1   force =     0.05118986   -0.03405173   -0.00242334
     atom    5 type  1   force =     0.05149605    0.03396927    0.00203291
     atom    6 type  2   force =    -0.00000002    0.00159157    0.00092177
     atom    7 type  2   force =     0.00000001   -0.00198489   -0.00046776
     atom    8 type  3   force =    -0.01141459    0.00038747   -0.00032748
     atom    9 type  3   force =     0.01141460    0.00038753   -0.00032741
     atom   10 type  3   force =    -0.02078506   -0.02296436   -0.02175237
     atom   11 type  3   force =    -0.01747737   -0.02218357    0.02148257
     atom   12 type  3   force =    -0.01707302    0.02194992   -0.02122497
     atom   13 type  3   force =    -0.02067488    0.02310154    0.02165444
     atom   14 type  3   force =     0.02078504   -0.02296435   -0.02175256
     atom   15 type  3   force =     0.01747734   -0.02218359    0.02148279
     atom   16 type  3   force =     0.01707298    0.02195001   -0.02122516
     atom   17 type  3   force =     0.02067493    0.02310166    0.02165466
     atom   18 type  4   force =    -0.00000004   -0.00166858    0.00032402
     atom   19 type  4   force =     0.00002976   -0.00110449    0.00611339
     atom   20 type  4   force =     0.00008641    0.00111199   -0.00595356
     atom   21 type  4   force =    -0.00002980   -0.00110450    0.00611338
     atom   22 type  4   force =    -0.00008635    0.00111198   -0.00595355
     The Hubbard contrib.    to forces
     atom    1 type  1   force =     0.00000000    0.00000000    0.00000000
     atom    2 type  1   force =     0.00000000    0.00000000    0.00000000
     atom    3 type  1   force =     0.00000000    0.00000000    0.00000000
     atom    4 type  1   force =     0.00000000    0.00000000    0.00000000
     atom    5 type  1   force =     0.00000000    0.00000000    0.00000000
     atom    6 type  2   force =     0.00000000    0.00000000    0.00000000
     atom    7 type  2   force =     0.00000000    0.00000000    0.00000000
     atom    8 type  3   force =     0.00000000    0.00000000    0.00000000
     atom    9 type  3   force =     0.00000000    0.00000000    0.00000000
     atom   10 type  3   force =     0.00000000    0.00000000    0.00000000
     atom   11 type  3   force =     0.00000000    0.00000000    0.00000000
     atom   12 type  3   force =     0.00000000    0.00000000    0.00000000
     atom   13 type  3   force =     0.00000000    0.00000000    0.00000000
     atom   14 type  3   force =     0.00000000    0.00000000    0.00000000
     atom   15 type  3   force =     0.00000000    0.00000000    0.00000000
     atom   16 type  3   force =     0.00000000    0.00000000    0.00000000
     atom   17 type  3   force =     0.00000000    0.00000000    0.00000000
     atom   18 type  4   force =     0.00000000    0.00000000    0.00000000
     atom   19 type  4   force =     0.00000000    0.00000000    0.00000000
     atom   20 type  4   force =     0.00000000    0.00000000    0.00000000
     atom   21 type  4   force =     0.00000000    0.00000000    0.00000000
     atom   22 type  4   force =     0.00000000    0.00000000    0.00000000
     The SCF correction term to forces
     atom    1 type  1   force =     0.00001808    0.00074376    0.00078090
     atom    2 type  1   force =    -0.00014600   -0.00021451   -0.00053293
     atom    3 type  1   force =     0.00002906   -0.00059011   -0.00026338
     atom    4 type  1   force =     0.00011325   -0.00023440   -0.00053317
     atom    5 type  1   force =    -0.00006166   -0.00056966   -0.00026371
     atom    6 type  2   force =     0.00002098    0.00014350   -0.00111189
     atom    7 type  2   force =     0.00002160   -0.00058639    0.00041675
     atom    8 type  3   force =    -0.00027646    0.00072953    0.00009655
     atom    9 type  3   force =     0.00025801    0.00072874    0.00009616
     atom   10 type  3   force =    -0.00030773    0.00051010   -0.00061394
     atom   11 type  3   force =    -0.00055072    0.00048454    0.00142625
     atom   12 type  3   force =     0.00004872    0.00015080   -0.00019874
     atom   13 type  3   force =    -0.00002300   -0.00024022    0.00058025
     atom   14 type  3   force =     0.00030539    0.00051254   -0.00060484
     atom   15 type  3   force =     0.00054678    0.00048577    0.00141443
     atom   16 type  3   force =    -0.00005518    0.00014332   -0.00019280
     atom   17 type  3   force =     0.00001353   -0.00024571    0.00057229
     atom   18 type  4   force =     0.00001846   -0.00014324   -0.00020099
     atom   19 type  4   force =    -0.00001216   -0.00013967   -0.00107887
     atom   20 type  4   force =    -0.00069807    0.00014508    0.00043980
     atom   21 type  4   force =     0.00000292   -0.00013849   -0.00107839
     atom   22 type  4   force =     0.00068811    0.00014577    0.00043987

     Total force =     4.895032     Total SCF correction =     0.004119

     BFGS Geometry Optimization
     Energy error            =      0.0E+00 Ry
     Gradient error          =      8.8E-01 Ry/Bohr

     number of scf cycles    =   1
     number of bfgs steps    =   0

     energy             new  =   -2937.8370472147 Ry

     new trust radius        =       0.5000000000 bohr
     new conv_thr            =       0.0000010000 Ry


ATOMIC_POSITIONS (angstrom)
Hf            2.6699999570        2.6694866354        6.0080791230
Hf            1.1181718888        1.1139776018        4.3380539260
Hf            1.1192970137        7.5661156643        4.3425171509
Hf            4.2218280252        1.1139776018        4.3380539260
Hf            4.2207029003        7.5661156643        4.3425171509
Nb            2.6699999570        2.6701345538        2.6746076828
Nb            2.6699999570        6.0097422024        6.0055864436
Ta            1.1212227943        4.3398473814        4.3401585291
Ta            4.2187771197        4.3398473814        4.3401585291
Ta            1.1449211706        1.1558940154        1.1570998116
Ta            1.1440320226        1.1549364929        7.5237302561
Ta            1.1446937591        7.5248972354        1.1564739010
Ta            1.1449385418        7.5243573732        7.5225978728
Ta            4.1950787434        1.1558940154        1.1570998116
Ta            4.1959678914        1.1549364929        7.5237302561
Ta            4.1953061549        7.5248972354        1.1564739010
Ta            4.1950613722        7.5243573732        7.5225978728
Zr            2.6699999570        6.0118584193        2.6705487737
Zr            1.1022359941        4.3377345526        1.0956936563
Zr            1.1015654202        4.3416282296        7.5842633367
Zr            4.2377639199        4.3377345526        1.0956936563
Zr            4.2384344938        4.3416282296        7.5842633367



     Writing config-only to output data dir outdir/pwscf.save/
     NEW-OLD atomic charge density approx. for the potential

     negative rho (up, down):  1.772E+00 0.000E+00

     total cpu time spent up to now is      673.3 secs

     Self-consistent Calculation

     iteration #  1     ecut=   120.00 Ry     beta= 0.70
     Davidson diagonalization with overlap
     c_bands:  1 eigenvalues not converged
     ethr =  1.00E-06,  avg # of iterations = 20.0

     negative rho (up, down):  1.780E+00 0.000E+00

     total cpu time spent up to now is      732.0 secs

     total energy              =   -2931.12703166 Ry
     estimated scf accuracy    <      15.02780803 Ry

     iteration #  2     ecut=   120.00 Ry     beta= 0.70
     Davidson diagonalization with overlap
     ethr =  5.44E-03,  avg # of iterations =  9.0

     negative rho (up, down):  1.782E+00 0.000E+00

     total cpu time spent up to now is      758.8 secs

     total energy              =   -2917.89217079 Ry
     estimated scf accuracy    <     433.47523755 Ry

     iteration #  3     ecut=   120.00 Ry     beta= 0.70
     Davidson diagonalization with overlap
     ethr =  5.44E-03,  avg # of iterations =  6.0

     negative rho (up, down):  1.778E+00 0.000E+00

     total cpu time spent up to now is      788.7 secs

     total energy              =   -2938.01905509 Ry
     estimated scf accuracy    <      62.74469899 Ry

     iteration #  4     ecut=   120.00 Ry     beta= 0.70
     Davidson diagonalization with overlap
     ethr =  5.44E-03,  avg # of iterations =  6.0

     negative rho (up, down):  1.778E+00 0.000E+00

     total cpu time spent up to now is      806.9 secs

     total energy              =   -2942.15307749 Ry
     estimated scf accuracy    <       8.28083105 Ry

     iteration #  5     ecut=   120.00 Ry     beta= 0.70
     Davidson diagonalization with overlap
     ethr =  3.00E-03,  avg # of iterations =  2.0

     negative rho (up, down):  1.778E+00 0.000E+00

     total cpu time spent up to now is      823.6 secs

     total energy              =   -2942.73469851 Ry
     estimated scf accuracy    <       4.16573672 Ry

     iteration #  6     ecut=   120.00 Ry     beta= 0.70
     Davidson diagonalization with overlap
     ethr =  1.51E-03,  avg # of iterations =  2.0

     negative rho (up, down):  1.778E+00 0.000E+00

     total cpu time spent up to now is      839.1 secs

     total energy              =   -2942.80444244 Ry
     estimated scf accuracy    <       0.99777295 Ry

     iteration #  7     ecut=   120.00 Ry     beta= 0.70
     Davidson diagonalization with overlap
     ethr =  3.62E-04,  avg # of iterations = 15.0

     negative rho (up, down):  1.779E+00 0.000E+00

     total cpu time spent up to now is      856.9 secs

     total energy              =   -2942.86102326 Ry
     estimated scf accuracy    <       0.10768008 Ry

     iteration #  8     ecut=   120.00 Ry     beta= 0.70
     Davidson diagonalization with overlap
     ethr =  3.90E-05,  avg # of iterations =  9.0

     negative rho (up, down):  1.779E+00 0.000E+00

     total cpu time spent up to now is      879.1 secs

     total energy              =   -2942.84140512 Ry
     estimated scf accuracy    <       0.72234193 Ry

     iteration #  9     ecut=   120.00 Ry     beta= 0.70
     Davidson diagonalization with overlap
     ethr =  3.90E-05,  avg # of iterations =  3.0

     negative rho (up, down):  1.780E+00 0.000E+00

     total cpu time spent up to now is      896.6 secs

     total energy              =   -2942.87823709 Ry
     estimated scf accuracy    <       0.06705138 Ry

     iteration # 10     ecut=   120.00 Ry     beta= 0.70
     Davidson diagonalization with overlap
     ethr =  2.43E-05,  avg # of iterations =  3.0

     negative rho (up, down):  1.780E+00 0.000E+00

     total cpu time spent up to now is      913.1 secs

     total energy              =   -2942.88049398 Ry
     estimated scf accuracy    <       0.02917113 Ry

     iteration # 11     ecut=   120.00 Ry     beta= 0.70
     Davidson diagonalization with overlap
     ethr =  1.06E-05,  avg # of iterations =  6.0

     negative rho (up, down):  1.780E+00 0.000E+00

     total cpu time spent up to now is      929.1 secs

     total energy              =   -2942.88281492 Ry
     estimated scf accuracy    <       0.00307007 Ry

     iteration # 12     ecut=   120.00 Ry     beta= 0.70
     Davidson diagonalization with overlap
     ethr =  1.11E-06,  avg # of iterations = 13.0

     negative rho (up, down):  1.780E+00 0.000E+00

     total cpu time spent up to now is      947.6 secs

     total energy              =   -2942.88244199 Ry
     estimated scf accuracy    <       0.01529920 Ry

     iteration # 13     ecut=   120.00 Ry     beta= 0.70
     Davidson diagonalization with overlap
     ethr =  1.11E-06,  avg # of iterations =  3.0

     negative rho (up, down):  1.780E+00 0.000E+00

     total cpu time spent up to now is      963.9 secs

     total energy              =   -2942.88330171 Ry
     estimated scf accuracy    <       0.00239176 Ry

     iteration # 14     ecut=   120.00 Ry     beta= 0.70
     Davidson diagonalization with overlap
     ethr =  8.67E-07,  avg # of iterations =  2.0

     negative rho (up, down):  1.780E+00 0.000E+00

     total cpu time spent up to now is      979.9 secs

     total energy              =   -2942.88354607 Ry
     estimated scf accuracy    <       0.00062226 Ry

     iteration # 15     ecut=   120.00 Ry     beta= 0.70
     Davidson diagonalization with overlap
     ethr =  2.25E-07,  avg # of iterations =  2.0

     negative rho (up, down):  1.780E+00 0.000E+00

     total cpu time spent up to now is      996.9 secs

     total energy              =   -2942.88360121 Ry
     estimated scf accuracy    <       0.00005726 Ry

     iteration # 16     ecut=   120.00 Ry     beta= 0.70
     Davidson diagonalization with overlap
     ethr =  2.07E-08,  avg # of iterations =  2.0

     negative rho (up, down):  1.780E+00 0.000E+00

     total cpu time spent up to now is     1013.5 secs

     total energy              =   -2942.88360558 Ry
     estimated scf accuracy    <       0.00002559 Ry

     iteration # 17     ecut=   120.00 Ry     beta= 0.70
     Davidson diagonalization with overlap
     ethr =  9.27E-09,  avg # of iterations =  5.0

     negative rho (up, down):  1.780E+00 0.000E+00

     total cpu time spent up to now is     1031.1 secs

     total energy              =   -2942.88360589 Ry
     estimated scf accuracy    <       0.00006497 Ry

     iteration # 18     ecut=   120.00 Ry     beta= 0.70
     Davidson diagonalization with overlap
     ethr =  9.27E-09,  avg # of iterations =  4.0

     negative rho (up, down):  1.780E+00 0.000E+00

     total cpu time spent up to now is     1046.9 secs

     total energy              =   -2942.88361112 Ry
     estimated scf accuracy    <       0.00000514 Ry

     iteration # 19     ecut=   120.00 Ry     beta= 0.70
     Davidson diagonalization with overlap
     ethr =  1.86E-09,  avg # of iterations =  3.0

     negative rho (up, down):  1.780E+00 0.000E+00

     total cpu time spent up to now is     1062.8 secs

     total energy              =   -2942.88361121 Ry
     estimated scf accuracy    <       0.00000684 Ry

     iteration # 20     ecut=   120.00 Ry     beta= 0.70
     Davidson diagonalization with overlap
     ethr =  1.86E-09,  avg # of iterations =  2.0

     negative rho (up, down):  1.780E+00 0.000E+00

     total cpu time spent up to now is     1077.4 secs

     End of self-consistent calculation

          k = 0.0000 0.0000 0.0000 ( 30122 PWs)   bands (ev):

   -49.6774 -49.5438 -49.4166 -49.3520 -49.3489 -49.1509 -49.0962 -49.0948
   -49.0281 -48.7785 -43.4860 -42.9588 -42.9409 -42.5994 -42.4206 -35.7938
   -35.7855 -30.9613 -29.9381 -29.9122 -29.4837 -28.8868 -17.6655 -17.5789
   -17.5179 -17.4654 -17.2911 -17.2598 -17.1349 -17.1268 -17.1263 -17.0531
   -16.9165 -16.7587 -16.7472 -16.0891 -16.0584 -15.6722 -15.6391 -15.2127
   -15.2009 -14.9807 -14.9514 -14.8955 -14.8837 -14.8595 -14.6890 -14.6880
   -14.6777 -14.6421 -14.5499 -14.3979 -14.1564 -13.9732 -13.5548 -13.3841
   -12.3093 -12.1036 -12.0483 -12.0308 -12.0188 -11.9828 -11.8826 -11.6620
   -11.6355 -11.4963 -11.3875 -11.3206 -10.9706 -10.8162 -10.6352 -10.4693
   -10.3134 -10.1845  -9.9625  -9.8535  -9.8191  -8.5602  -7.9139  -7.9002
    -7.7982  -7.6107  -7.4995  -7.0437  -6.5665  -6.2995  -5.9572  -5.6781
    10.9623  12.4694  12.8733  13.1815  13.2173  13.5964  13.6521  13.7048
    13.8875  14.0815  14.2487  14.2627  14.3036  14.4056  14.4924  14.5819
    14.8911  14.9191  15.0477  15.1577  15.1687  15.3617  15.3816  15.5550
    15.7558  15.7777  15.7860  15.8015  15.8073  15.9136  15.9569  16.3905
    16.4199  16.4474  16.5345  16.7619  16.9162  16.9260  16.9683  17.0940
    17.2309  17.4726  17.5337  17.7903  17.9079  17.9835  18.1468  18.1992
    18.2357  18.2511  18.4239  18.8741  18.9126  18.9639  19.0769  19.1176
    19.1516  19.2099  19.3408  19.4078  19.4660  19.5318  19.7139  19.7310
    19.8083  19.8796  20.0076  20.4871  20.4936  20.5099  20.5114  20.6227
    20.6474  20.8262  20.9720  20.9818  21.0871  21.1280

     the Fermi energy is    18.4421 ev

!    total energy              =   -2942.88361122 Ry
     estimated scf accuracy    <       0.00000091 Ry
     smearing contrib. (-TS)   =      -0.04474094 Ry
     internal energy E=F+TS    =   -2942.83887028 Ry

     The total energy is F=E-TS. E is the sum of the following terms:
     one-electron contribution =    -493.31375005 Ry
     hartree contribution      =     387.39396405 Ry
     xc contribution           =    -933.23135056 Ry
     ewald contribution        =   -1903.68773373 Ry

     convergence has been achieved in  20 iterations

     negative rho (up, down):  1.780E+00 0.000E+00

     Forces acting on atoms (cartesian axes, Ry/au):

     atom    1 type  1   force =     0.00000000    0.05624976   -0.04795250
     atom    2 type  1   force =     0.26006636    0.26174324   -0.00501222
     atom    3 type  1   force =     0.26234369   -0.26263607    0.00649035
     atom    4 type  1   force =    -0.26006636    0.26174324   -0.00501222
     atom    5 type  1   force =    -0.26234369   -0.26263607    0.00649035
     atom    6 type  2   force =     0.00000000    0.02784632    0.02590734
     atom    7 type  2   force =     0.00000000   -0.02886349   -0.02410600
     atom    8 type  3   force =     0.21816734   -0.00039972    0.00064646
     atom    9 type  3   force =    -0.21816734   -0.00039972    0.00064646
     atom   10 type  3   force =     0.24753024    0.27105903    0.28703954
     atom   11 type  3   force =     0.23926334    0.26493654   -0.27812092
     atom   12 type  3   force =     0.24037508   -0.26417708    0.27798483
     atom   13 type  3   force =     0.24802979   -0.27279761   -0.28611055
     atom   14 type  3   force =    -0.24753024    0.27105903    0.28703954
     atom   15 type  3   force =    -0.23926334    0.26493654   -0.27812092
     atom   16 type  3   force =    -0.24037508   -0.26417708    0.27798483
     atom   17 type  3   force =    -0.24802979   -0.27279761   -0.28611055
     atom   18 type  4   force =     0.00000000   -0.04645408    0.03921979
     atom   19 type  4   force =     0.25673803   -0.00556798    0.23656030
     atom   20 type  4   force =     0.25354633    0.00345039   -0.23601210
     atom   21 type  4   force =    -0.25673803   -0.00556798    0.23656030
     atom   22 type  4   force =    -0.25354633    0.00345039   -0.23601210
     The non-local contrib.  to forces
     atom    1 type  1   force =     0.00000000   -0.05878124    0.06418664
     atom    2 type  1   force =    -0.36917627   -0.35464114    0.01607183
     atom    3 type  1   force =    -0.35483628    0.34925748   -0.02519195
     atom    4 type  1   force =     0.36917627   -0.35464114    0.01607183
     atom    5 type  1   force =     0.35483628    0.34925748   -0.02519195
     atom    6 type  2   force =     0.00000000   -0.05000039   -0.03365589
     atom    7 type  2   force =     0.00000000    0.06266880    0.01873951
     atom    8 type  3   force =    -0.37445110    0.00402264   -0.00365951
     atom    9 type  3   force =     0.37445110    0.00402264   -0.00365951
     atom   10 type  3   force =    -0.12683513   -0.15150977   -0.14581901
     atom   11 type  3   force =    -0.11916631   -0.14181951    0.14619699
     atom   12 type  3   force =    -0.10472643    0.13268413   -0.13416996
     atom   13 type  3   force =    -0.12686230    0.14468770    0.15106785
     atom   14 type  3   force =     0.12683513   -0.15150977   -0.14581901
     atom   15 type  3   force =     0.11916631   -0.14181951    0.14619699
     atom   16 type  3   force =     0.10472643    0.13268413   -0.13416996
     atom   17 type  3   force =     0.12686230    0.14468770    0.15106785
     atom   18 type  4   force =     0.00000000    0.04438237   -0.02620539
     atom   19 type  4   force =    -0.04844031    0.00369544   -0.18407035
     atom   20 type  4   force =    -0.05455664   -0.00303993    0.18573423
     atom   21 type  4   force =     0.04844031    0.00369544   -0.18407035
     atom   22 type  4   force =     0.05455664   -0.00303993    0.18573423
     The ionic contribution  to forces
     atom    1 type  1   force =     0.00000000    2.03502604   -1.68511825
     atom    2 type  1   force =     4.20825759    6.23022345    0.42220086
     atom    3 type  1   force =     4.17193725   -6.23493016   -0.43905197
     atom    4 type  1   force =    -4.20825759    6.23022345    0.42220086
     atom    5 type  1   force =    -4.17193725   -6.23493016   -0.43905197
     atom    6 type  2   force =     0.00000000    2.55222566    2.15249466
     atom    7 type  2   force =     0.00000000   -2.56088430   -2.14566046
     atom    8 type  3   force =    -1.31911507    0.01541394   -0.01411858
     atom    9 type  3   force =     1.31911507    0.01541394   -0.01411858
     atom   10 type  3   force =     7.84412845   11.37665749   11.44860190
     atom   11 type  3   force =     8.16477166   11.96380107  -12.02612695
     atom   12 type  3   force =     8.11962114  -11.95578181   12.01576795
     atom   13 type  3   force =     7.84189933  -11.39165640  -11.43266158
     atom   14 type  3   force =    -7.84412845   11.37665749   11.44860190
     atom   15 type  3   force =    -8.16477166   11.96380107  -12.02612695
     atom   16 type  3   force =    -8.11962114  -11.95578181   12.01576795
     atom   17 type  3   force =    -7.84189933  -11.39165640  -11.43266158
     atom   18 type  4   force =    -0.00000000   -2.07143142    1.71707229
     atom   19 type  4   force =     5.23851845    0.41413778    7.23816990
     atom   20 type  4   force =     5.26061377   -0.39533335   -7.23217564
     atom   21 type  4   force =    -5.23851845    0.41413778    7.23816990
     atom   22 type  4   force =    -5.26061377   -0.39533335   -7.23217564
     The local contribution  to forces
     atom    1 type  1   force =     0.00000056   -1.91825662    1.56923885
     atom    2 type  1   force =    -3.55303253   -5.61117175   -0.44445705
     atom    3 type  1   force =    -3.52839311    5.61848827    0.47404749
     atom    4 type  1   force =     3.55303163   -5.61117081   -0.44445799
     atom    5 type  1   force =     3.52839299    5.61848838    0.47404650
     atom    6 type  2   force =     0.00000045   -2.47638075   -2.09478464
     atom    7 type  2   force =     0.00000021    2.47299471    2.10349767
     atom    8 type  3   force =     1.91710067   -0.01931729    0.01939621
     atom    9 type  3   force =    -1.91710162   -0.01931754    0.01939622
     atom   10 type  3   force =    -7.47412837  -10.95630782  -11.01573135
     atom   11 type  3   force =    -7.81724671  -11.56300659   11.60412908
     atom   12 type  3   force =    -7.78560096   11.56486272  -11.60734726
     atom   13 type  3   force =    -7.47130904   10.97564683   10.99433100
     atom   14 type  3   force =     7.47412809  -10.95630818  -11.01573056
     atom   15 type  3   force =     7.81724652  -11.56300597   11.60412929
     atom   16 type  3   force =     7.78560068   11.56486266  -11.60734689
     atom   17 type  3   force =     7.47130937   10.97564733   10.99433244
     atom   18 type  4   force =     0.00000045    1.98294454   -1.65229374
     atom   19 type  4   force =    -4.93323747   -0.42367472   -6.82570063
     atom   20 type  4   force =    -4.95215812    0.40267391    6.81834804
     atom   21 type  4   force =     4.93323658   -0.42367535   -6.82570068
     atom   22 type  4   force =     4.95215816    0.40267516    6.81834868
     The core correction contribution to forces
     atom    1 type  1   force =     0.00000001   -0.00177819    0.00457619
     atom    2 type  1   force =    -0.02633333   -0.00434946    0.00125668
     atom    3 type  1   force =    -0.02691151    0.00470606   -0.00234051
     atom    4 type  1   force =     0.02633329   -0.00434940    0.00125666
     atom    5 type  1   force =     0.02691143    0.00470605   -0.00234050
     atom    6 type  2   force =    -0.00000004    0.00176472    0.00058846
     atom    7 type  2   force =     0.00000003   -0.00239976    0.00014040
     atom    8 type  3   force =    -0.00546531    0.00057971   -0.00060568
     atom    9 type  3   force =     0.00546536    0.00057972   -0.00060568
     atom   10 type  3   force =     0.00407729    0.00162831   -0.00074300
     atom   11 type  3   force =     0.01056271    0.00438736   -0.00164558
     atom   12 type  3   force =     0.01064081   -0.00525749    0.00276107
     atom   13 type  3   force =     0.00411635   -0.00136845    0.00053513
     atom   14 type  3   force =    -0.00407729    0.00162829   -0.00074304
     atom   15 type  3   force =    -0.01056277    0.00438736   -0.00164556
     atom   16 type  3   force =    -0.01064075   -0.00525748    0.00276108
     atom   17 type  3   force =    -0.00411633   -0.00136846    0.00053509
     atom   18 type  4   force =     0.00000001   -0.00200094    0.00070068
     atom   19 type  4   force =    -0.00045050    0.00014097    0.00741362
     atom   20 type  4   force =    -0.00029630    0.00000440   -0.00737720
     atom   21 type  4   force =     0.00045049    0.00014093    0.00741361
     atom   22 type  4   force =     0.00029630    0.00000446   -0.00737720
     The Hubbard contrib.    to forces
     atom    1 type  1   force =     0.00000000    0.00000000    0.00000000
     atom    2 type  1   force =     0.00000000    0.00000000    0.00000000
     atom    3 type  1   force =     0.00000000    0.00000000    0.00000000
     atom    4 type  1   force =     0.00000000    0.00000000    0.00000000
     atom    5 type  1   force =     0.00000000    0.00000000    0.00000000
     atom    6 type  2   force =     0.00000000    0.00000000    0.00000000
     atom    7 type  2   force =     0.00000000    0.00000000    0.00000000
     atom    8 type  3   force =     0.00000000    0.00000000    0.00000000
     atom    9 type  3   force =     0.00000000    0.00000000    0.00000000
     atom   10 type  3   force =     0.00000000    0.00000000    0.00000000
     atom   11 type  3   force =     0.00000000    0.00000000    0.00000000
     atom   12 type  3   force =     0.00000000    0.00000000    0.00000000
     atom   13 type  3   force =     0.00000000    0.00000000    0.00000000
     atom   14 type  3   force =     0.00000000    0.00000000    0.00000000
     atom   15 type  3   force =     0.00000000    0.00000000    0.00000000
     atom   16 type  3   force =     0.00000000    0.00000000    0.00000000
     atom   17 type  3   force =     0.00000000    0.00000000    0.00000000
     atom   18 type  4   force =     0.00000000    0.00000000    0.00000000
     atom   19 type  4   force =     0.00000000    0.00000000    0.00000000
     atom   20 type  4   force =     0.00000000    0.00000000    0.00000000
     atom   21 type  4   force =     0.00000000    0.00000000    0.00000000
     atom   22 type  4   force =     0.00000000    0.00000000    0.00000000
     The SCF correction term to forces
     atom    1 type  1   force =    -0.00000061    0.00000752   -0.00081175
     atom    2 type  1   force =     0.00035090    0.00164996   -0.00006027
     atom    3 type  1   force =     0.00054730   -0.00018995   -0.00094846
     atom    4 type  1   force =    -0.00034997    0.00164882   -0.00005950
     atom    5 type  1   force =    -0.00054717   -0.00019008   -0.00094762
     atom    6 type  2   force =    -0.00000141    0.00020483    0.00128891
     atom    7 type  2   force =     0.00000017   -0.00127519   -0.00079895
     atom    8 type  3   force =     0.00009814   -0.00113097   -0.00034196
     atom    9 type  3   force =    -0.00009725   -0.00113074   -0.00034166
     atom   10 type  3   force =     0.00028804    0.00055859    0.00075509
     atom   11 type  3   force =     0.00034197    0.00154201   -0.00065028
     atom   12 type  3   force =     0.00044040   -0.00071685    0.00099728
     atom   13 type  3   force =     0.00018543   -0.00013964    0.00064111
     atom   14 type  3   force =    -0.00028768    0.00055893    0.00075447
     atom   15 type  3   force =    -0.00034176    0.00154129   -0.00065051
     atom   16 type  3   force =    -0.00044042   -0.00071686    0.00099674
     atom   17 type  3   force =    -0.00018581   -0.00013993    0.00063993
     atom   18 type  4   force =    -0.00000046   -0.00038088   -0.00002987
     atom   19 type  4   force =     0.00034773    0.00010060    0.00077201
     atom   20 type  4   force =    -0.00005647   -0.00088724   -0.00051759
     atom   21 type  4   force =    -0.00034710    0.00010065    0.00077191
     atom   22 type  4   force =     0.00005625   -0.00088786   -0.00051777

     Total force =     1.681722     Total SCF correction =     0.005605
     Energy error            =      5.0E+00 Ry
     Gradient error          =      2.9E-01 Ry/Bohr

     number of scf cycles    =   2
     number of bfgs steps    =   1

     energy             old  =   -2937.8370472147 Ry
     energy             new  =   -2942.8836112185 Ry

     CASE: energy            _new < energy            _old

     new trust radius        =       0.2690172386 bohr
     new conv_thr            =       0.0000002870 Ry


ATOMIC_POSITIONS (angstrom)
Hf            2.6699999570        2.7150505224        5.9715494544
Hf            1.2106155887        1.2118779132        4.3359471546
Hf            1.2124616402        7.4674084997        4.3452478051
Hf            4.1293843253        1.2118779132        4.3359471546
Hf            4.1275382738        7.4674084997        4.3452478051
Nb            2.6699999570        2.6923096468        2.6908427485
Nb            2.6699999570        5.9868733608        5.9906042381
Ta            1.1771101000        4.3396767644        4.3405208391
Ta            4.1628898140        4.3396767644        4.3405208391
Ta            1.2010897345        1.2201500344        1.2329749606
Ta            1.1944501203        1.2152269463        7.4541854143
Ta            1.1953534902        7.4653780595        1.2257093433
Ta            1.2014902467        7.4584619083        7.4477632219
Ta            4.1389101795        1.2201500344        1.2329749606
Ta            4.1455497937        1.2152269463        7.4541854143
Ta            4.1446464238        7.4653780595        1.2257093433
Ta            4.1385096673        7.4584619083        7.4477632219
Zr            2.6699999570        5.9728227838        2.7014286909
Zr            1.2076415988        4.3354957778        1.1913513131
Zr            1.2050718488        4.3427953915        7.4890868340
Zr            4.1323583152        4.3354957778        1.1913513131
Zr            4.1349280652        4.3427953915        7.4890868340



     Writing config-only to output data dir outdir/pwscf.save/
     NEW-OLD atomic charge density approx. for the potential

     negative rho (up, down):  1.790E+00 0.000E+00

     total cpu time spent up to now is     1092.8 secs

     Self-consistent Calculation

     iteration #  1     ecut=   120.00 Ry     beta= 0.70
     Davidson diagonalization with overlap
     ethr =  1.00E-06,  avg # of iterations = 19.0

     negative rho (up, down):  1.791E+00 0.000E+00

     total cpu time spent up to now is     1138.5 secs

     total energy              =   -2939.18910362 Ry
     estimated scf accuracy    <       6.10916191 Ry

     iteration #  2     ecut=   120.00 Ry     beta= 0.70
     Davidson diagonalization with overlap
     ethr =  2.21E-03,  avg # of iterations = 10.0

     negative rho (up, down):  1.793E+00 0.000E+00

     total cpu time spent up to now is     1161.5 secs

     total energy              =   -2927.78181337 Ry
     estimated scf accuracy    <     282.11752511 Ry

     iteration #  3     ecut=   120.00 Ry     beta= 0.70
     Davidson diagonalization with overlap
     ethr =  2.21E-03,  avg # of iterations =  7.0

     negative rho (up, down):  1.790E+00 0.000E+00

     total cpu time spent up to now is     1184.8 secs

     total energy              =   -2941.31866620 Ry
     estimated scf accuracy    <      30.72330224 Ry

     iteration #  4     ecut=   120.00 Ry     beta= 0.70
     Davidson diagonalization with overlap
     ethr =  2.21E-03,  avg # of iterations =  6.0

     negative rho (up, down):  1.789E+00 0.000E+00

     total cpu time spent up to now is     1201.1 secs

     total energy              =   -2943.66460361 Ry
     estimated scf accuracy    <       2.90202408 Ry

     iteration #  5     ecut=   120.00 Ry     beta= 0.70
     Davidson diagonalization with overlap
     ethr =  1.05E-03,  avg # of iterations =  2.0

     negative rho (up, down):  1.789E+00 0.000E+00

     total cpu time spent up to now is     1215.5 secs

     total energy              =   -2943.91355673 Ry
     estimated scf accuracy    <       0.62635858 Ry

     iteration #  6     ecut=   120.00 Ry     beta= 0.70
     Davidson diagonalization with overlap
     ethr =  2.27E-04,  avg # of iterations =  9.0

     negative rho (up, down):  1.789E+00 0.000E+00

     total cpu time spent up to now is     1230.8 secs

     total energy              =   -2943.95719905 Ry
     estimated scf accuracy    <       0.12904099 Ry

     iteration #  7     ecut=   120.00 Ry     beta= 0.70
     Davidson diagonalization with overlap
     ethr =  4.68E-05,  avg # of iterations = 15.0

     negative rho (up, down):  1.789E+00 0.000E+00

     total cpu time spent up to now is     1246.4 secs

     total energy              =   -2943.96773477 Ry
     estimated scf accuracy    <       0.01025542 Ry

     iteration #  8     ecut=   120.00 Ry     beta= 0.70
     Davidson diagonalization with overlap
     ethr =  3.72E-06,  avg # of iterations = 14.0

     negative rho (up, down):  1.789E+00 0.000E+00

     total cpu time spent up to now is     1268.8 secs

     total energy              =   -2943.96405185 Ry
     estimated scf accuracy    <       0.06670627 Ry

     iteration #  9     ecut=   120.00 Ry     beta= 0.70
     Davidson diagonalization with overlap
     ethr =  3.72E-06,  avg # of iterations = 11.0

     negative rho (up, down):  1.789E+00 0.000E+00

     total cpu time spent up to now is     1287.0 secs

     total energy              =   -2943.96848205 Ry
     estimated scf accuracy    <       0.02148092 Ry

     iteration # 10     ecut=   120.00 Ry     beta= 0.70
     Davidson diagonalization with overlap
     ethr =  3.72E-06,  avg # of iterations =  3.0

     negative rho (up, down):  1.789E+00 0.000E+00

     total cpu time spent up to now is     1301.5 secs

     total energy              =   -2943.96997042 Ry
     estimated scf accuracy    <       0.00663280 Ry

     iteration # 11     ecut=   120.00 Ry     beta= 0.70
     Davidson diagonalization with overlap
     ethr =  2.40E-06,  avg # of iterations =  2.0

     negative rho (up, down):  1.789E+00 0.000E+00

     total cpu time spent up to now is     1316.3 secs

     total energy              =   -2943.97041538 Ry
     estimated scf accuracy    <       0.00068193 Ry

     iteration # 12     ecut=   120.00 Ry     beta= 0.70
     Davidson diagonalization with overlap
     ethr =  2.47E-07,  avg # of iterations =  4.0

     negative rho (up, down):  1.789E+00 0.000E+00

     total cpu time spent up to now is     1332.2 secs

     total energy              =   -2943.97029291 Ry
     estimated scf accuracy    <       0.00315316 Ry

     iteration # 13     ecut=   120.00 Ry     beta= 0.70
     Davidson diagonalization with overlap
     ethr =  2.47E-07,  avg # of iterations =  4.0

     negative rho (up, down):  1.789E+00 0.000E+00

     total cpu time spent up to now is     1349.0 secs

     total energy              =   -2943.97046756 Ry
     estimated scf accuracy    <       0.00051418 Ry

     iteration # 14     ecut=   120.00 Ry     beta= 0.70
     Davidson diagonalization with overlap
     ethr =  1.86E-07,  avg # of iterations =  5.0

     negative rho (up, down):  1.789E+00 0.000E+00

     total cpu time spent up to now is     1364.7 secs

     total energy              =   -2943.97036758 Ry
     estimated scf accuracy    <       0.00155184 Ry

     iteration # 15     ecut=   120.00 Ry     beta= 0.70
     Davidson diagonalization with overlap
     ethr =  1.86E-07,  avg # of iterations =  5.0

     negative rho (up, down):  1.789E+00 0.000E+00

     total cpu time spent up to now is     1379.3 secs

     total energy              =   -2943.97043847 Ry
     estimated scf accuracy    <       0.00144298 Ry

     iteration # 16     ecut=   120.00 Ry     beta= 0.70
     Davidson diagonalization with overlap
     ethr =  1.86E-07,  avg # of iterations =  3.0

     negative rho (up, down):  1.789E+00 0.000E+00

     total cpu time spent up to now is     1393.8 secs

     total energy              =   -2943.97050424 Ry
     estimated scf accuracy    <       0.00063552 Ry

     iteration # 17     ecut=   120.00 Ry     beta= 0.70
     Davidson diagonalization with overlap
     ethr =  1.86E-07,  avg # of iterations =  2.0

     negative rho (up, down):  1.789E+00 0.000E+00

     total cpu time spent up to now is     1408.7 secs

     total energy              =   -2943.97054935 Ry
     estimated scf accuracy    <       0.00000758 Ry

     iteration # 18     ecut=   120.00 Ry     beta= 0.70
     Davidson diagonalization with overlap
     ethr =  2.74E-09,  avg # of iterations =  6.0

     negative rho (up, down):  1.789E+00 0.000E+00

     total cpu time spent up to now is     1424.8 secs

     total energy              =   -2943.97055175 Ry
     estimated scf accuracy    <       0.00001521 Ry

     iteration # 19     ecut=   120.00 Ry     beta= 0.70
     Davidson diagonalization with overlap
     ethr =  2.74E-09,  avg # of iterations =  4.0

     negative rho (up, down):  1.789E+00 0.000E+00

     total cpu time spent up to now is     1438.8 secs

     total energy              =   -2943.97055281 Ry
     estimated scf accuracy    <       0.00000165 Ry

     iteration # 20     ecut=   120.00 Ry     beta= 0.70
     Davidson diagonalization with overlap
     ethr =  5.99E-10,  avg # of iterations =  4.0

     negative rho (up, down):  1.789E+00 0.000E+00

     total cpu time spent up to now is     1453.2 secs

     total energy              =   -2943.97055286 Ry
     estimated scf accuracy    <       0.00000235 Ry

     iteration # 21     ecut=   120.00 Ry     beta= 0.70
     Davidson diagonalization with overlap
     ethr =  5.99E-10,  avg # of iterations =  2.0

     negative rho (up, down):  1.789E+00 0.000E+00

     total cpu time spent up to now is     1466.8 secs

     total energy              =   -2943.97055298 Ry
     estimated scf accuracy    <       0.00000089 Ry

     iteration # 22     ecut=   120.00 Ry     beta= 0.70
     Davidson diagonalization with overlap
     ethr =  3.21E-10,  avg # of iterations =  2.0

     negative rho (up, down):  1.789E+00 0.000E+00

     total cpu time spent up to now is     1481.3 secs

     total energy              =   -2943.97055304 Ry
     estimated scf accuracy    <       0.00000060 Ry

     iteration # 23     ecut=   120.00 Ry     beta= 0.70
     Davidson diagonalization with overlap
     ethr =  2.18E-10,  avg # of iterations =  2.0

     negative rho (up, down):  1.789E+00 0.000E+00

     total cpu time spent up to now is     1494.8 secs

     End of self-consistent calculation

          k = 0.0000 0.0000 0.0000 ( 30122 PWs)   bands (ev):

   -49.3970 -49.3948 -49.2656 -49.2024 -49.1837 -49.1451 -49.0736 -49.0598
   -48.9866 -48.8649 -43.0178 -42.7791 -42.7520 -42.5171 -42.3108 -35.5177
   -35.5068 -30.2110 -29.6971 -29.6846 -29.2537 -29.1718 -17.1446 -17.0499
   -16.8515 -16.8289 -16.7887 -16.7867 -16.6301 -16.6160 -16.5724 -16.5637
   -16.4916 -16.3878 -16.3157 -16.0068 -15.9725 -15.7082 -15.6705 -15.3708
   -15.3225 -15.2408 -15.1445 -15.1040 -15.1024 -15.0441 -14.9315 -14.9064
   -14.8763 -14.7883 -14.7143 -14.5833 -13.2133 -12.9392 -12.7796 -12.7274
   -12.1896 -12.0081 -11.9313 -11.8451 -11.7752 -11.7726 -11.6337 -11.5664
   -11.4657 -11.2789 -11.2579 -11.1459 -11.0195 -10.8208 -10.6575 -10.4716
   -10.2489  -9.5785  -9.4647  -9.1371  -9.0107  -8.2259  -7.9086  -7.8230
    -7.6195  -7.5333  -7.3135  -7.1968  -6.8602  -6.6390  -6.5654  -6.2581
    11.0320  12.9590  13.1729  13.5499  13.5585  13.5975  13.7252  14.0385
    14.1610  14.2382  14.3682  14.5893  14.6074  14.6966  14.7411  14.8429
    14.8931  15.2405  15.2534  15.3544  15.4527  15.5899  15.6081  15.6413
    15.7418  15.8198  15.9959  16.0437  16.0971  16.1460  16.1581  16.2274
    16.2502  16.3741  16.4509  16.7348  16.8083  16.8647  16.9058  17.0147
    17.1262  17.2872  17.3086  17.7322  17.9394  18.0615  18.1034  18.1739
    18.2785  18.3392  18.4481  18.8935  18.9432  19.0044  19.0843  19.2819
    19.2947  19.3834  19.4773  19.5257  19.6503  19.7380  19.8656  19.8665
    19.9317  19.9909  20.1271  20.4799  20.5612  20.5893  20.6372  20.6976
    20.7537  20.7808  21.0624  21.1132  21.3320  21.4099

     the Fermi energy is    18.4734 ev

!    total energy              =   -2943.97055303 Ry
     estimated scf accuracy    <       0.00000008 Ry
     smearing contrib. (-TS)   =      -0.04379866 Ry
     internal energy E=F+TS    =   -2943.92675437 Ry

     The total energy is F=E-TS. E is the sum of the following terms:
     one-electron contribution =    -440.04972552 Ry
     hartree contribution      =     361.66190632 Ry
     xc contribution           =    -932.28815697 Ry
     ewald contribution        =   -1933.25077820 Ry

     convergence has been achieved in  23 iterations

     negative rho (up, down):  1.789E+00 0.000E+00

     Forces acting on atoms (cartesian axes, Ry/au):

     atom    1 type  1   force =     0.00000000    0.05214425   -0.04563467
     atom    2 type  1   force =     0.06962560    0.09476253   -0.00625062
     atom    3 type  1   force =     0.06976337   -0.09530564    0.00680100
     atom    4 type  1   force =    -0.06962560    0.09476253   -0.00625062
     atom    5 type  1   force =    -0.06976337   -0.09530564    0.00680100
     atom    6 type  2   force =     0.00000000    0.04262068    0.03599902
     atom    7 type  2   force =     0.00000000   -0.04463284   -0.03437526
     atom    8 type  3   force =     0.10535344   -0.00062902    0.00054282
     atom    9 type  3   force =    -0.10535344   -0.00062902    0.00054282
     atom   10 type  3   force =     0.14442717    0.13434875    0.13144772
     atom   11 type  3   force =     0.14336729    0.13113378   -0.12794733
     atom   12 type  3   force =     0.14411999   -0.13031511    0.12679484
     atom   13 type  3   force =     0.14445692   -0.13420535   -0.13114731
     atom   14 type  3   force =    -0.14442717    0.13434875    0.13144772
     atom   15 type  3   force =    -0.14336729    0.13113378   -0.12794733
     atom   16 type  3   force =    -0.14411999   -0.13031511    0.12679484
     atom   17 type  3   force =    -0.14445692   -0.13420535   -0.13114731
     atom   18 type  4   force =     0.00000000   -0.04733401    0.04119222
     atom   19 type  4   force =     0.05757064   -0.00783502    0.08081418
     atom   20 type  4   force =     0.05767115    0.00664602   -0.07964597
     atom   21 type  4   force =    -0.05757064   -0.00783502    0.08081418
     atom   22 type  4   force =    -0.05767115    0.00664602   -0.07964597
     The non-local contrib.  to forces
     atom    1 type  1   force =     0.00000000   -0.06053761    0.05981841
     atom    2 type  1   force =    -0.19495720   -0.20173944    0.01485987
     atom    3 type  1   force =    -0.18286570    0.19628217   -0.02785073
     atom    4 type  1   force =     0.19495720   -0.20173944    0.01485987
     atom    5 type  1   force =     0.18286570    0.19628217   -0.02785073
     atom    6 type  2   force =     0.00000000   -0.05972125   -0.05123724
     atom    7 type  2   force =     0.00000000    0.07146042    0.03745215
     atom    8 type  3   force =    -0.26996859    0.00343431   -0.00438739
     atom    9 type  3   force =     0.26996859    0.00343431   -0.00438739
     atom   10 type  3   force =    -0.04554149   -0.05344712   -0.04241921
     atom   11 type  3   force =    -0.05942743   -0.04600030    0.04245135
     atom   12 type  3   force =    -0.03698551    0.03649663   -0.03102648
     atom   13 type  3   force =    -0.04398068    0.04639243    0.04821857
     atom   14 type  3   force =     0.04554149   -0.05344712   -0.04241921
     atom   15 type  3   force =     0.05942743   -0.04600030    0.04245135
     atom   16 type  3   force =     0.03698551    0.03649663   -0.03102648
     atom   17 type  3   force =     0.04398068    0.04639243    0.04821857
     atom   18 type  4   force =     0.00000000    0.05320018   -0.04357725
     atom   19 type  4   force =    -0.00917116   -0.00533341   -0.12955562
     atom   20 type  4   force =    -0.01646855    0.00293925    0.13280239
     atom   21 type  4   force =     0.00917116   -0.00533341   -0.12955562
     atom   22 type  4   force =     0.01646855    0.00293925    0.13280239
     The ionic contribution  to forces
     atom    1 type  1   force =    -0.00000000   -0.52280865    0.71073172
     atom    2 type  1   force =    -1.59894490   -0.15088543    0.65585196
     atom    3 type  1   force =    -1.65732477    0.13517571   -0.64140294
     atom    4 type  1   force =     1.59894490   -0.15088543    0.65585196
     atom    5 type  1   force =     1.65732477    0.13517571   -0.64140294
     atom    6 type  2   force =     0.00000000    0.45416571    0.14570635
     atom    7 type  2   force =     0.00000000   -0.45025750   -0.16445907
     atom    8 type  3   force =    -5.92785247    0.05261795   -0.06123382
     atom    9 type  3   force =     5.92785247    0.05261795   -0.06123382
     atom   10 type  3   force =     2.73800739    5.86465373    5.52774162
     atom   11 type  3   force =     3.49772618    6.76654207   -6.47579864
     atom   12 type  3   force =     3.39198321   -6.76191194    6.44359065
     atom   13 type  3   force =     2.71567822   -5.81608765   -5.54513637
     atom   14 type  3   force =    -2.73800739    5.86465373    5.52774162
     atom   15 type  3   force =    -3.49772618    6.76654207   -6.47579864
     atom   16 type  3   force =    -3.39198321   -6.76191194    6.44359065
     atom   17 type  3   force =    -2.71567822   -5.81608765   -5.54513637
     atom   18 type  4   force =     0.00000000    0.33863200   -0.55016531
     atom   19 type  4   force =    -1.34645117    0.59974530    0.57418659
     atom   20 type  4   force =    -1.27369900   -0.59971553   -0.54870589
     atom   21 type  4   force =     1.34645117    0.59974530    0.57418659
     atom   22 type  4   force =     1.27369900   -0.59971553   -0.54870589
     The local contribution  to forces
     atom    1 type  1   force =    -0.00000025    0.63687541   -0.81804287
     atom    2 type  1   force =     1.87817706    0.44469877   -0.67846404
     atom    3 type  1   force =     1.92533800   -0.42477433    0.67955491
     atom    4 type  1   force =    -1.87817705    0.44469888   -0.67846427
     atom    5 type  1   force =    -1.92533796   -0.42477426    0.67955451
     atom    6 type  2   force =     0.00000030   -0.35385487   -0.05990630
     atom    7 type  2   force =    -0.00000123    0.33660832    0.09323427
     atom    8 type  3   force =     6.31160991   -0.05704655    0.06719254
     atom    9 type  3   force =    -6.31160995   -0.05704685    0.06719219
     atom   10 type  3   force =    -2.55462521   -5.68172361   -5.35768989
     atom   11 type  3   force =    -3.30652858   -6.59619475    6.31085892
     atom   12 type  3   force =    -3.22279210    6.60319732   -6.29214022
     atom   13 type  3   force =    -2.53376358    5.64028435    5.36920653
     atom   14 type  3   force =     2.55462487   -5.68172331   -5.35768996
     atom   15 type  3   force =     3.30652855   -6.59619412    6.31085961
     atom   16 type  3   force =     3.22279227    6.60319811   -6.29213960
     atom   17 type  3   force =     2.53376408    5.64028482    5.36920658
     atom   18 type  4   force =    -0.00000036   -0.43679846    0.63337689
     atom   19 type  4   force =     1.41522682   -0.60306308   -0.36856777
     atom   20 type  4   force =     1.34974163    0.60344493    0.34061656
     atom   21 type  4   force =    -1.41522667   -0.60306354   -0.36856739
     atom   22 type  4   force =    -1.34974140    0.60344438    0.34061657
     The core correction contribution to forces
[...]
     Davidson diagonalization with overlap
     ethr =  4.11E-11,  avg # of iterations =  4.0

     negative rho (up, down):  1.799E+00 0.000E+00

     total cpu time spent up to now is     3003.5 secs

     total energy              =   -2944.36107373 Ry
     estimated scf accuracy    <       0.00000023 Ry

     iteration # 15     ecut=   120.00 Ry     beta= 0.70
     Davidson diagonalization with overlap
     ethr =  4.11E-11,  avg # of iterations =  3.0

     negative rho (up, down):  1.799E+00 0.000E+00

     total cpu time spent up to now is     3018.9 secs

     total energy              =   -2944.36107375 Ry
     estimated scf accuracy    <       0.00000001 Ry

     iteration # 16     ecut=   120.00 Ry     beta= 0.70
     Davidson diagonalization with overlap
     ethr =  4.40E-12,  avg # of iterations =  3.0

     negative rho (up, down):  1.799E+00 0.000E+00

     total cpu time spent up to now is     3035.9 secs

     total energy              =   -2944.36107375 Ry
     estimated scf accuracy    <       0.00000002 Ry

     iteration # 17     ecut=   120.00 Ry     beta= 0.70
     Davidson diagonalization with overlap
     ethr =  4.40E-12,  avg # of iterations =  2.0

     negative rho (up, down):  1.799E+00 0.000E+00

     total cpu time spent up to now is     3051.5 secs

     End of self-consistent calculation

          k = 0.0000 0.0000 0.0000 ( 30122 PWs)   bands (ev):

   -49.3311 -49.3181 -49.2728 -49.2095 -49.1977 -49.1617 -49.1542 -49.1334
   -49.0901 -49.0434 -42.8551 -42.7293 -42.6462 -42.5224 -42.1335 -35.4225
   -35.4117 -29.9828 -29.6885 -29.5384 -29.2460 -29.1459 -17.0576 -16.6331
   -16.5377 -16.4547 -16.4166 -16.3475 -16.3324 -16.3050 -16.2936 -16.2579
   -16.1612 -16.1460 -16.1108 -16.0537 -16.0096 -15.8072 -15.7576 -15.6002
   -15.5784 -15.5693 -15.4499 -15.4469 -15.4239 -15.4175 -15.2663 -15.0776
   -15.0366 -14.9816 -14.9135 -14.8592 -13.0289 -12.7138 -12.4907 -12.4098
   -12.1994 -11.9944 -11.9756 -11.8522 -11.7208 -11.6859 -11.5635 -11.5458
   -11.3871 -11.2639 -11.1424 -11.0793 -11.0070 -10.7992 -10.7961 -10.4349
   -10.2994  -9.1758  -9.0504  -8.7655  -8.6883  -8.1516  -7.9336  -7.8236
    -7.5794  -7.5492  -7.3669  -7.2462  -6.8682  -6.8578  -6.5212  -6.3349
    11.0957  13.0080  13.3969  13.4786  13.5240  13.6215  13.8234  13.9236
    14.0007  14.4477  14.5732  14.6317  14.7265  14.8134  14.9537  15.0064
    15.0531  15.1057  15.3953  15.4316  15.4806  15.6197  15.6324  15.7812
    15.9115  15.9935  16.0211  16.0685  16.1665  16.1991  16.2447  16.3457
    16.4169  16.4496  16.6491  16.6806  16.7471  16.7752  16.8055  16.8378
    16.8686  16.9521  16.9708  17.6016  17.7735  17.9311  18.0980  18.1915
    18.2670  18.4352  18.4617  18.8145  19.0020  19.0557  19.1117  19.1628
    19.3890  19.5021  19.7109  19.7876  19.8712  19.9463  19.9729  20.1461
    20.1738  20.2063  20.2925  20.4269  20.5179  20.5593  20.5978  20.7100
    20.7457  20.8403  21.0462  21.1089  21.1813  21.5254

     the Fermi energy is    18.4945 ev

!    total energy              =   -2944.36107375 Ry
     estimated scf accuracy    <          2.3E-09 Ry
     smearing contrib. (-TS)   =      -0.04345691 Ry
     internal energy E=F+TS    =   -2944.31761684 Ry

     The total energy is F=E-TS. E is the sum of the following terms:
     one-electron contribution =    -447.48663167 Ry
     hartree contribution      =     365.55074375 Ry
     xc contribution           =    -932.01211823 Ry
     ewald contribution        =   -1930.36961070 Ry

     convergence has been achieved in  17 iterations

     negative rho (up, down):  1.799E+00 0.000E+00

     Forces acting on atoms (cartesian axes, Ry/au):

     atom    1 type  1   force =     0.00000000    0.00108975   -0.00155703
     atom    2 type  1   force =    -0.00056237   -0.00126964    0.00003305
     atom    3 type  1   force =    -0.00051209    0.00071345    0.00031848
     atom    4 type  1   force =     0.00056237   -0.00126964    0.00003305
     atom    5 type  1   force =     0.00051209    0.00071345    0.00031848
     atom    6 type  2   force =     0.00000000   -0.00046192    0.00112916
     atom    7 type  2   force =     0.00000000   -0.00033684   -0.00039998
     atom    8 type  3   force =    -0.00128048    0.00038640   -0.00056604
     atom    9 type  3   force =     0.00128048    0.00038640   -0.00056604
     atom   10 type  3   force =    -0.00150116   -0.00059749   -0.00048471
     atom   11 type  3   force =    -0.00203586   -0.00031300    0.00022315
     atom   12 type  3   force =    -0.00227237    0.00062215   -0.00060157
     atom   13 type  3   force =    -0.00143754    0.00082978    0.00023946
     atom   14 type  3   force =     0.00150116   -0.00059749   -0.00048471
     atom   15 type  3   force =     0.00203586   -0.00031300    0.00022315
     atom   16 type  3   force =     0.00227237    0.00062215   -0.00060157
     atom   17 type  3   force =     0.00143754    0.00082978    0.00023946
     atom   18 type  4   force =     0.00000000   -0.00040503    0.00085597
     atom   19 type  4   force =    -0.00031303   -0.00050047    0.00033115
     atom   20 type  4   force =    -0.00046315    0.00018584    0.00049297
     atom   21 type  4   force =     0.00031303   -0.00050047    0.00033115
     atom   22 type  4   force =     0.00046315    0.00018584    0.00049297
     The non-local contrib.  to forces
     atom    1 type  1   force =     0.00000000   -0.04258340    0.04852443
     atom    2 type  1   force =    -0.12397075   -0.12829555    0.01140775
     atom    3 type  1   force =    -0.11307951    0.12398976   -0.02763932
     atom    4 type  1   force =     0.12397075   -0.12829555    0.01140775
     atom    5 type  1   force =     0.11307951    0.12398976   -0.02763932
     atom    6 type  2   force =     0.00000000   -0.05082961   -0.04705161
     atom    7 type  2   force =     0.00000000    0.06855022    0.02640323
     atom    8 type  3   force =    -0.16855383    0.00123587   -0.00315267
     atom    9 type  3   force =     0.16855383    0.00123587   -0.00315267
     atom   10 type  3   force =     0.01352559    0.01897744    0.02313147
     atom   11 type  3   force =     0.00462748    0.01918399   -0.01889902
     atom   12 type  3   force =     0.02653409   -0.03243378    0.03334959
     atom   13 type  3   force =     0.01480075   -0.02341493   -0.01826123
     atom   14 type  3   force =    -0.01352559    0.01897744    0.02313147
     atom   15 type  3   force =    -0.00462748    0.01918399   -0.01889902
     atom   16 type  3   force =    -0.02653409   -0.03243378    0.03334959
     atom   17 type  3   force =    -0.01480075   -0.02341493   -0.01826123
     atom   18 type  4   force =     0.00000000    0.05955894   -0.04732109
     atom   19 type  4   force =    -0.00277448   -0.00984648   -0.09639895
     atom   20 type  4   force =    -0.01128294    0.00721019    0.10392646
     atom   21 type  4   force =     0.00277448   -0.00984648   -0.09639895
     atom   22 type  4   force =     0.01128294    0.00721019    0.10392646
     The ionic contribution  to forces
     atom    1 type  1   force =     0.00000000   -4.76296031    4.69498776
     atom    2 type  1   force =    -5.03162402   -6.35148022    0.93937353
     atom    3 type  1   force =    -5.09350062    6.33116593   -0.89224995
     atom    4 type  1   force =     5.03162402   -6.35148022    0.93937353
     atom    5 type  1   force =     5.09350062    6.33116593   -0.89224995
     atom    6 type  2   force =     0.00000000   -3.70708160   -3.66490978
     atom    7 type  2   force =     0.00000000    3.73904070    3.65169618
     atom    8 type  3   force =   -11.22816925    0.07856232   -0.05776786
     atom    9 type  3   force =    11.22816925    0.07856232   -0.05776786
     atom   10 type  3   force =    -3.89508334   -1.49601377   -1.57615866
     atom   11 type  3   force =    -3.09558478   -0.23757891    0.26959075
     atom   12 type  3   force =    -3.24456919    0.19802837   -0.28161819
     atom   13 type  3   force =    -3.91096473    1.55322061    1.50586934
     atom   14 type  3   force =     3.89508334   -1.49601377   -1.57615866
     atom   15 type  3   force =     3.09558478   -0.23757891    0.26959075
     atom   16 type  3   force =     3.24456919    0.19802837   -0.28161819
     atom   17 type  3   force =     3.91096473    1.55322061    1.50586934
     atom   18 type  4   force =     0.00000000    4.53706172   -4.46372405
     atom   19 type  4   force =    -4.72586432    0.91284160   -5.62983912
     atom   20 type  4   force =    -4.62688260   -0.89177619    5.61377510
     atom   21 type  4   force =     4.72586432    0.91284160   -5.62983912
     atom   22 type  4   force =     4.62688260   -0.89177619    5.61377510
     The local contribution  to forces
     atom    1 type  1   force =     0.00000145    4.80528084   -4.74571457
     atom    2 type  1   force =     5.16306286    6.47200220   -0.95290677
     atom    3 type  1   force =     5.21480393   -6.44901647    0.92401677
     atom    4 type  1   force =    -5.16306299    6.47200247   -0.95290638
     atom    5 type  1   force =    -5.21480409   -6.44901684    0.92401705
     atom    6 type  2   force =     0.00000093    3.75569174    3.71205005
     atom    7 type  2   force =     0.00000161   -3.80523480   -3.67852325
     atom    8 type  3   force =    11.40476667   -0.07957062    0.06089336
     atom    9 type  3   force =   -11.40476719   -0.07957062    0.06089365
     atom   10 type  3   force =     3.87822369    1.47156745    1.54896897
     atom   11 type  3   force =     3.08281778    0.21187730   -0.24545402
     atom   12 type  3   force =     3.20901414   -0.15775872    0.24137689
     atom   13 type  3   force =     3.89280362   -1.52489565   -1.48325620
     atom   14 type  3   force =    -3.87822378    1.47156758    1.54896849
     atom   15 type  3   force =    -3.08281797    0.21187734   -0.24545414
     atom   16 type  3   force =    -3.20901420   -0.15775875    0.24137662
     atom   17 type  3   force =    -3.89280378   -1.52489549   -1.48325639
     atom   18 type  4   force =     0.00000089   -4.59417908    4.51005637
     atom   19 type  4   force =     4.73065610   -0.90456069    5.72385281
     atom   20 type  4   force =     4.63975198    0.88540060   -5.71423988
     atom   21 type  4   force =    -4.73065632   -0.90456083    5.72385275
     atom   22 type  4   force =    -4.63975230    0.88540046   -5.71424022
     The core correction contribution to forces
     atom    1 type  1   force =     0.00000001    0.00133147    0.00061328
     atom    2 type  1   force =    -0.00803975    0.00648015    0.00214053
     atom    3 type  1   force =    -0.00874006   -0.00536785   -0.00375739
     atom    4 type  1   force =     0.00803975    0.00648015    0.00214053
     atom    5 type  1   force =     0.00874007   -0.00536785   -0.00375738
     atom    6 type  2   force =    -0.00000000    0.00165705    0.00106374
     atom    7 type  2   force =     0.00000000   -0.00263444    0.00007032
     atom    8 type  3   force =    -0.00932507    0.00012784   -0.00049908
     atom    9 type  3   force =     0.00932508    0.00012784   -0.00049909
     atom   10 type  3   force =     0.00183239    0.00484203    0.00361408
     atom   11 type  3   force =     0.00609601    0.00613761   -0.00502603
     atom   12 type  3   force =     0.00673892   -0.00713101    0.00625124
     atom   13 type  3   force =     0.00192541   -0.00406684   -0.00415042
     atom   14 type  3   force =    -0.00183239    0.00484203    0.00361407
     atom   15 type  3   force =    -0.00609601    0.00613761   -0.00502603
     atom   16 type  3   force =    -0.00673892   -0.00713101    0.00625124
     atom   17 type  3   force =    -0.00192540   -0.00406684   -0.00415041
     atom   18 type  4   force =    -0.00000000   -0.00282073    0.00187604
     atom   19 type  4   force =    -0.00233563    0.00102766    0.00270252
     atom   20 type  4   force =    -0.00205138   -0.00060882   -0.00300033
     atom   21 type  4   force =     0.00233564    0.00102766    0.00270251
     atom   22 type  4   force =     0.00205138   -0.00060883   -0.00300033
     The Hubbard contrib.    to forces
     atom    1 type  1   force =     0.00000000    0.00000000    0.00000000
     atom    2 type  1   force =     0.00000000    0.00000000    0.00000000
     atom    3 type  1   force =     0.00000000    0.00000000    0.00000000
     atom    4 type  1   force =     0.00000000    0.00000000    0.00000000
     atom    5 type  1   force =     0.00000000    0.00000000    0.00000000
     atom    6 type  2   force =     0.00000000    0.00000000    0.00000000
     atom    7 type  2   force =     0.00000000    0.00000000    0.00000000
     atom    8 type  3   force =     0.00000000    0.00000000    0.00000000
     atom    9 type  3   force =     0.00000000    0.00000000    0.00000000
     atom   10 type  3   force =     0.00000000    0.00000000    0.00000000
     atom   11 type  3   force =     0.00000000    0.00000000    0.00000000
     atom   12 type  3   force =     0.00000000    0.00000000    0.00000000
     atom   13 type  3   force =     0.00000000    0.00000000    0.00000000
     atom   14 type  3   force =     0.00000000    0.00000000    0.00000000
     atom   15 type  3   force =     0.00000000    0.00000000    0.00000000
     atom   16 type  3   force =     0.00000000    0.00000000    0.00000000
     atom   17 type  3   force =     0.00000000    0.00000000    0.00000000
     atom   18 type  4   force =     0.00000000    0.00000000    0.00000000
     atom   19 type  4   force =     0.00000000    0.00000000    0.00000000
     atom   20 type  4   force =     0.00000000    0.00000000    0.00000000
     atom   21 type  4   force =     0.00000000    0.00000000    0.00000000
     atom   22 type  4   force =     0.00000000    0.00000000    0.00000000
     The SCF correction term to forces
     atom    1 type  1   force =    -0.00000134    0.00002143    0.00003219
     atom    2 type  1   force =     0.00000929    0.00002406    0.00001813
     atom    3 type  1   force =     0.00000417   -0.00005763   -0.00005151
     atom    4 type  1   force =    -0.00000917    0.00002380    0.00001775
     atom    5 type  1   force =    -0.00000403   -0.00005729   -0.00005181
     atom    6 type  2   force =    -0.00000094    0.00010080   -0.00002312
     atom    7 type  2   force =    -0.00000156   -0.00005824   -0.00004634
     atom    8 type  3   force =     0.00000099    0.00003128   -0.00003965
     atom    9 type  3   force =    -0.00000049    0.00003126   -0.00003997
     atom   10 type  3   force =     0.00000050    0.00002965   -0.00004045
     atom   11 type  3   force =     0.00000764    0.00006730    0.00001158
     atom   12 type  3   force =     0.00000968   -0.00008242    0.00003900
     atom   13 type  3   force =    -0.00000261   -0.00001314    0.00003808
     atom   14 type  3   force =    -0.00000042    0.00002952   -0.00003997
     atom   15 type  3   force =    -0.00000748    0.00006726    0.00001169
     atom   16 type  3   force =    -0.00000961   -0.00008241    0.00003929
     atom   17 type  3   force =     0.00000272   -0.00001328    0.00003827
     atom   18 type  4   force =    -0.00000084   -0.00002559   -0.00003117
     atom   19 type  4   force =     0.00000531    0.00003775    0.00001402
     atom   20 type  4   force =     0.00000180   -0.00003963    0.00003174
     atom   21 type  4   force =    -0.00000510    0.00003786    0.00001407
     atom   22 type  4   force =    -0.00000145   -0.00003952    0.00003206

     Total force =     0.007051     Total SCF correction =     0.000285
     Energy error            =      4.7E-04 Ry
     Gradient error          =      2.3E-03 Ry/Bohr

     bfgs converged in   7 scf cycles and   6 bfgs steps
     (criteria: energy <  1.0E-03 Ry, force <  1.0E-02 Ry/Bohr)

     End of BFGS Geometry Optimization

     Final energy             =   -2944.3610737492 Ry

     File outdir/pwscf.bfgs deleted, as requested
Begin final coordinates

ATOMIC_POSITIONS (angstrom)
Hf            2.6699999570        2.8271230292        5.8717843740
Hf            1.2529906802        1.2862841814        4.3262863815
Hf            1.2554868986        7.3898042948        4.3558879228
Hf            4.0870092338        1.2862841814        4.3262863815
Hf            4.0845130154        7.3898042948        4.3558879228
Nb            2.6699999570        2.7969306055        2.7834033721
Nb            2.6699999570        5.8763786763        5.9028180986
Ta            1.2093730560        4.3409278516        4.3389459877
Ta            4.1306268580        4.3409278516        4.3389459877
Ta            1.3072526841        1.3141225894        1.3265992655
Ta            1.3027883142        1.3083911360        7.3623993578
Ta            1.3040096221        7.3758261241        1.3140573352
Ta            1.3077107984        7.3650829484        7.3538223762
Ta            4.0327472299        1.3141225894        1.3265992655
Ta            4.0372115998        1.3083911360        7.3623993578
Ta            4.0359902919        7.3758261241        1.3140573352
Ta            4.0322891156        7.3650829484        7.3538223762
Zr            2.6699999570        5.8662858434        2.7952040858
Zr            1.2438346190        4.3220779645        1.2678201554
Zr            1.2403854127        4.3541232845        7.4175757047
Zr            4.0961652950        4.3220779645        1.2678201554
Zr            4.0996145013        4.3541232845        7.4175757047
End final coordinates



     Writing all to output data dir outdir/pwscf.save/

     init_run     :     11.15s CPU     11.93s WALL (       1 calls)
     electrons    :   2807.80s CPU   2931.71s WALL (       7 calls)
     update_pot   :     20.65s CPU     20.72s WALL (       6 calls)
     forces       :     77.23s CPU     79.82s WALL (       7 calls)

     Called by init_run:
     wfcinit      :      5.03s CPU      5.08s WALL (       1 calls)
     potinit      :      1.77s CPU      1.80s WALL (       1 calls)
     hinit0       :      1.89s CPU      1.93s WALL (       1 calls)

     Called by electrons:
     c_bands      :   1792.57s CPU   1804.11s WALL (     155 calls)
     sum_band     :    589.52s CPU    648.53s WALL (     155 calls)
     v_of_rho     :     28.49s CPU     29.41s WALL (     162 calls)
     newd         :    406.40s CPU    461.05s WALL (     162 calls)
     mix_rho      :      5.11s CPU      5.38s WALL (     155 calls)

     Called by c_bands:
     init_us_2    :      2.24s CPU      2.28s WALL (     311 calls)
     init_us_2:cp :      2.23s CPU      2.28s WALL (     311 calls)
     regterg      :   1778.11s CPU   1789.57s WALL (     155 calls)

     Called by *egterg:
     rdiaghg      :     43.69s CPU     44.13s WALL (     973 calls)
     h_psi        :    712.71s CPU    721.20s WALL (     980 calls)
     s_psi        :    248.96s CPU    249.50s WALL (     980 calls)
     g_psi        :      0.54s CPU      0.55s WALL (     824 calls)

     Called by h_psi:
     h_psi:calbec :    319.83s CPU    320.67s WALL (     980 calls)
     vloc_psi     :    142.15s CPU    149.23s WALL (     980 calls)
     add_vuspsi   :    249.68s CPU    250.27s WALL (     980 calls)

     General routines
     calbec       :    460.48s CPU    461.71s WALL (    1163 calls)
     fft          :     57.23s CPU     59.00s WALL (    1837 calls)
     ffts         :      1.62s CPU      1.69s WALL (     317 calls)
     fftw         :    138.34s CPU    145.29s WALL (   82571 calls)
     interpolate  :      3.09s CPU      3.26s WALL (     162 calls)

     Parallel routines

     PWSCF        :  48m52.59s CPU  51m 2.54s WALL


   This run was terminated on:  19:49:37   5Jun2023            

=------------------------------------------------------------------------------=
   JOB DONE.
=------------------------------------------------------------------------------=
