
     Program PWSCF v.7.2 starts on  4Jun2023 at  2:29:37 

     This program is part of the open-source Quantum ESPRESSO suite
     for quantum simulation of materials; please cite
         "P. Giannozzi et al., J. Phys.:Condens. Matter 21 395502 (2009);
         "P. Giannozzi et al., J. Phys.:Condens. Matter 29 465901 (2017);
         "P. Giannozzi et al., J. Chem. Phys. 152 154105 (2020);
          URL http://www.quantum-espresso.org", 
     in publications or presentations arising from this work. More details at
     http://www.quantum-espresso.org/quote

     Parallel version (MPI), running on    12 processors

     MPI processes distributed on     1 nodes
     78000 MiB available memory on the printing compute node when the environment starts

     Reading input from relax_Hf5Ta6Nb16Zr8.in
Warning: card &CELL ignored
Warning: card / ignored

     Current dimensions of program PWSCF are:
     Max number of different atomic species (ntypx) = 10
     Max number of k-points (npk) =  40000
     Max angular momentum in pseudopotentials (lmaxx) =  4

     gamma-point specific algorithms are used

     R & G space division:  proc/nbgrp/npool/nimage =      12
     Subspace diagonalization in iterative solution of the eigenvalue problem:
     one sub-group per band group will be used
     custom distributed-memory algorithm (size of sub-group:  3*  3 procs)


     Parallelization info
     --------------------
     sticks:   dense  smooth     PW     G-vecs:    dense   smooth      PW
     Min        1237     617    154               113526    40109    5014
     Max        1240     620    156               113534    40120    5024
     Sum       14857    7425   1861              1362361   481353   60245

     Using Slab Decomposition



     bravais-lattice index     =            0
     lattice parameter (alat)  =      13.9462  a.u.
     unit-cell volume          =    2712.4745 (a.u.)^3
     number of atoms/cell      =           35
     number of atomic types    =            4
     number of electrons       =       442.00
     number of Kohn-Sham states=          265
     kinetic-energy cutoff     =     120.0000  Ry
     charge density cutoff     =     960.0000  Ry
     scf convergence threshold =      1.0E-06
     mixing beta               =       0.7000
     number of iterations used =            8  plain     mixing
     energy convergence thresh.=      1.0E-03
     force convergence thresh. =      1.0E-02
     Exchange-correlation= SLA  PW   PBE  PBE
                           (   1   4   3   4   0   0   0)
     nstep                     =           50


     celldm(1)=  13.946178  celldm(2)=   0.000000  celldm(3)=   0.000000
     celldm(4)=   0.000000  celldm(5)=   0.000000  celldm(6)=   0.000000

     crystal axes: (cart. coord. in units of alat)
               a(1) = (   1.000000   0.000000   0.000000 )  
               a(2) = (   0.000000   1.000000   0.000000 )  
               a(3) = (   0.000000   0.000000   1.000000 )  

     reciprocal axes: (cart. coord. in units 2 pi/alat)
               b(1) = (  1.000000  0.000000  0.000000 )  
               b(2) = (  0.000000  1.000000  0.000000 )  
               b(3) = (  0.000000  0.000000  1.000000 )  


     PseudoPot. # 1 for Hf read from file:
     q-e/pseudo/hf_pbe_v1.uspp.F.UPF
     MD5 check sum: 8ee9378dfe14276e333edf04c5e4aa26
     Pseudo is Ultrasoft + core correction, Zval = 12.0
     Generated by new atomic code, or converted to UPF format
     Using radial grid of  921 points,  8 beta functions with: 
                l(1) =   0
                l(2) =   0
                l(3) =   0
                l(4) =   1
                l(5) =   1
                l(6) =   2
                l(7) =   2
                l(8) =   3
     Q(r) pseudized with  6 coefficients,  rinner =    1.200   1.200   1.200
                                                       1.200   1.200   1.200
                                                       1.200

     PseudoPot. # 2 for Ta read from file:
     q-e/pseudo/ta_pbe_v1.uspp.F.UPF
     MD5 check sum: f8bbe9446314a3b8ea5d9f3e3836c939
     Pseudo is Ultrasoft + core correction, Zval = 13.0
     Generated by new atomic code, or converted to UPF format
     Using radial grid of  921 points,  7 beta functions with: 
                l(1) =   0
                l(2) =   0
                l(3) =   1
                l(4) =   1
                l(5) =   2
                l(6) =   2
                l(7) =   3
     Q(r) pseudized with  6 coefficients,  rinner =    1.300   1.300   1.300
                                                       1.300   1.300   1.300
                                                       1.300

     PseudoPot. # 3 for Nb read from file:
     q-e/pseudo/nb_pbe_v1.uspp.F.UPF
     MD5 check sum: 573aab8a2fa660278ed4a62cd769473f
     Pseudo is Ultrasoft + core correction, Zval = 13.0
     Generated by new atomic code, or converted to UPF format
     Using radial grid of  887 points,  6 beta functions with: 
                l(1) =   0
                l(2) =   0
                l(3) =   1
                l(4) =   1
                l(5) =   2
                l(6) =   2
     Q(r) pseudized with  6 coefficients,  rinner =    1.000   1.000   1.000
                                                       1.000   1.000

     PseudoPot. # 4 for Zr read from file:
     q-e/pseudo/zr_pbe_v1.uspp.F.UPF
     MD5 check sum: 5db81b1e868ab7776c4564c113de050b
     Pseudo is Ultrasoft + core correction, Zval = 12.0
     Generated by new atomic code, or converted to UPF format
     Using radial grid of  887 points,  6 beta functions with: 
                l(1) =   0
                l(2) =   0
                l(3) =   1
                l(4) =   1
                l(5) =   2
                l(6) =   2
     Q(r) pseudized with  6 coefficients,  rinner =    1.200   1.200   1.200
                                                       1.200   1.200

     atomic species   valence    mass     pseudopotential
        Hf            12.00   178.49000     Hf( 1.00)
        Ta            13.00   180.94788     Ta( 1.00)
        Nb            13.00    92.90637     Nb( 1.00)
        Zr            12.00    91.22400     Zr( 1.00)

     No symmetry found



   Cartesian axes

     site n.     atom                  positions (alat units)
         1           Hf  tau(   1) = (   0.2533875   0.7059621   0.7059621  )
         2           Hf  tau(   2) = (   0.4796748   0.0271003   0.4796748  )
         3           Hf  tau(   3) = (   0.4796748   0.9322493   0.4796748  )
         4           Hf  tau(   4) = (   0.0271003   0.4796748   0.0271003  )
         5           Hf  tau(   5) = (   0.9322493   0.4796748   0.0271003  )
         6           Ta  tau(   6) = (   0.4796748   0.0271003   0.0271003  )
         7           Ta  tau(   7) = (   0.4796748   0.9322493   0.0271003  )
         8           Ta  tau(   8) = (   0.7059621   0.2533875   0.7059621  )
         9           Ta  tau(   9) = (   0.7059621   0.7059621   0.2533875  )
        10           Ta  tau(  10) = (   0.0271003   0.4796748   0.9322493  )
        11           Ta  tau(  11) = (   0.9322493   0.4796748   0.9322493  )
        12           Nb  tau(  12) = (   0.2533875   0.2533875   0.7059621  )
        13           Nb  tau(  13) = (   0.4796748   0.4796748   0.4796748  )
        14           Nb  tau(  14) = (   0.4796748   0.4796748   0.9322493  )
        15           Nb  tau(  15) = (   0.4796748   0.0271003   0.9322493  )
        16           Nb  tau(  16) = (   0.4796748   0.9322493   0.9322493  )
        17           Nb  tau(  17) = (   0.7059621   0.7059621   0.7059621  )
        18           Nb  tau(  18) = (   0.0271003   0.4796748   0.4796748  )
        19           Nb  tau(  19) = (   0.9322493   0.4796748   0.4796748  )
        20           Nb  tau(  20) = (   0.0271003   0.0271003   0.4796748  )
        21           Nb  tau(  21) = (   0.0271003   0.9322493   0.4796748  )
        22           Nb  tau(  22) = (   0.9322493   0.0271003   0.4796748  )
        23           Nb  tau(  23) = (   0.9322493   0.9322493   0.4796748  )
        24           Nb  tau(  24) = (   0.0271003   0.0271003   0.0271003  )
        25           Nb  tau(  25) = (   0.0271003   0.9322493   0.0271003  )
        26           Nb  tau(  26) = (   0.9322493   0.0271003   0.0271003  )
        27           Nb  tau(  27) = (   0.9322493   0.9322493   0.0271003  )
        28           Zr  tau(  28) = (   0.2533875   0.2533875   0.2533875  )
        29           Zr  tau(  29) = (   0.2533875   0.7059621   0.2533875  )
        30           Zr  tau(  30) = (   0.4796748   0.4796748   0.0271003  )
        31           Zr  tau(  31) = (   0.7059621   0.2533875   0.2533875  )
        32           Zr  tau(  32) = (   0.0271003   0.0271003   0.9322493  )
        33           Zr  tau(  33) = (   0.0271003   0.9322493   0.9322493  )
        34           Zr  tau(  34) = (   0.9322493   0.0271003   0.9322493  )
        35           Zr  tau(  35) = (   0.9322493   0.9322493   0.9322493  )

     number of k points=     1  Gaussian smearing, width (Ry)=  0.0220
                       cart. coord. in units 2pi/alat
        k(    1) = (   0.0000000   0.0000000   0.0000000), wk =   2.0000000

     Dense  grid:   681181 G-vectors     FFT dimensions: ( 144, 144, 144)

     Smooth grid:   240677 G-vectors     FFT dimensions: ( 100, 100, 100)

     Estimated max dynamical RAM per process >     474.68 MB

     Estimated total dynamical RAM >       5.56 GB

     Initial potential from superposition of free atoms

     starting charge     431.9324, renormalised to     442.0000

     negative rho (up, down):  5.519E-01 0.000E+00
     Starting wfcs are  455 randomized atomic wfcs

     total cpu time spent up to now is       19.7 secs

     Self-consistent Calculation

     iteration #  1     ecut=   120.00 Ry     beta= 0.70
     Davidson diagonalization with overlap
     ethr =  1.00E-02,  avg # of iterations = 14.0

     negative rho (up, down):  7.136E-01 0.000E+00

     total cpu time spent up to now is      128.3 secs

     total energy              =    -424.13812336 Ry
     estimated scf accuracy    <    3009.61311234 Ry

     iteration #  2     ecut=   120.00 Ry     beta= 0.70
     Davidson diagonalization with overlap
     ethr =  1.00E-02,  avg # of iterations = 13.0

     negative rho (up, down):  7.046E-01 0.000E+00

     total cpu time spent up to now is      246.6 secs

     total energy              =   -2260.18856700 Ry
     estimated scf accuracy    <   14092.50896269 Ry

     iteration #  3     ecut=   120.00 Ry     beta= 0.70
     Davidson diagonalization with overlap
     ethr =  1.00E-02,  avg # of iterations = 11.0

     negative rho (up, down):  6.908E-01 0.000E+00

     total cpu time spent up to now is      350.9 secs

     total energy              =   -2502.00527965 Ry
     estimated scf accuracy    <    5983.19473085 Ry

     iteration #  4     ecut=   120.00 Ry     beta= 0.70
     Davidson diagonalization with overlap
     ethr =  1.00E-02,  avg # of iterations =  7.0

     negative rho (up, down):  6.992E-01 0.000E+00

     total cpu time spent up to now is      418.4 secs

     total energy              =   -2698.25339831 Ry
     estimated scf accuracy    <    1298.47049715 Ry

     iteration #  5     ecut=   120.00 Ry     beta= 0.70
     Davidson diagonalization with overlap
     ethr =  1.00E-02,  avg # of iterations =  6.0

     negative rho (up, down):  7.222E-01 0.000E+00

     total cpu time spent up to now is      466.7 secs

     total energy              =   -2697.63081870 Ry
     estimated scf accuracy    <     591.85643828 Ry

     iteration #  6     ecut=   120.00 Ry     beta= 0.70
     Davidson diagonalization with overlap
     ethr =  1.00E-02,  avg # of iterations =  6.0

     negative rho (up, down):  7.305E-01 0.000E+00

     total cpu time spent up to now is      512.3 secs

     total energy              =   -2736.86838856 Ry
     estimated scf accuracy    <      50.42996897 Ry

     iteration #  7     ecut=   120.00 Ry     beta= 0.70
     Davidson diagonalization with overlap
     ethr =  1.00E-02,  avg # of iterations =  2.0

     negative rho (up, down):  7.356E-01 0.000E+00

     total cpu time spent up to now is      540.9 secs

     total energy              =   -2738.94491180 Ry
     estimated scf accuracy    <      19.72431802 Ry

     iteration #  8     ecut=   120.00 Ry     beta= 0.70
     Davidson diagonalization with overlap
     ethr =  4.46E-03,  avg # of iterations =  2.0

     negative rho (up, down):  7.452E-01 0.000E+00

     total cpu time spent up to now is      569.1 secs

     total energy              =   -2738.68733690 Ry
     estimated scf accuracy    <      21.62208278 Ry

     iteration #  9     ecut=   120.00 Ry     beta= 0.70
     Davidson diagonalization with overlap
     ethr =  4.46E-03,  avg # of iterations =  2.0

     negative rho (up, down):  7.595E-01 0.000E+00

     total cpu time spent up to now is      597.3 secs

     total energy              =   -2733.47194896 Ry
     estimated scf accuracy    <      44.40665417 Ry

     iteration # 10     ecut=   120.00 Ry     beta= 0.70
     Davidson diagonalization with overlap
     ethr =  4.46E-03,  avg # of iterations =  6.0

     negative rho (up, down):  7.738E-01 0.000E+00

     total cpu time spent up to now is      628.6 secs

     total energy              =   -2736.53097279 Ry
     estimated scf accuracy    <       9.45700246 Ry

     iteration # 11     ecut=   120.00 Ry     beta= 0.70
     Davidson diagonalization with overlap
     ethr =  2.14E-03,  avg # of iterations =  3.0

     negative rho (up, down):  7.733E-01 0.000E+00

     total cpu time spent up to now is      659.9 secs

     total energy              =   -2736.50748924 Ry
     estimated scf accuracy    <      12.26574685 Ry

     iteration # 12     ecut=   120.00 Ry     beta= 0.70
     Davidson diagonalization with overlap
     ethr =  2.14E-03,  avg # of iterations =  2.0

     negative rho (up, down):  7.726E-01 0.000E+00

     total cpu time spent up to now is      689.1 secs

     total energy              =   -2736.93303378 Ry
     estimated scf accuracy    <       8.39868018 Ry

     iteration # 13     ecut=   120.00 Ry     beta= 0.70
     Davidson diagonalization with overlap
     ethr =  1.90E-03,  avg # of iterations =  1.0

     negative rho (up, down):  7.731E-01 0.000E+00

     total cpu time spent up to now is      714.3 secs

     total energy              =   -2737.23198901 Ry
     estimated scf accuracy    <       2.19345771 Ry

     iteration # 14     ecut=   120.00 Ry     beta= 0.70
     Davidson diagonalization with overlap
     ethr =  4.96E-04,  avg # of iterations =  2.0

     negative rho (up, down):  7.751E-01 0.000E+00

     total cpu time spent up to now is      742.7 secs

     total energy              =   -2737.21651671 Ry
     estimated scf accuracy    <       1.49370560 Ry

     iteration # 15     ecut=   120.00 Ry     beta= 0.70
     Davidson diagonalization with overlap
     ethr =  3.38E-04,  avg # of iterations =  3.0

     negative rho (up, down):  7.746E-01 0.000E+00

     total cpu time spent up to now is      772.9 secs

     total energy              =   -2737.04699341 Ry
     estimated scf accuracy    <       3.71958704 Ry

     iteration # 16     ecut=   120.00 Ry     beta= 0.70
     Davidson diagonalization with overlap
     ethr =  3.38E-04,  avg # of iterations =  2.0

     negative rho (up, down):  7.747E-01 0.000E+00

     total cpu time spent up to now is      802.2 secs

     total energy              =   -2737.34286346 Ry
     estimated scf accuracy    <       0.52374124 Ry

     iteration # 17     ecut=   120.00 Ry     beta= 0.70
     Davidson diagonalization with overlap
     ethr =  1.18E-04,  avg # of iterations =  2.0

     negative rho (up, down):  7.748E-01 0.000E+00

     total cpu time spent up to now is      831.6 secs

     total energy              =   -2737.37544886 Ry
     estimated scf accuracy    <       0.54276155 Ry

     iteration # 18     ecut=   120.00 Ry     beta= 0.70
     Davidson diagonalization with overlap
     ethr =  1.18E-04,  avg # of iterations =  1.0

     negative rho (up, down):  7.752E-01 0.000E+00

     total cpu time spent up to now is      857.1 secs

     total energy              =   -2737.39956371 Ry
     estimated scf accuracy    <       0.10923207 Ry

     iteration # 19     ecut=   120.00 Ry     beta= 0.70
     Davidson diagonalization with overlap
     ethr =  2.47E-05,  avg # of iterations = 15.0

     negative rho (up, down):  7.750E-01 0.000E+00

     total cpu time spent up to now is      887.3 secs

     total energy              =   -2737.40259236 Ry
     estimated scf accuracy    <       0.15010072 Ry

     iteration # 20     ecut=   120.00 Ry     beta= 0.70
     Davidson diagonalization with overlap
     ethr =  2.47E-05,  avg # of iterations =  2.0

     negative rho (up, down):  7.750E-01 0.000E+00

     total cpu time spent up to now is      915.7 secs

     total energy              =   -2737.40814870 Ry
     estimated scf accuracy    <       0.04007021 Ry

     iteration # 21     ecut=   120.00 Ry     beta= 0.70
     Davidson diagonalization with overlap
     ethr =  9.07E-06,  avg # of iterations =  2.0

     negative rho (up, down):  7.751E-01 0.000E+00

     total cpu time spent up to now is      944.4 secs

     total energy              =   -2737.40836454 Ry
     estimated scf accuracy    <       0.07847200 Ry

     iteration # 22     ecut=   120.00 Ry     beta= 0.70
     Davidson diagonalization with overlap
     ethr =  9.07E-06,  avg # of iterations =  2.0

     negative rho (up, down):  7.754E-01 0.000E+00

     total cpu time spent up to now is      972.4 secs

     total energy              =   -2737.41257404 Ry
     estimated scf accuracy    <       0.00796464 Ry

     iteration # 23     ecut=   120.00 Ry     beta= 0.70
     Davidson diagonalization with overlap
     ethr =  1.80E-06,  avg # of iterations =  3.0

     negative rho (up, down):  7.754E-01 0.000E+00

     total cpu time spent up to now is     1003.0 secs

     total energy              =   -2737.41187347 Ry
     estimated scf accuracy    <       0.02072860 Ry

     iteration # 24     ecut=   120.00 Ry     beta= 0.70
     Davidson diagonalization with overlap
     ethr =  1.80E-06,  avg # of iterations =  2.0

     negative rho (up, down):  7.754E-01 0.000E+00

     total cpu time spent up to now is     1031.8 secs

     total energy              =   -2737.41284826 Ry
     estimated scf accuracy    <       0.00738862 Ry

     iteration # 25     ecut=   120.00 Ry     beta= 0.70
     Davidson diagonalization with overlap
     ethr =  1.67E-06,  avg # of iterations =  2.0

     negative rho (up, down):  7.754E-01 0.000E+00

     total cpu time spent up to now is     1062.7 secs

     total energy              =   -2737.41300725 Ry
     estimated scf accuracy    <       0.00661450 Ry

     iteration # 26     ecut=   120.00 Ry     beta= 0.70
     Davidson diagonalization with overlap
     ethr =  1.50E-06,  avg # of iterations =  2.0

     negative rho (up, down):  7.754E-01 0.000E+00

     total cpu time spent up to now is     1092.6 secs

     total energy              =   -2737.41351651 Ry
     estimated scf accuracy    <       0.00047366 Ry

     iteration # 27     ecut=   120.00 Ry     beta= 0.70
     Davidson diagonalization with overlap
     ethr =  1.07E-07,  avg # of iterations =  2.0

     negative rho (up, down):  7.754E-01 0.000E+00

     total cpu time spent up to now is     1127.1 secs

     total energy              =   -2737.41356037 Ry
     estimated scf accuracy    <       0.00024133 Ry

     iteration # 28     ecut=   120.00 Ry     beta= 0.70
     Davidson diagonalization with overlap
     ethr =  5.46E-08,  avg # of iterations =  2.0

     negative rho (up, down):  7.755E-01 0.000E+00

     total cpu time spent up to now is     1160.2 secs

     total energy              =   -2737.41358257 Ry
     estimated scf accuracy    <       0.00006533 Ry

     iteration # 29     ecut=   120.00 Ry     beta= 0.70
     Davidson diagonalization with overlap
     ethr =  1.48E-08,  avg # of iterations =  2.0

     negative rho (up, down):  7.755E-01 0.000E+00

     total cpu time spent up to now is     1190.7 secs

     total energy              =   -2737.41358551 Ry
     estimated scf accuracy    <       0.00004301 Ry

     iteration # 30     ecut=   120.00 Ry     beta= 0.70
     Davidson diagonalization with overlap
     ethr =  9.73E-09,  avg # of iterations =  2.0

     negative rho (up, down):  7.755E-01 0.000E+00

     total cpu time spent up to now is     1224.2 secs

     total energy              =   -2737.41358803 Ry
     estimated scf accuracy    <       0.00002463 Ry

     iteration # 31     ecut=   120.00 Ry     beta= 0.70
     Davidson diagonalization with overlap
     ethr =  5.57E-09,  avg # of iterations =  2.0

     negative rho (up, down):  7.755E-01 0.000E+00

     total cpu time spent up to now is     1255.4 secs

     total energy              =   -2737.41358772 Ry
     estimated scf accuracy    <       0.00004639 Ry

     iteration # 32     ecut=   120.00 Ry     beta= 0.70
     Davidson diagonalization with overlap
     ethr =  5.57E-09,  avg # of iterations =  2.0

     negative rho (up, down):  7.755E-01 0.000E+00

     total cpu time spent up to now is     1287.4 secs

     total energy              =   -2737.41359001 Ry
     estimated scf accuracy    <       0.00001176 Ry

     iteration # 33     ecut=   120.00 Ry     beta= 0.70
     Davidson diagonalization with overlap
     ethr =  2.66E-09,  avg # of iterations =  2.0

     negative rho (up, down):  7.755E-01 0.000E+00

     total cpu time spent up to now is     1317.8 secs

     total energy              =   -2737.41359072 Ry
     estimated scf accuracy    <       0.00000379 Ry

     iteration # 34     ecut=   120.00 Ry     beta= 0.70
     Davidson diagonalization with overlap
     ethr =  8.57E-10,  avg # of iterations =  2.0

     negative rho (up, down):  7.755E-01 0.000E+00

     total cpu time spent up to now is     1350.9 secs

     total energy              =   -2737.41359091 Ry
     estimated scf accuracy    <       0.00000308 Ry

     iteration # 35     ecut=   120.00 Ry     beta= 0.70
     Davidson diagonalization with overlap
     ethr =  6.97E-10,  avg # of iterations =  2.0

     negative rho (up, down):  7.755E-01 0.000E+00

     total cpu time spent up to now is     1384.8 secs

     End of self-consistent calculation

          k = 0.0000 0.0000 0.0000 ( 30123 PWs)   bands (ev):

  -370.8105-207.4673-176.6680-147.2655-144.9190-143.6543-140.8944-140.8883
  -139.0719-134.8240-117.0100-110.7013-109.4394-106.5932 -89.0957 -87.4573
   -86.3166 -86.3055 -81.2363 -81.2113 -80.8364 -79.3732 -71.4034 -67.3805
   -62.0935 -58.8446 -56.3514 -55.8601 -47.4386 -45.3649 -45.3340 -43.7461
   -43.6820 -42.4042 -42.1760 -41.1701 -40.1458 -40.1223 -39.8768 -39.8664
   -39.1322 -38.4645 -36.7057 -36.6157 -36.4731 -36.4005 -36.1645 -36.0838
   -35.2938 -35.2841 -34.2624 -33.2270 -32.4834 -32.4707 -32.3240 -31.0981
   -31.0642 -28.9912 -28.8607 -27.9611 -26.5846 -25.9456 -25.1959 -23.6233
   -23.1292 -23.0189 -23.0043 -22.6901 -21.6959 -20.2469 -19.5016 -19.0442
   -17.5189 -15.5897 -12.3023 -12.2733 -11.3564 -10.9964 -10.8738 -10.7003
    -9.3011  -9.0477  -8.9783  -8.8900  -8.8304  -8.8215  -8.6651  -8.6149
    -8.5483  -8.4952  -8.4850  -8.3455  -8.3216  -6.9084  -5.9712  -5.4345
    -5.3679  -5.3174  -5.2049  -5.1682  -5.0776  -5.0721  -5.0449  -4.9594
    -4.5908  -4.4844  -4.2833  -4.1433  -4.0769  -3.9900  -3.7941  -2.7482
    -2.5121  -1.4909  -1.3349  -1.2682  -1.2583  -1.2333  -1.1866  -1.1415
    -1.0908  -1.0505  -0.9365   1.0613   1.6167   1.6415   2.5915   2.9982
     3.0680   3.9154   4.1753   4.3112   4.3317   5.6676   5.7821   5.9087
     6.8724   6.9290   7.0792   7.5417   7.6186   7.8806   8.1007   8.1506
     9.9863  10.0752  10.5255  11.1014  11.2521  11.4746  12.1096  12.4067
    13.2280  13.3555  13.5173  13.5288  14.4135  14.7654  14.8247  14.9804
    15.0688  15.2912  15.7013  15.7619  15.7822  16.6272  17.1811  18.1541
    18.8115  18.8587  18.9999  19.0610  19.1476  19.2243  19.3009  19.4256
    19.5239  19.6227  19.6705  19.8435  19.8616  19.8853  19.9259  20.2526
    20.7530  21.1546  21.2236  21.2392  21.3721  21.6182  22.0383  22.1428
    22.2666  22.3266  22.4907  22.8786  23.1461  23.1906  23.2256  23.4153
    23.5542  23.5645  23.8292  24.1415  24.2432  24.3496  24.4685  24.5144
    24.6521  24.6712  24.7747  25.1129  25.1563  25.3197  25.6677  25.8524
    26.1925  26.2586  26.2944  26.3570  26.4616  26.5286  26.5962  26.6017
    26.6575  26.6969  26.7734  26.8523  27.1466  27.1839  27.2353  27.4010
    27.5526  27.5876  27.6296  27.8003  27.8550  27.8869  27.9723  27.9982
    28.1137  28.1834  28.2725  28.3167  28.4080  28.5004  28.6995  28.7726
    28.8942  28.9592  29.0483  29.1326  29.2933  29.3817  29.6399  29.6979
    29.7770  29.8173  30.0287  30.1270  30.2190  30.4310  30.4987  30.7650
    30.9740

     the Fermi energy is    26.4610 ev

!    total energy              =   -2737.41359057 Ry
     estimated scf accuracy    <       0.00000066 Ry
     smearing contrib. (-TS)   =      -0.09928641 Ry
     internal energy E=F+TS    =   -2737.31430416 Ry

     The total energy is F=E-TS. E is the sum of the following terms:
     one-electron contribution =   -7170.34078640 Ry
     hartree contribution      =    3785.73792738 Ry
     xc contribution           =   -1305.97378935 Ry
     ewald contribution        =    1953.26234422 Ry

     convergence has been achieved in  35 iterations

     negative rho (up, down):  7.755E-01 0.000E+00

     Forces acting on atoms (cartesian axes, Ry/au):

     atom    1 type  1   force =     0.02397481   -0.00086584   -0.04466097
     atom    2 type  1   force =     0.00408069   63.81563199    0.00208851
     atom    3 type  1   force =     0.00129570  -63.81429004    0.00052064
     atom    4 type  1   force =    73.78461548    0.00853537   97.63366108
     atom    5 type  1   force =   -73.78755886    0.00416064   97.63604196
     atom    6 type  2   force =     0.00589235  154.91833511  181.81328130
     atom    7 type  2   force =     0.00016312 -154.92776568  181.84361331
     atom    8 type  2   force =    -0.04061229    0.02741299   -0.05055007
     atom    9 type  2   force =    -0.03589290   -0.01609019    0.09149970
     atom   10 type  2   force =   126.71812248   -0.01402385  -97.67053250
     atom   11 type  2   force =  -126.72427973    0.00454503  -97.66643266
     atom   12 type  3   force =     0.04675761    0.01935972   -0.05334747
     atom   13 type  3   force =     0.02011793   -0.00047330   -0.00608104
     atom   14 type  3   force =    -0.00319080   -0.00121079 -116.33217708
     atom   15 type  3   force =    -0.00481201  149.51271527 -181.82766865
     atom   16 type  3   force =     0.00360481 -149.50775993 -181.83308182
     atom   17 type  3   force =    -0.03428164   -0.03115026   -0.06749553
     atom   18 type  3   force =   118.89082103    0.00124890    0.00437117
     atom   19 type  3   force =  -118.89415676   -0.00532917    0.00712130
     atom   20 type  3   force =   128.42673090  128.58728003   -0.00493098
     atom   21 type  3   force =   128.41634688 -128.57427618    0.01212569
     atom   22 type  3   force =  -128.41729893  128.53176581    0.00675681
     atom   23 type  3   force =  -128.43158577 -128.54374873    0.00652322
     atom   24 type  3   force =   133.95197899  133.94600016  131.34301621
     atom   25 type  3   force =   133.95994487 -133.96108423  131.37641902
     atom   26 type  3   force =  -133.97255920  133.94246151  131.36789342
     atom   27 type  3   force =  -133.94746936 -133.92826672  131.33315559
     atom   28 type  4   force =     0.02234649    0.00184630    0.08468677
     atom   29 type  4   force =     0.03931864   -0.01059415    0.07362508
     atom   30 type  4   force =     0.00168486   -0.00291614  116.32601194
     atom   31 type  4   force =    -0.03116032    0.02181844    0.08515796
     atom   32 type  4   force =   130.19981870  130.18941331 -131.38324337
     atom   33 type  4   force =   130.20493846 -130.19180855 -131.37804201
     atom   34 type  4   force =  -130.19532004  130.17447480 -131.36750779
     atom   35 type  4   force =  -130.20237619 -130.17535161 -131.36181875
     The non-local contrib.  to forces
     atom    1 type  1   force =    -0.11130598    0.14065442    0.07635186
     atom    2 type  1   force =     0.00372175  -60.47732849   -0.02571282
     atom    3 type  1   force =    -0.02001925   60.46709648   -0.00855404
     atom    4 type  1   force =   -87.87053694    0.00441612  -75.65695956
     atom    5 type  1   force =    87.88924314   -0.02244528  -75.66790908
     atom    6 type  2   force =     0.00822751  -33.96644954   -7.03541906
     atom    7 type  2   force =    -0.02763170   33.98370971   -7.04094674
     atom    8 type  2   force =     0.11167949   -0.16733021    0.08983994
     atom    9 type  2   force =     0.09421242    0.17097521   -0.08819771
     atom   10 type  2   force =   -62.10179942   -0.00491963   79.59452796
     atom   11 type  2   force =    62.10659129    0.00359773   79.60144724
     atom   12 type  3   force =     0.03245588    0.06241788   -0.03190198
     atom   13 type  3   force =    -0.00267440    0.00574044   -0.06080704
     atom   14 type  3   force =    -0.02042556    0.01441487    2.67953577
     atom   15 type  3   force =     0.00069798   -7.40252666  -17.31557850
     atom   16 type  3   force =    -0.04166680    7.36562163  -17.36140367
     atom   17 type  3   force =    -0.03685747   -0.06867196   -0.01401654
     atom   18 type  3   force =    -7.06819784    0.03014265   -0.04605532
     atom   19 type  3   force =     7.09562617   -0.03139805   -0.03567534
     atom   20 type  3   force =   -13.88429477  -13.70050250   -0.04288399
     atom   21 type  3   force =   -13.81551860   13.62508977   -0.00137536
     atom   22 type  3   force =    13.85650407  -13.67626381   -0.03546339
     atom   23 type  3   force =    13.91932804   13.73484352   -0.00798452
     atom   24 type  3   force =   -21.54823257  -21.58003147  -20.91187256
     atom   25 type  3   force =   -21.50592045   21.54340038  -20.89166489
     atom   26 type  3   force =    21.50605931  -21.55232719  -20.89079271
     atom   27 type  3   force =    21.56563771   21.61254025  -20.95450250
     atom   28 type  4   force =    -0.00201804    0.04134462    0.00535273
     atom   29 type  4   force =     0.00654671   -0.03396913    0.01060687
     atom   30 type  4   force =    -0.01106099   -0.02387407    2.10854702
     atom   31 type  4   force =    -0.00552335    0.03688147    0.02008921
     atom   32 type  4   force =   -10.18948809  -10.22403011   13.11033067
     atom   33 type  4   force =   -10.12546205   10.14858084   13.07268386
     atom   34 type  4   force =    10.15635268  -10.19975149   13.11052461
     atom   35 type  4   force =    10.18599489   10.22162968   13.11885280
     The ionic contribution  to forces
     atom    1 type  1   force =    21.41352469  -21.01631430  -21.17753583
     atom    2 type  1   force =    -0.47001766  161.79681735   -0.65665072
     atom    3 type  1   force =    -0.75555908 -161.79681735   -0.37110929
     atom    4 type  1   force =   223.79424819    0.00000000  237.00394266
     atom    5 type  1   force =  -222.70903221   -0.21365187  236.95347597
     atom    6 type  2   force =    -0.43239788  256.70811145  257.22042249
     atom    7 type  2   force =    -0.66385407 -256.45344714  256.96575818
     atom    8 type  2   force =   -23.30960356   22.76767382  -22.94233048
     atom    9 type  2   force =   -23.79039846  -23.73458921   22.66704151
     atom   10 type  2   force =   251.95308825    0.23145619 -235.96454744
     atom   11 type  2   force =  -250.77743761    0.00000000 -235.90987520
     atom   12 type  3   force =    23.22651432   22.96132391  -22.97085973
     atom   13 type  3   force =    -0.81852234   -0.00000000   -1.04195092
     atom   14 type  3   force =    -0.66385407    0.15466827 -174.40493138
     atom   15 type  3   force =    -0.43239788  256.35387464 -256.06945990
     atom   16 type  3   force =    -0.66385407 -256.60853895 -256.32412421
     atom   17 type  3   force =   -23.47472440  -22.76767382  -22.77720965
     atom   18 type  3   force =   190.71987868    0.15466827   -0.92285858
     atom   19 type  3   force =  -189.28956373   -0.15466827   -0.92285858
     atom   20 type  3   force =   257.20088677  256.24791939    0.00193088
     atom   21 type  3   force =   257.45555108 -256.50258369    0.23338707
     atom   22 type  3   force =  -256.27990044  256.44791146    0.00193088
     atom   23 type  3   force =  -256.02523613 -256.19324715    0.23338707
     atom   24 type  3   force =   347.75837419  347.76714712  328.01062443
     atom   25 type  3   force =   347.93515814 -347.76714712  327.83384048
     atom   26 type  3   force =  -346.96986439  347.92283178  327.98952514
     atom   27 type  3   force =  -346.75950749 -347.53569093  327.77916825
     atom   28 type  4   force =    21.85733536   21.90885158   20.92342293
     atom   29 type  4   force =    21.70491613  -21.90885158   21.07584216
     atom   30 type  4   force =    -0.61278837   -0.14277071  176.02040350
     atom   31 type  4   force =   -21.93403312   21.73009766   20.89708824
     atom   32 type  4   force =   309.89072901  309.69075757 -327.25912042
     atom   33 type  4   force =   310.08490461 -310.04811835 -327.45329602
     atom   34 type  4   force =  -309.16287381  309.83446649 -327.23964415
     atom   35 type  4   force =  -308.99968863 -309.83446649 -327.40282934
     The local contribution  to forces
     atom    1 type  1   force =   -21.26833047   20.86363745   21.04985090
     atom    2 type  1   force =     0.46904047  -27.88441470    0.68598084
     atom    3 type  1   force =     0.77810476   27.89498940    0.38106349
     atom    4 type  1   force =   -52.86054259    0.00487545  -56.37638522
     atom    5 type  1   force =    51.75259755    0.23964149  -56.31380692
     atom    6 type  2   force =     0.43093107  -62.56411504  -65.45556513
     atom    7 type  2   force =     0.68965732   62.28377181  -65.16520054
     atom    8 type  2   force =    23.14661335  -22.55632547   22.79302016
     atom    9 type  2   force =    23.65200047   23.53158972  -22.47799772
     atom   10 type  2   force =   -57.99528893   -0.24004748   52.30296416
     atom   11 type  2   force =    56.80720387    0.00079374   52.24576342
     atom   12 type  3   force =   -23.20713707  -22.99769355   22.94595665
     atom   13 type  3   force =     0.84221483   -0.00574679    1.09489597
     atom   14 type  3   force =     0.68095251   -0.16946628   54.33389570
     atom   15 type  3   force =     0.42736332  -98.46185777   90.34947242
     atom   16 type  3   force =     0.70874932   98.75689569   90.64348878
     atom   17 type  3   force =    23.47237604   22.79858478   22.72089410
     atom   18 type  3   force =   -63.68577449   -0.18231470    0.97106712
     atom   19 type  3   force =    62.22489985    0.17987941    0.96411945
     atom   20 type  3   force =  -113.80600204 -112.87418833    0.03468873
     atom   21 type  3   force =  -114.13882118  113.21562730   -0.22033580
     atom   22 type  3   force =   112.92107711 -113.15404589    0.03899948
     atom   23 type  3   force =   112.59030692  112.82917748   -0.21913022
     atom   24 type  3   force =  -191.11695704 -191.09998994 -174.66116772
     atom   25 type  3   force =  -191.32783242  191.12088126 -174.47125596
     atom   26 type  3   force =   190.34915739 -191.28664731 -174.63608064
     atom   27 type  3   force =   190.10478541  190.85346916 -174.39768291
     atom   28 type  4   force =   -21.83072034  -21.94347590  -20.84267053
     atom   29 type  4   force =   -21.66965591   21.92781900  -21.01093847
     atom   30 type  4   force =     0.62521776    0.16304828  -60.33354907
     atom   31 type  4   force =    21.90610063  -21.74070070  -20.82941759
     atom   32 type  4   force =  -168.00560013 -167.78118359  181.22797402
     atom   33 type  4   force =  -168.25741075  168.20959762  181.46375933
     atom   34 type  4   force =   167.31379715 -167.96340717  181.22324689
     atom   35 type  4   force =   167.11455794  167.94061251  181.38418499
     The core correction contribution to forces
     atom    1 type  1   force =    -0.00926121    0.01133786    0.00663401
     atom    2 type  1   force =     0.00176275   -9.61942369   -0.00173469
     atom    3 type  1   force =    -0.00081446    9.62027688   -0.00077740
     atom    4 type  1   force =    -9.27836504   -0.00063809   -7.33665259
     atom    5 type  1   force =     9.27949610    0.00073492   -7.33553318
     atom    6 type  2   force =    -0.00052020   -5.25959368   -2.91623145
     atom    7 type  2   force =     0.00232727    5.25862509   -2.91646102
     atom    8 type  2   force =     0.01014457   -0.01664130    0.00865541
     atom    9 type  2   force =     0.00788602    0.01619657   -0.00914103
     atom   10 type  2   force =    -5.13783604   -0.00005307    6.39681893
     atom   11 type  2   force =     5.13895589    0.00060325    6.39629437
     atom   12 type  3   force =    -0.00425796   -0.00663013    0.00320023
     atom   13 type  3   force =    -0.00052124   -0.00035791    0.00169659
     atom   14 type  3   force =     0.00054897   -0.00042506    1.05906325
     atom   15 type  3   force =     0.00004843   -0.97753934    1.20844428
     atom   16 type  3   force =     0.00087709    0.97832553    1.20916061
     atom   17 type  3   force =     0.00437369    0.00690978    0.00279076
     atom   18 type  3   force =    -1.07493851   -0.00102299    0.00193548
     atom   19 type  3   force =     1.07426832    0.00105553    0.00147928
     atom   20 type  3   force =    -1.08429703   -1.08646057    0.00088181
     atom   21 type  3   force =    -1.08532215    1.08753926    0.00031044
     atom   22 type  3   force =     1.08460483   -1.08632577    0.00100353
     atom   23 type  3   force =     1.08367361    1.08545885    0.00026781
     atom   24 type  3   force =    -1.14146315   -1.14160430   -1.09431461
     atom   25 type  3   force =    -1.14177072    1.14197225   -1.09454656
     atom   26 type  3   force =     1.14198198   -1.14187403   -1.09461074
     atom   27 type  3   force =     1.14155738    1.14160131   -1.09397528
     atom   28 type  4   force =    -0.00161549   -0.00486364   -0.00145033
     atom   29 type  4   force =    -0.00201475    0.00446079   -0.00184039
     atom   30 type  4   force =     0.00049736    0.00068335   -1.46918724
     atom   31 type  4   force =     0.00178222   -0.00464162   -0.00248726
     atom   32 type  4   force =    -1.49615065   -1.49677444    1.53812610
     atom   33 type  4   force =    -1.49743443    1.49804790    1.53914870
     atom   34 type  4   force =     1.49715211   -1.49745431    1.53876220
     atom   35 type  4   force =     1.49652883    1.49677504    1.53816106
     The Hubbard contrib.    to forces
     atom    1 type  1   force =     0.00000000    0.00000000    0.00000000
     atom    2 type  1   force =     0.00000000    0.00000000    0.00000000
     atom    3 type  1   force =     0.00000000    0.00000000    0.00000000
     atom    4 type  1   force =     0.00000000    0.00000000    0.00000000
     atom    5 type  1   force =     0.00000000    0.00000000    0.00000000
     atom    6 type  2   force =     0.00000000    0.00000000    0.00000000
     atom    7 type  2   force =     0.00000000    0.00000000    0.00000000
     atom    8 type  2   force =     0.00000000    0.00000000    0.00000000
     atom    9 type  2   force =     0.00000000    0.00000000    0.00000000
     atom   10 type  2   force =     0.00000000    0.00000000    0.00000000
     atom   11 type  2   force =     0.00000000    0.00000000    0.00000000
     atom   12 type  3   force =     0.00000000    0.00000000    0.00000000
     atom   13 type  3   force =     0.00000000    0.00000000    0.00000000
     atom   14 type  3   force =     0.00000000    0.00000000    0.00000000
     atom   15 type  3   force =     0.00000000    0.00000000    0.00000000
     atom   16 type  3   force =     0.00000000    0.00000000    0.00000000
     atom   17 type  3   force =     0.00000000    0.00000000    0.00000000
     atom   18 type  3   force =     0.00000000    0.00000000    0.00000000
     atom   19 type  3   force =     0.00000000    0.00000000    0.00000000
     atom   20 type  3   force =     0.00000000    0.00000000    0.00000000
     atom   21 type  3   force =     0.00000000    0.00000000    0.00000000
     atom   22 type  3   force =     0.00000000    0.00000000    0.00000000
     atom   23 type  3   force =     0.00000000    0.00000000    0.00000000
     atom   24 type  3   force =     0.00000000    0.00000000    0.00000000
     atom   25 type  3   force =     0.00000000    0.00000000    0.00000000
     atom   26 type  3   force =     0.00000000    0.00000000    0.00000000
     atom   27 type  3   force =     0.00000000    0.00000000    0.00000000
     atom   28 type  4   force =     0.00000000    0.00000000    0.00000000
     atom   29 type  4   force =     0.00000000    0.00000000    0.00000000
     atom   30 type  4   force =     0.00000000    0.00000000    0.00000000
     atom   31 type  4   force =     0.00000000    0.00000000    0.00000000
     atom   32 type  4   force =     0.00000000    0.00000000    0.00000000
     atom   33 type  4   force =     0.00000000    0.00000000    0.00000000
     atom   34 type  4   force =     0.00000000    0.00000000    0.00000000
     atom   35 type  4   force =     0.00000000    0.00000000    0.00000000
     The SCF correction term to forces
     atom    1 type  1   force =    -0.00060520   -0.00013852    0.00002760
     atom    2 type  1   force =    -0.00037962    0.00002427    0.00019541
     atom    3 type  1   force =    -0.00036926    0.00020729   -0.00011261
     atom    4 type  1   force =    -0.00014114   -0.00007536   -0.00029470
     atom    5 type  1   force =     0.00018358   -0.00007588   -0.00019532
     atom    6 type  2   force =    -0.00030113    0.00042468    0.00006396
     atom    7 type  2   force =    -0.00028870   -0.00038240    0.00045294
     atom    8 type  2   force =     0.00060086    0.00007891    0.00025441
     atom    9 type  2   force =     0.00045366   -0.00021973   -0.00021583
     atom   10 type  2   force =     0.00000563   -0.00041711   -0.00030660
     atom   11 type  2   force =     0.00045384   -0.00040693   -0.00007297
     atom   12 type  3   force =    -0.00077055   -0.00001564    0.00024687
     atom   13 type  3   force =    -0.00033190   -0.00006629    0.00007387
     atom   14 type  3   force =    -0.00036564   -0.00035984    0.00024910
     atom   15 type  3   force =    -0.00047686    0.00080714   -0.00055744
     atom   16 type  3   force =    -0.00045373   -0.00002108   -0.00021383
     atom   17 type  3   force =     0.00059751   -0.00025628    0.00003530
     atom   18 type  3   force =    -0.00009981   -0.00018159    0.00027199
     atom   19 type  3   force =     0.00065963   -0.00015504    0.00004600
     atom   20 type  3   force =     0.00048497    0.00055479    0.00044109
     atom   21 type  3   force =     0.00050474    0.00009394    0.00012884
     atom   22 type  3   force =     0.00046250    0.00053257    0.00027581
     atom   23 type  3   force =     0.00038881    0.00006130   -0.00002741
     atom   24 type  3   force =     0.00030457    0.00052150   -0.00026384
     atom   25 type  3   force =     0.00035733   -0.00014825    0.00003547
     atom   26 type  3   force =     0.00015352    0.00052102   -0.00015813
     atom   27 type  3   force =     0.00010464   -0.00014376    0.00013755
     atom   28 type  4   force =    -0.00058799    0.00003238    0.00002147
     atom   29 type  4   force =    -0.00042653   -0.00001047   -0.00005557
     atom   30 type  4   force =    -0.00013389    0.00003977   -0.00021276
     atom   31 type  4   force =     0.00056032    0.00022438   -0.00012513
     atom   32 type  4   force =     0.00037557    0.00068664   -0.00056424
     atom   33 type  4   force =     0.00038810    0.00012620   -0.00034838
     atom   34 type  4   force =     0.00029883    0.00066403   -0.00040782
     atom   35 type  4   force =     0.00027779    0.00014039   -0.00019875

     Total force =   958.571796     Total SCF correction =     0.003509

     BFGS Geometry Optimization
     Energy error            =      0.0E+00 Ry
     Gradient error          =      1.8E+02 Ry/Bohr

     number of scf cycles    =   1
     number of bfgs steps    =   0

     energy             new  =   -2737.4135905718 Ry

     new trust radius        =       0.5000000000 bohr
     new conv_thr            =       0.0000010000 Ry


ATOMIC_POSITIONS (angstrom)
Hf            1.8700265106        5.2099989120        5.2099504062
Hf            3.5400044336        0.2706798095        3.5400022272
Hf            3.5400013491        6.8093215048        3.5400004906
Hf            0.2817210831        3.5400093675        0.3081353949
Hf            6.7982754849        3.5400045222        0.3081380319
Ta            3.5400064401        0.3715817594        0.4013695969
Ta            3.5400000947        6.7084076236        0.4014031915
Ta            5.2099548903        1.8700303186        5.2099438836
Ta            5.2099601174        5.2099820501        1.8701012987
Ta            0.3403482576        3.5399843817        6.7718235957
Ta            6.7396447509        3.5400049479        6.7718281365
Nb            1.8700517440        1.8700213991        5.2099407853
Nb            3.5400221959        3.5399993898        3.5399931789
Nb            3.5399963800        3.5399985730        6.7511546554
Nb            3.5399945844        0.3655946969        6.6786142962
Nb            3.5400039066        6.7144106195        6.6786083008
Nb            5.2099619019        5.2099653701        5.2099251155
Nb            0.3316790310        3.5400012972        3.5400047553
Nb            6.7483171025        3.5399940116        3.5400078013
Nb            0.3422406484        0.3424184667        3.5399944526
Nb            0.3422291475        6.7375957639        3.5400133440
Nb            6.7377696260        0.3423569812        3.5400073976
Nb            6.7377538025        6.7376295750        3.5400071389
Nb            0.3483602068        0.3483535849        0.3454706171
Nb            0.3483690295        6.7316295366        0.3455076128
Nb            6.7316168273        0.3483496656        0.3454981702
Nb            6.7316446159        6.7316658840        0.3454596958
Zr            1.8700247071        1.8700020019        1.8700937529
Zr            1.8700435049        5.2099881373        1.8700815014
Zr            3.5400017801        3.5399966842        0.3288383443
Zr            5.2099653590        1.8700241223        1.8700942748
Zr            0.3442044542        0.3441929296        6.7344846568
Zr            0.3442101247        6.7358042455        6.7344904176
Zr            6.7358003563        0.3441763843        6.7345020849
Zr            6.7357925412        6.7358224726        6.7345083859



     Writing config-only to output data dir outdir/pwscf.save/
     NEW-OLD atomic charge density approx. for the potential

     negative rho (up, down):  9.902E-01 0.000E+00

     total cpu time spent up to now is     1406.8 secs

     Self-consistent Calculation

     iteration #  1     ecut=   120.00 Ry     beta= 0.70
     Davidson diagonalization with overlap
     c_bands:  2 eigenvalues not converged
     ethr =  1.00E-06,  avg # of iterations = 20.0

     negative rho (up, down):  8.762E-01 0.000E+00

     total cpu time spent up to now is     1534.5 secs

     total energy              =   -3225.71005697 Ry
     estimated scf accuracy    <     806.57824203 Ry

     iteration #  2     ecut=   120.00 Ry     beta= 0.70
     Davidson diagonalization with overlap
     ethr =  1.00E-02,  avg # of iterations = 16.0

     negative rho (up, down):  6.860E-01 0.000E+00

     total cpu time spent up to now is     1688.0 secs

     total energy              =   -1862.79677413 Ry
     estimated scf accuracy    <   21161.97115511 Ry

     iteration #  3     ecut=   120.00 Ry     beta= 0.70
     Davidson diagonalization with overlap
     ethr =  1.00E-02,  avg # of iterations = 11.0

     negative rho (up, down):  6.701E-01 0.000E+00

     total cpu time spent up to now is     1778.8 secs

     total energy              =   -3732.37585321 Ry
     estimated scf accuracy    <     769.18468368 Ry

     iteration #  4     ecut=   120.00 Ry     beta= 0.70
     Davidson diagonalization with overlap
     ethr =  1.00E-02,  avg # of iterations =  7.0

     negative rho (up, down):  6.833E-01 0.000E+00

     total cpu time spent up to now is     1823.4 secs

     total energy              =   -3796.27650322 Ry
     estimated scf accuracy    <     139.46928197 Ry

     iteration #  5     ecut=   120.00 Ry     beta= 0.70
     Davidson diagonalization with overlap
     ethr =  1.00E-02,  avg # of iterations =  5.0

     negative rho (up, down):  7.475E-01 0.000E+00

     total cpu time spent up to now is     1858.9 secs

     total energy              =   -3813.33467994 Ry
     estimated scf accuracy    <      43.32894480 Ry

     iteration #  6     ecut=   120.00 Ry     beta= 0.70
     Davidson diagonalization with overlap
     ethr =  9.80E-03,  avg # of iterations =  2.0

     negative rho (up, down):  8.695E-01 0.000E+00

     total cpu time spent up to now is     1888.3 secs

     total energy              =   -3814.75144461 Ry
     estimated scf accuracy    <      19.22483426 Ry

     iteration #  7     ecut=   120.00 Ry     beta= 0.70
     Davidson diagonalization with overlap
     ethr =  4.35E-03,  avg # of iterations =  3.0

     negative rho (up, down):  8.877E-01 0.000E+00

     total cpu time spent up to now is     1918.0 secs

     total energy              =   -3815.41606633 Ry
     estimated scf accuracy    <      23.13719076 Ry

     iteration #  8     ecut=   120.00 Ry     beta= 0.70
     Davidson diagonalization with overlap
     ethr =  4.35E-03,  avg # of iterations =  2.0

     negative rho (up, down):  8.983E-01 0.000E+00

     total cpu time spent up to now is     1946.6 secs

     total energy              =   -3817.28899105 Ry
     estimated scf accuracy    <       3.62577036 Ry

     iteration #  9     ecut=   120.00 Ry     beta= 0.70
     Davidson diagonalization with overlap
     ethr =  8.20E-04,  avg # of iterations =  3.0

     negative rho (up, down):  9.159E-01 0.000E+00

     total cpu time spent up to now is     1977.6 secs

     total energy              =   -3817.38411725 Ry
     estimated scf accuracy    <       7.59803936 Ry

     iteration # 10     ecut=   120.00 Ry     beta= 0.70
     Davidson diagonalization with overlap
     ethr =  8.20E-04,  avg # of iterations =  2.0

     negative rho (up, down):  9.493E-01 0.000E+00

     total cpu time spent up to now is     2006.3 secs

     total energy              =   -3817.68735815 Ry
     estimated scf accuracy    <       1.96916939 Ry

     iteration # 11     ecut=   120.00 Ry     beta= 0.70
     Davidson diagonalization with overlap
     ethr =  4.46E-04,  avg # of iterations =  2.0

     negative rho (up, down):  9.730E-01 0.000E+00

     total cpu time spent up to now is     2034.9 secs

     total energy              =   -3817.78214895 Ry
     estimated scf accuracy    <       0.63173801 Ry

     iteration # 12     ecut=   120.00 Ry     beta= 0.70
     Davidson diagonalization with overlap
     ethr =  1.43E-04,  avg # of iterations =  2.0

     negative rho (up, down):  9.776E-01 0.000E+00

     total cpu time spent up to now is     2064.9 secs

     total energy              =   -3817.79274089 Ry
     estimated scf accuracy    <       0.64104311 Ry

     iteration # 13     ecut=   120.00 Ry     beta= 0.70
     Davidson diagonalization with overlap
     ethr =  1.43E-04,  avg # of iterations =  2.0

     negative rho (up, down):  9.769E-01 0.000E+00

     total cpu time spent up to now is     2094.6 secs

     total energy              =   -3817.82890212 Ry
     estimated scf accuracy    <       0.33775442 Ry

     iteration # 14     ecut=   120.00 Ry     beta= 0.70
     Davidson diagonalization with overlap
     ethr =  7.64E-05,  avg # of iterations =  2.0

     negative rho (up, down):  9.782E-01 0.000E+00

     total cpu time spent up to now is     2123.1 secs

     total energy              =   -3817.84236669 Ry
     estimated scf accuracy    <       0.17055204 Ry

     iteration # 15     ecut=   120.00 Ry     beta= 0.70
     Davidson diagonalization with overlap
     ethr =  3.86E-05,  avg # of iterations =  3.0

     negative rho (up, down):  9.792E-01 0.000E+00

     total cpu time spent up to now is     2152.2 secs

     total energy              =   -3817.84960433 Ry
     estimated scf accuracy    <       0.15950221 Ry

     iteration # 16     ecut=   120.00 Ry     beta= 0.70
     Davidson diagonalization with overlap
     ethr =  3.61E-05,  avg # of iterations =  2.0

     negative rho (up, down):  9.830E-01 0.000E+00

     total cpu time spent up to now is     2182.4 secs

     total energy              =   -3817.85949874 Ry
     estimated scf accuracy    <       0.01153353 Ry

     iteration # 17     ecut=   120.00 Ry     beta= 0.70
     Davidson diagonalization with overlap
     ethr =  2.61E-06,  avg # of iterations = 13.0

     negative rho (up, down):  9.828E-01 0.000E+00

     total cpu time spent up to now is     2218.9 secs

     total energy              =   -3817.85603192 Ry
     estimated scf accuracy    <       0.07888313 Ry

     iteration # 18     ecut=   120.00 Ry     beta= 0.70
     Davidson diagonalization with overlap
     ethr =  2.61E-06,  avg # of iterations =  3.0

     negative rho (up, down):  9.831E-01 0.000E+00

     total cpu time spent up to now is     2251.9 secs

     total energy              =   -3817.86119582 Ry
     estimated scf accuracy    <       0.00678751 Ry

     iteration # 19     ecut=   120.00 Ry     beta= 0.70
     Davidson diagonalization with overlap
     ethr =  1.54E-06,  avg # of iterations =  2.0

     negative rho (up, down):  9.834E-01 0.000E+00

     total cpu time spent up to now is     2282.0 secs

     total energy              =   -3817.86163688 Ry
     estimated scf accuracy    <       0.00319388 Ry

     iteration # 20     ecut=   120.00 Ry     beta= 0.70
     Davidson diagonalization with overlap
     ethr =  7.23E-07,  avg # of iterations =  2.0

     negative rho (up, down):  9.836E-01 0.000E+00

     total cpu time spent up to now is     2312.2 secs

     total energy              =   -3817.86158614 Ry
     estimated scf accuracy    <       0.00633895 Ry

     iteration # 21     ecut=   120.00 Ry     beta= 0.70
     Davidson diagonalization with overlap
     ethr =  7.23E-07,  avg # of iterations =  2.0

     negative rho (up, down):  9.839E-01 0.000E+00

     total cpu time spent up to now is     2342.4 secs

     total energy              =   -3817.86196395 Ry
     estimated scf accuracy    <       0.00104164 Ry

     iteration # 22     ecut=   120.00 Ry     beta= 0.70
     Davidson diagonalization with overlap
     ethr =  2.36E-07,  avg # of iterations =  2.0

     negative rho (up, down):  9.840E-01 0.000E+00

     total cpu time spent up to now is     2372.4 secs

     total energy              =   -3817.86199322 Ry
     estimated scf accuracy    <       0.00074079 Ry

     iteration # 23     ecut=   120.00 Ry     beta= 0.70
     Davidson diagonalization with overlap
     ethr =  1.68E-07,  avg # of iterations =  2.0

     negative rho (up, down):  9.841E-01 0.000E+00

     total cpu time spent up to now is     2402.1 secs

     total energy              =   -3817.86204810 Ry
     estimated scf accuracy    <       0.00017609 Ry

     iteration # 24     ecut=   120.00 Ry     beta= 0.70
     Davidson diagonalization with overlap
     ethr =  3.98E-08,  avg # of iterations =  2.0

     negative rho (up, down):  9.841E-01 0.000E+00

     total cpu time spent up to now is     2433.9 secs

     total energy              =   -3817.86205832 Ry
     estimated scf accuracy    <       0.00005651 Ry

     iteration # 25     ecut=   120.00 Ry     beta= 0.70
     Davidson diagonalization with overlap
     ethr =  1.28E-08,  avg # of iterations =  2.0

     negative rho (up, down):  9.842E-01 0.000E+00

     total cpu time spent up to now is     2464.4 secs

     total energy              =   -3817.86205974 Ry
     estimated scf accuracy    <       0.00007239 Ry

     iteration # 26     ecut=   120.00 Ry     beta= 0.70
     Davidson diagonalization with overlap
     ethr =  1.28E-08,  avg # of iterations =  2.0

     negative rho (up, down):  9.842E-01 0.000E+00

     total cpu time spent up to now is     2494.8 secs

     total energy              =   -3817.86206290 Ry
     estimated scf accuracy    <       0.00004709 Ry

     iteration # 27     ecut=   120.00 Ry     beta= 0.70
     Davidson diagonalization with overlap
     ethr =  1.07E-08,  avg # of iterations =  2.0

     negative rho (up, down):  9.842E-01 0.000E+00

     total cpu time spent up to now is     2523.6 secs

     total energy              =   -3817.86206366 Ry
     estimated scf accuracy    <       0.00005111 Ry

     iteration # 28     ecut=   120.00 Ry     beta= 0.70
     Davidson diagonalization with overlap
     ethr =  1.07E-08,  avg # of iterations =  1.0

     negative rho (up, down):  9.842E-01 0.000E+00

     total cpu time spent up to now is     2549.3 secs

     total energy              =   -3817.86206672 Ry
     estimated scf accuracy    <       0.00000379 Ry

     iteration # 29     ecut=   120.00 Ry     beta= 0.70
     Davidson diagonalization with overlap
     ethr =  8.58E-10,  avg # of iterations =  2.0

     negative rho (up, down):  9.842E-01 0.000E+00

     total cpu time spent up to now is     2578.8 secs

     total energy              =   -3817.86206706 Ry
     estimated scf accuracy    <       0.00000294 Ry

     iteration # 30     ecut=   120.00 Ry     beta= 0.70
     Davidson diagonalization with overlap
     ethr =  6.64E-10,  avg # of iterations =  2.0

     negative rho (up, down):  9.842E-01 0.000E+00

     total cpu time spent up to now is     2607.2 secs

     total energy              =   -3817.86206718 Ry
     estimated scf accuracy    <       0.00000130 Ry

     iteration # 31     ecut=   120.00 Ry     beta= 0.70
     Davidson diagonalization with overlap
     ethr =  2.94E-10,  avg # of iterations =  2.0

     negative rho (up, down):  9.842E-01 0.000E+00

     total cpu time spent up to now is     2636.2 secs

     total energy              =   -3817.86206723 Ry
     estimated scf accuracy    <       0.00000145 Ry

     iteration # 32     ecut=   120.00 Ry     beta= 0.70
     Davidson diagonalization with overlap
     ethr =  2.94E-10,  avg # of iterations =  2.0

     negative rho (up, down):  9.842E-01 0.000E+00

     total cpu time spent up to now is     2664.3 secs

     End of self-consistent calculation

          k = 0.0000 0.0000 0.0000 ( 30123 PWs)   bands (ev):

  -156.9323-123.7905-102.9727-100.6210 -93.5893 -92.6652 -92.6177 -91.3690
   -88.4419 -87.4142 -69.7673 -69.1318 -68.2253 -64.5336 -64.5185 -63.8074
   -62.2571 -60.1055 -57.0375 -56.2236 -55.8103 -55.7980 -55.5666 -48.9639
   -48.7257 -45.6757 -44.2818 -42.8969 -41.4114 -40.6546 -40.5689 -40.0299
   -40.0109 -39.9645 -34.7207 -32.2950 -30.2616 -28.7432 -28.6598 -28.1490
   -28.0274 -27.3569 -27.2745 -27.1107 -27.0723 -26.2133 -25.1600 -24.8521
   -24.2820 -22.0037 -21.4358 -21.3940 -21.3601 -21.1672 -21.1556 -21.0806
   -20.2627 -20.2470 -18.3736 -18.3436 -18.2762 -17.4398 -17.4143 -17.0571
   -16.7753 -15.8634 -14.5944 -13.4826 -11.4339 -11.3605 -11.1768 -11.1373
   -10.8824 -10.7104  -9.0884  -7.9130  -7.2894  -7.2313  -7.1918  -7.1803
    -7.1618  -7.0570  -6.1628  -5.1595  -5.1144  -4.9610  -3.6958  -3.6268
    -3.6014  -3.5553  -3.5428  -3.5262  -3.4952  -3.4769  -3.4619  -3.4451
    -3.4016  -2.9691  -2.5371  -2.3981  -2.3750  -2.3272  -2.2547  -1.8608
    -1.1258   0.2916   0.3288   0.3410   0.3495   0.3854   0.3929   0.4443
     0.5102   0.5260   1.6618   2.2693   2.2770   2.2949   2.7595   2.8502
     2.8960   3.2268   4.1308   4.2329   4.3049   4.6886   4.8510   6.3147
     6.5580   6.5865   6.9640   6.9928   7.0063   7.0388   7.4690   8.0593
     8.3773   8.5024  10.8007  11.7257  11.7362  11.7685  11.7957  13.1570
    13.4754  15.0932  15.7211  15.7472  15.8216  16.7657  16.7970  16.8040
    16.9449  17.3720  17.6238  19.0446  19.0818  19.4235  19.5292  19.8295
    20.0524  20.1383  20.2118  20.2734  20.3139  20.7519  21.2494  21.3369
    21.3768  21.4117  21.4516  21.5090  21.5121  21.6999  21.7690  21.7894
    22.3849  22.4869  22.6374  22.6607  22.8019  22.8705  22.9694  23.0328
    23.1289  23.2546  23.3435  23.4501  23.5426  23.6305  24.1213  24.2236
    24.3950  24.4509  24.5226  24.5343  24.9852  25.1730  25.3613  25.5128
    25.7157  26.0292  26.0700  26.1074  26.3189  26.3489  26.3814  26.5119
    26.6488  26.6643  26.9202  27.0909  27.1378  27.2056  27.4719  27.5092
    27.5494  27.6496  27.7012  27.8293  27.8694  27.9476  27.9845  28.0854
    28.1032  28.2503  28.2776  28.5055  28.5898  28.6657  28.7791  28.8055
    28.8577  28.8989  28.9641  28.9935  29.0777  29.1212  29.1812  29.4416
    29.5560  29.6629  29.8203  29.9651  30.0106  30.1499  30.2308  30.2342
    30.3410  30.3606  30.4995  30.6181  30.6834  30.7379  30.7639  31.0647
    31.3492  31.4692  31.5002  31.7448  31.8263  32.0084  32.0218  32.2135
    32.2479

     the Fermi energy is    27.9002 ev

!    total energy              =   -3817.86206704 Ry
     estimated scf accuracy    <       0.00000036 Ry
     smearing contrib. (-TS)   =      -0.09108428 Ry
     internal energy E=F+TS    =   -3817.77098276 Ry

     The total energy is F=E-TS. E is the sum of the following terms:
     one-electron contribution =   -4123.43399088 Ry
     hartree contribution      =    2366.28729980 Ry
     xc contribution           =   -1206.58053000 Ry
     ewald contribution        =    -854.04376169 Ry

     convergence has been achieved in  32 iterations

     negative rho (up, down):  9.842E-01 0.000E+00

     Forces acting on atoms (cartesian axes, Ry/au):

     atom    1 type  1   force =     0.02862516   -0.03536561   -0.07435444
     atom    2 type  1   force =     0.00335360   49.82342012    0.02141590
     atom    3 type  1   force =    -0.00337852  -49.82436828    0.01435745
     atom    4 type  1   force =    57.98199990   -0.01018292   58.12740857
     atom    5 type  1   force =   -57.97574700    0.02256426   58.12218612
     atom    6 type  2   force =    -0.00916105   36.71022817   33.52409703
     atom    7 type  2   force =     0.02014775  -36.72532636   33.52606532
     atom    8 type  2   force =    -0.03776682    0.04342016   -0.08852093
     atom    9 type  2   force =    -0.04784517   -0.03704983    0.08927439
     atom   10 type  2   force =    56.47867779   -0.00203105  -58.12909383
     atom   11 type  2   force =   -56.49108976   -0.00698114  -58.13969869
     atom   12 type  3   force =     0.02950471    0.02381476   -0.09209385
     atom   13 type  3   force =     0.01851545    0.00178135    0.02990042
     atom   14 type  3   force =    -0.00588041    0.00254148  -37.67724628
     atom   15 type  3   force =     0.00454443   32.37415716  -33.55991029
     atom   16 type  3   force =     0.00583238  -32.36374202  -33.53835496
     atom   17 type  3   force =    -0.03066612   -0.03163033   -0.09412487
     atom   18 type  3   force =    37.81345457   -0.00398577   -0.00093986
     atom   19 type  3   force =   -37.79163672    0.00293198    0.00120023
     atom   20 type  3   force =    36.18335513   36.17742899    0.00272445
     atom   21 type  3   force =    36.16853964  -36.16713414    0.01895753
     atom   22 type  3   force =   -36.17428056   36.18325633    0.02109276
     atom   23 type  3   force =   -36.19048012  -36.19435651    0.00395694
     atom   24 type  3   force =    34.81813819   34.84827189   34.94491995
     atom   25 type  3   force =    34.80177470  -34.85735085   34.95790672
     atom   26 type  3   force =   -34.80393276   34.84493419   34.93935557
     atom   27 type  3   force =   -34.82117485  -34.87585887   34.97200554
     atom   28 type  4   force =     0.02546229    0.03172794    0.07197514
     atom   29 type  4   force =     0.04339273   -0.03501473    0.07099186
     atom   30 type  4   force =    -0.00390940   -0.00439012   37.68770311
     atom   31 type  4   force =    -0.03980711    0.04261640    0.07846046
     atom   32 type  4   force =    35.52009750   35.60634189  -34.96308745
     atom   33 type  4   force =    35.51432609  -35.57509135  -34.95340798
     atom   34 type  4   force =   -35.51690663   35.59277909  -34.97201923
     atom   35 type  4   force =   -35.51607903  -35.58235628  -34.94310276
     The non-local contrib.  to forces
     atom    1 type  1   force =    -0.07811049    0.11010372    0.05606587
     atom    2 type  1   force =     0.00376285  -26.63507047   -0.00652152
     atom    3 type  1   force =    -0.02135605   26.62359488    0.01095613
     atom    4 type  1   force =   -21.77182530   -0.00962714  -18.13233416
     atom    5 type  1   force =    21.83156522   -0.00855977  -18.16823229
     atom    6 type  2   force =     0.00368915  -14.43109119   -7.91105753
     atom    7 type  2   force =    -0.01591815   14.45754713   -7.94346875
     atom    8 type  2   force =     0.07647319   -0.14123197    0.05714070
     atom    9 type  2   force =     0.10112745    0.13809551   -0.06773959
     atom   10 type  2   force =   -17.34683148    0.02493895   19.94350971
     atom   11 type  2   force =    17.37420995   -0.00737609   19.94718839
     atom   12 type  3   force =     0.02422387   -0.02371333    0.01049531
     atom   13 type  3   force =    -0.00944341    0.01010136   -0.09870030
     atom   14 type  3   force =    -0.01308971    0.01987876    2.01213086
     atom   15 type  3   force =     0.00149720   -1.76755120   -4.51403496
     atom   16 type  3   force =    -0.04203352    1.72198602   -4.54572239
     atom   17 type  3   force =    -0.01234220    0.00997310    0.00572272
     atom   18 type  3   force =    -2.68610441    0.02155993   -0.03830525
     atom   19 type  3   force =     2.71941936   -0.02395170   -0.03880402
     atom   20 type  3   force =    -3.63345776   -3.63663642   -0.04347948
     atom   21 type  3   force =    -3.63006303    3.62761679   -0.02117048
     atom   22 type  3   force =     3.63006094   -3.64471038   -0.03400233
     atom   23 type  3   force =     3.62890424    3.64725752   -0.02124853
     atom   24 type  3   force =    -4.67728038   -4.66818410   -4.30723673
     atom   25 type  3   force =    -4.67894059    4.65909592   -4.30474290
     atom   26 type  3   force =     4.66182458   -4.64811671   -4.30436446
     atom   27 type  3   force =     4.68622988    4.68488694   -4.32793348
     atom   28 type  4   force =     0.00459470   -0.04693814    0.00598411
     atom   29 type  4   force =    -0.00494804    0.05678933    0.00033841
     atom   30 type  4   force =    -0.01715966   -0.01753882    0.75177429
     atom   31 type  4   force =    -0.00626173   -0.04861630    0.00240886
     atom   32 type  4   force =    -0.42617176   -0.47836510    1.72441710
     atom   33 type  4   force =    -0.37957032    0.45560563    1.67681397
     atom   34 type  4   force =     0.38974535   -0.46799588    1.69309059
     atom   35 type  4   force =     0.39593477    0.48647207    1.71359403
     The ionic contribution  to forces
     atom    1 type  1   force =    19.82994047  -19.80818479  -19.79125132
     atom    2 type  1   force =    -0.44880622  110.47055573   -0.65565881
     atom    3 type  1   force =    -0.79261397 -110.47048161   -0.31297019
     atom    4 type  1   force =   133.01576734   -0.00390895  133.57045828
     atom    5 type  1   force =  -131.93022958   -0.27978483  133.49154330
     atom    6 type  2   force =    -0.39813301  108.11913681  100.12501506
     atom    7 type  2   force =    -0.76989732 -107.72755484   99.75457530
     atom    8 type  2   force =   -21.59318256   21.45759085  -21.43995194
     atom    9 type  2   force =   -22.25218741  -22.82608846   21.15682204
     atom   10 type  2   force =   134.94041277    0.32164728 -132.53849119
     atom   11 type  2   force =  -133.78324376   -0.00727623 -132.43908751
     atom   12 type  3   force =    21.51012978   21.65194195  -21.46864103
     atom   13 type  3   force =    -0.81975695    0.00002214   -1.14242696
     atom   14 type  3   force =    -0.68061906    0.21167780  -89.87374421
     atom   15 type  3   force =    -0.40184912  108.74168546  -98.97215539
     atom   16 type  3   force =    -0.76559394 -109.13374166  -99.33318056
     atom   17 type  3   force =   -21.75873271  -21.45753635  -21.27410460
     atom   18 type  3   force =    98.08445145    0.21327048   -0.91686071
     atom   19 type  3   force =   -96.69209619   -0.21314516   -0.91638484
     atom   20 type  3   force =   125.25126141  124.35854482    0.11226177
     atom   21 type  3   force =   125.60165871 -124.70920335    0.45838222
     atom   22 type  3   force =  -124.43747831  124.61383884    0.11617366
     atom   23 type  3   force =  -124.08615043 -124.26307723    0.45600793
     atom   24 type  3   force =   162.62526621  162.30629406  153.61817873
     atom   25 type  3   force =   162.85898292 -162.30657929  153.38953139
     atom   26 type  3   force =  -161.92013677  162.50977168  153.59236062
     atom   27 type  3   force =  -161.59153878 -161.94925291  153.26100121
     atom   28 type  4   force =    20.43815698   21.07086588   19.52973339
     atom   29 type  4   force =    20.28516166  -21.07081278   19.68289897
     atom   30 type  4   force =    -0.62742353   -0.19513652   91.63544427
     atom   31 type  4   force =   -20.51454807   20.89140394   19.50343861
     atom   32 type  4   force =   145.59329782  144.99975370 -152.98135664
     atom   33 type  4   force =   145.89500382 -145.51600915 -153.27806033
     atom   34 type  4   force =  -144.93911994  145.18817815 -152.95070512
     atom   35 type  4   force =  -144.72615375 -145.18840546 -153.16879541
     The local contribution  to forces
     atom    1 type  1   force =   -19.71729497   19.65648117   19.65249842
     atom    2 type  1   force =     0.44759376  -28.61787495    0.68286102
     atom    3 type  1   force =     0.81029943   28.62788103    0.31527813
     atom    4 type  1   force =   -48.60323224    0.00134006  -54.03579473
     atom    5 type  1   force =    47.46561427    0.31337543  -53.92662882
     atom    6 type  2   force =     0.38421111  -55.64226862  -57.64597668
     atom    7 type  2   force =     0.80206500   55.21200450  -57.24323070
     atom    8 type  2   force =    21.47317291  -21.26657428   21.28879120
     atom    9 type  2   force =    22.09737105   22.65289826  -20.99636738
     atom   10 type  2   force =   -59.17780202   -0.34914163   51.82088511
     atom   11 type  2   force =    57.98140727    0.00698817   51.70859171
     atom   12 type  3   force =   -21.50236419  -21.60387727   21.36634886
     atom   13 type  3   force =     0.84873316   -0.00809133    1.26569942
     atom   14 type  3   force =     0.68760853   -0.22867812   49.73321812
     atom   15 type  3   force =     0.40526746  -74.27464979   69.73738823
     atom   16 type  3   force =     0.81205840   74.72132679   70.15048693
     atom   17 type  3   force =    21.73892622   21.41408327   21.17384834
     atom   18 type  3   force =   -57.15404325   -0.23810648    0.95191334
     atom   19 type  3   force =    55.75008475    0.23871209    0.95398702
     atom   20 type  3   force =   -85.02810193  -84.13765131   -0.06786230
     atom   21 type  3   force =   -85.39608199   84.50753078   -0.41984241
     atom   22 type  3   force =    84.22557954  -84.37970687   -0.06268457
     atom   23 type  3   force =    83.85955520   84.01635102   -0.43222656
     atom   24 type  3   force =  -122.74099514 -122.39791959 -113.96515539
     atom   25 type  3   force =  -122.98987413  122.39816225 -113.72578966
     atom   26 type  3   force =   122.06448722 -122.62465520 -113.94790775
     atom   27 type  3   force =   121.69471136  121.99700651 -113.56048551
     atom   28 type  4   force =   -20.41554743  -20.99349023  -19.46250523
     atom   29 type  4   force =   -20.23581965   20.98094365  -19.61131352
     atom   30 type  4   force =     0.64010074    0.20759858  -54.09544525
     atom   31 type  4   force =    20.47968620  -20.80127485  -19.42614599
     atom   32 type  4   force =  -109.11310824 -108.38074509  115.76401496
     atom   33 type  4   force =  -109.46581553  108.95113370  116.11690110
     atom   34 type  4   force =   108.49658053 -108.59294810  115.75491810
     atom   35 type  4   force =   108.27824504  108.58616008  115.98227254
     The core correction contribution to forces
     atom    1 type  1   force =    -0.00627727    0.00631877    0.00836468
     atom    2 type  1   force =     0.00112783   -5.39399046    0.00061443
     atom    3 type  1   force =     0.00051490    5.39498553    0.00084706
     atom    4 type  1   force =    -4.65919124    0.00201075   -3.27437629
     atom    5 type  1   force =     4.65721326   -0.00246701   -3.27393337
     atom    6 type  2   force =     0.00147643   -1.33499592   -1.04328361
     atom    7 type  2   force =     0.00430730    1.33244604   -1.04100350
     atom    8 type  2   force =     0.00619546   -0.00653997    0.00542201
     atom    9 type  2   force =     0.00645371   -0.00215218   -0.00355632
     atom   10 type  2   force =    -1.93769760    0.00045065    2.64587427
     atom   11 type  2   force =     1.93645996    0.00042768    2.64447309
     atom   12 type  3   force =    -0.00271215   -0.00066955   -0.00034420
     atom   13 type  3   force =    -0.00055516   -0.00062845    0.00475188
     atom   14 type  3   force =     0.00058004   -0.00066138    0.45182805
     atom   15 type  3   force =     0.00014073   -0.32461601    0.18870977
     atom   16 type  3   force =     0.00166964    0.32677375    0.19010205
     atom   17 type  3   force =     0.00194425    0.00180353    0.00040716
     atom   18 type  3   force =    -0.43140739   -0.00089473    0.00174542
     atom   19 type  3   force =     0.43081911    0.00097494    0.00183664
     atom   20 type  3   force =    -0.40694561   -0.40664913    0.00140329
     atom   21 type  3   force =    -0.40743310    0.40720271    0.00112148
     atom   22 type  3   force =     0.40729242   -0.40584444    0.00128864
     atom   23 type  3   force =     0.40708325    0.40552974    0.00084496
     atom   24 type  3   force =    -0.38948315   -0.39169695   -0.40040843
     atom   25 type  3   force =    -0.38906128    0.39180738   -0.40055492
     atom   26 type  3   force =     0.38972726   -0.39186027   -0.40035743
     atom   27 type  3   force =     0.38929689    0.39135362   -0.39997192
     atom   28 type  4   force =    -0.00211933    0.00145412   -0.00116714
     atom   29 type  4   force =    -0.00143641   -0.00211427   -0.00094193
     atom   30 type  4   force =     0.00090078    0.00055576   -0.60348208
     atom   31 type  4   force =     0.00177795    0.00128153   -0.00107031
     atom   32 type  4   force =    -0.53457963   -0.53409443    0.53007693
     atom   33 type  4   force =    -0.53582122    0.53420112    0.53127677
     atom   34 type  4   force =     0.53569324   -0.53410614    0.53085295
     atom   35 type  4   force =     0.53588896    0.53361387    0.53028356
     The Hubbard contrib.    to forces
     atom    1 type  1   force =     0.00000000    0.00000000    0.00000000
     atom    2 type  1   force =     0.00000000    0.00000000    0.00000000
     atom    3 type  1   force =     0.00000000    0.00000000    0.00000000
     atom    4 type  1   force =     0.00000000    0.00000000    0.00000000
     atom    5 type  1   force =     0.00000000    0.00000000    0.00000000
     atom    6 type  2   force =     0.00000000    0.00000000    0.00000000
     atom    7 type  2   force =     0.00000000    0.00000000    0.00000000
     atom    8 type  2   force =     0.00000000    0.00000000    0.00000000
     atom    9 type  2   force =     0.00000000    0.00000000    0.00000000
     atom   10 type  2   force =     0.00000000    0.00000000    0.00000000
     atom   11 type  2   force =     0.00000000    0.00000000    0.00000000
     atom   12 type  3   force =     0.00000000    0.00000000    0.00000000
     atom   13 type  3   force =     0.00000000    0.00000000    0.00000000
     atom   14 type  3   force =     0.00000000    0.00000000    0.00000000
     atom   15 type  3   force =     0.00000000    0.00000000    0.00000000
     atom   16 type  3   force =     0.00000000    0.00000000    0.00000000
     atom   17 type  3   force =     0.00000000    0.00000000    0.00000000
     atom   18 type  3   force =     0.00000000    0.00000000    0.00000000
     atom   19 type  3   force =     0.00000000    0.00000000    0.00000000
     atom   20 type  3   force =     0.00000000    0.00000000    0.00000000
     atom   21 type  3   force =     0.00000000    0.00000000    0.00000000
     atom   22 type  3   force =     0.00000000    0.00000000    0.00000000
     atom   23 type  3   force =     0.00000000    0.00000000    0.00000000
     atom   24 type  3   force =     0.00000000    0.00000000    0.00000000
     atom   25 type  3   force =     0.00000000    0.00000000    0.00000000
     atom   26 type  3   force =     0.00000000    0.00000000    0.00000000
     atom   27 type  3   force =     0.00000000    0.00000000    0.00000000
     atom   28 type  4   force =     0.00000000    0.00000000    0.00000000
     atom   29 type  4   force =     0.00000000    0.00000000    0.00000000
     atom   30 type  4   force =     0.00000000    0.00000000    0.00000000
     atom   31 type  4   force =     0.00000000    0.00000000    0.00000000
     atom   32 type  4   force =     0.00000000    0.00000000    0.00000000
     atom   33 type  4   force =     0.00000000    0.00000000    0.00000000
     atom   34 type  4   force =     0.00000000    0.00000000    0.00000000
     atom   35 type  4   force =     0.00000000    0.00000000    0.00000000
     The SCF correction term to forces
     atom    1 type  1   force =     0.00036607   -0.00007750    0.00003947
     atom    2 type  1   force =    -0.00032598   -0.00019276    0.00019233
     atom    3 type  1   force =    -0.00022419   -0.00034113    0.00031788
     atom    4 type  1   force =     0.00047999    0.00000933   -0.00047297
     atom    5 type  1   force =     0.00008848    0.00000743   -0.00049114
     atom    6 type  2   force =    -0.00040608   -0.00054592   -0.00052864
     atom    7 type  2   force =    -0.00041044    0.00023779   -0.00073547
     atom    8 type  2   force =    -0.00042718    0.00018250    0.00014867
     atom    9 type  2   force =    -0.00061133    0.00020402    0.00018720
     atom   10 type  2   force =     0.00059476    0.00008068   -0.00080017
     atom   11 type  2   force =     0.00007545    0.00026231   -0.00079281
     atom   12 type  3   force =     0.00022605    0.00013994    0.00011878
     atom   13 type  3   force =    -0.00046353    0.00038461    0.00064794
[...]
     atom   23 type  3   force =    -0.01568406   -0.07128043    0.14701415
     atom   24 type  3   force =     0.04740552    0.01028818   -0.23134324
     atom   25 type  3   force =    -0.08829276    0.06398030   -0.02874632
     atom   26 type  3   force =     0.07802415   -0.03294622   -0.11274813
     atom   27 type  3   force =     0.06487705   -0.00572089   -0.12569404
     atom   28 type  4   force =    -0.02009741    0.01227918    0.05170403
     atom   29 type  4   force =    -0.02915442    0.07550441   -0.00289561
     atom   30 type  4   force =     0.06879710   -0.03965300   -0.00857099
     atom   31 type  4   force =    -0.12988381   -0.00113704   -0.01137768
     atom   32 type  4   force =    -0.05446945    0.05643987    0.04315209
     atom   33 type  4   force =     0.02436448    0.10699786    0.03705025
     atom   34 type  4   force =    -0.00672152    0.05906202   -0.04885859
     atom   35 type  4   force =    -0.00657917   -0.08143743    0.11448246
     The ionic contribution  to forces
     atom    1 type  1   force =     3.91320288   -0.92739162    0.48486764
     atom    2 type  1   force =     0.95710079   -0.23066710   -0.99327557
     atom    3 type  1   force =    -3.90789498    3.10566099    0.53972492
     atom    4 type  1   force =     3.84680667   -0.18679124    1.52430514
     atom    5 type  1   force =    -2.24885235   -1.21561064    2.40278924
     atom    6 type  2   force =     6.91327186    1.71835668   -2.34871564
     atom    7 type  2   force =    -5.37179432   -3.74844158   -5.06327160
     atom    8 type  2   force =    -7.56352222   -0.60432146   -0.92292793
     atom    9 type  2   force =    -3.38824677    3.45190420    0.15210917
     atom   10 type  2   force =     6.05438223   -1.41248018    0.63889122
     atom   11 type  2   force =    -2.52049457    0.62539319   -0.71998639
     atom   12 type  3   force =     2.84593858   -1.48923394    1.11299978
     atom   13 type  3   force =    -1.70741887   -6.41811384   -1.18661627
     atom   14 type  3   force =     2.49719666   -0.93516633    0.95322263
     atom   15 type  3   force =    -7.05221777    1.85426741    1.03196723
     atom   16 type  3   force =     1.80297767    2.13204572   -0.35461071
     atom   17 type  3   force =    -6.35595857   -1.95156761    2.30012874
     atom   18 type  3   force =     6.47927003    0.97607807    1.20751523
     atom   19 type  3   force =    -2.27337564   -2.53891204   -1.72270589
     atom   20 type  3   force =     5.76640513   -0.14961084   -0.43679327
     atom   21 type  3   force =     2.26107646   -0.84510009    3.37137132
     atom   22 type  3   force =     0.44273163    1.17109838    0.70703375
     atom   23 type  3   force =    -2.27288434    3.09610186   -0.43539211
     atom   24 type  3   force =     4.78080691    1.38328579    2.53247876
     atom   25 type  3   force =     3.17323216   -2.20590916   -1.55974626
     atom   26 type  3   force =    -6.45370297    5.73936894   -0.68057865
     atom   27 type  3   force =     0.86161740   -0.56079626    0.95573988
     atom   28 type  4   force =    -0.83475007    1.85745235    0.15991683
     atom   29 type  4   force =    -3.67002861    0.69414244    2.10576318
     atom   30 type  4   force =     2.55008376   -0.65805088   -0.95026519
     atom   31 type  4   force =    -5.56752403    0.04727895    0.38147732
     atom   32 type  4   force =     6.11851907    0.84071299   -2.09841291
     atom   33 type  4   force =     3.53656332    0.64316832    0.03974671
     atom   34 type  4   force =    -4.71165764   -3.39342267   -0.22019553
     atom   35 type  4   force =     1.09914049    0.13527119   -2.90855479
     The local contribution  to forces
     atom    1 type  1   force =    -3.96310521    0.97224379   -0.42323276
     atom    2 type  1   force =    -1.06326390    0.15784924    1.08962680
     atom    3 type  1   force =     3.79098797   -2.83517852   -0.38757450
     atom    4 type  1   force =    -3.95568052    0.33877827   -1.48714796
     atom    5 type  1   force =     2.41351044    1.14695628   -2.36032462
     atom    6 type  2   force =    -6.74350100   -1.56487584    2.11785618
     atom    7 type  2   force =     5.23150113    3.75742170    4.98720284
     atom    8 type  2   force =     7.49324139    0.60445960    0.81190879
     atom    9 type  2   force =     3.37002946   -3.35867785   -0.25482626
     atom   10 type  2   force =    -6.16911776    1.40759115   -0.62388533
     atom   11 type  2   force =     2.21289494   -0.57556353    0.96029112
     atom   12 type  3   force =    -2.82336363    1.51162149   -1.25518355
     atom   13 type  3   force =     1.81707572    6.28831129    1.25641904
     atom   14 type  3   force =    -2.38645176    1.05504570   -0.92737313
     atom   15 type  3   force =     6.90501491   -1.78125919   -0.94528168
     atom   16 type  3   force =    -1.63837758   -2.21807721    0.48635767
     atom   17 type  3   force =     6.34963508    2.06781792   -2.35578036
     atom   18 type  3   force =    -6.51440434   -0.98406346   -1.39702337
     atom   19 type  3   force =     2.24437726    2.61048330    1.75562884
     atom   20 type  3   force =    -5.77130939    0.12090482    0.28579727
     atom   21 type  3   force =    -2.26401769    0.82850664   -3.34439180
     atom   22 type  3   force =    -0.38993410   -1.20095997   -0.60234444
     atom   23 type  3   force =     2.31538988   -2.95919263    0.20707873
     atom   24 type  3   force =    -4.79985369   -1.33206980   -2.15989905
     atom   25 type  3   force =    -2.99982304    2.06191279    1.50947607
     atom   26 type  3   force =     6.29363282   -5.60584465    0.79821702
     atom   27 type  3   force =    -0.97284730    0.44649959   -0.71610396
     atom   28 type  4   force =     0.82594939   -1.84263864   -0.22395901
     atom   29 type  4   force =     3.69865919   -0.81403779   -2.08825243
     atom   30 type  4   force =    -2.61543725    0.66866758    0.86980525
     atom   31 type  4   force =     5.71648045   -0.08484269   -0.36452613
     atom   32 type  4   force =    -6.00015591   -0.89658622    2.00395853
     atom   33 type  4   force =    -3.55057667   -0.77429463   -0.05043432
     atom   34 type  4   force =     4.69041141    3.32955638    0.28901491
     atom   35 type  4   force =    -1.00713688   -0.07065187    2.69070300
     The core correction contribution to forces
     atom    1 type  1   force =    -0.01276784    0.00772429   -0.01028314
     atom    2 type  1   force =     0.00497482    0.00693180   -0.00228324
     atom    3 type  1   force =    -0.00573540   -0.01120792   -0.00139488
     atom    4 type  1   force =     0.00447873   -0.01035821    0.00322107
     atom    5 type  1   force =    -0.00807630   -0.00062634    0.00061155
     atom    6 type  2   force =    -0.01050543   -0.00440885    0.01137979
     atom    7 type  2   force =     0.00459734   -0.00454556    0.00272142
     atom    8 type  2   force =     0.00870663   -0.00553129    0.00797988
     atom    9 type  2   force =    -0.00177643   -0.00517548    0.01124115
     atom   10 type  2   force =     0.00160894   -0.00031968   -0.01252095
     atom   11 type  2   force =     0.00499396   -0.00434544   -0.00802952
     atom   12 type  3   force =     0.00455242   -0.00205063   -0.00231172
     atom   13 type  3   force =     0.00209464    0.00116802    0.00698974
     atom   14 type  3   force =     0.00488039    0.00207236   -0.00211698
     atom   15 type  3   force =    -0.00433483    0.00309688    0.00222588
     atom   16 type  3   force =    -0.00013959   -0.00257233    0.00395447
     atom   17 type  3   force =    -0.00117888    0.00273384   -0.00238481
     atom   18 type  3   force =    -0.00400701   -0.00190699   -0.00726227
     atom   19 type  3   force =     0.00000134    0.00088722    0.00126779
     atom   20 type  3   force =    -0.00073055    0.00025687   -0.00191601
     atom   21 type  3   force =    -0.00316383   -0.00035465   -0.00118987
     atom   22 type  3   force =     0.00100077   -0.00043049    0.00626706
     atom   23 type  3   force =     0.00021594    0.00393735   -0.00651845
     atom   24 type  3   force =    -0.00216301    0.00185389    0.00786076
     atom   25 type  3   force =     0.00093057   -0.00139398    0.00412901
     atom   26 type  3   force =    -0.00226863    0.00272900    0.00371026
     atom   27 type  3   force =    -0.00108221   -0.00022563    0.00279426
     atom   28 type  4   force =     0.00246829    0.00058763   -0.00306594
     atom   29 type  4   force =     0.00316209   -0.00319577    0.00028016
     atom   30 type  4   force =    -0.00466324    0.00245176    0.00029590
     atom   31 type  4   force =     0.00361726    0.00005018    0.00130739
     atom   32 type  4   force =     0.00032714   -0.00217193   -0.00335872
     atom   33 type  4   force =     0.00036533   -0.00407726    0.00032474
     atom   34 type  4   force =     0.00156862   -0.00174632    0.00116901
     atom   35 type  4   force =     0.00173951    0.00387993   -0.00669929
     The Hubbard contrib.    to forces
     atom    1 type  1   force =     0.00000000    0.00000000    0.00000000
     atom    2 type  1   force =     0.00000000    0.00000000    0.00000000
     atom    3 type  1   force =     0.00000000    0.00000000    0.00000000
     atom    4 type  1   force =     0.00000000    0.00000000    0.00000000
     atom    5 type  1   force =     0.00000000    0.00000000    0.00000000
     atom    6 type  2   force =     0.00000000    0.00000000    0.00000000
     atom    7 type  2   force =     0.00000000    0.00000000    0.00000000
     atom    8 type  2   force =     0.00000000    0.00000000    0.00000000
     atom    9 type  2   force =     0.00000000    0.00000000    0.00000000
     atom   10 type  2   force =     0.00000000    0.00000000    0.00000000
     atom   11 type  2   force =     0.00000000    0.00000000    0.00000000
     atom   12 type  3   force =     0.00000000    0.00000000    0.00000000
     atom   13 type  3   force =     0.00000000    0.00000000    0.00000000
     atom   14 type  3   force =     0.00000000    0.00000000    0.00000000
     atom   15 type  3   force =     0.00000000    0.00000000    0.00000000
     atom   16 type  3   force =     0.00000000    0.00000000    0.00000000
     atom   17 type  3   force =     0.00000000    0.00000000    0.00000000
     atom   18 type  3   force =     0.00000000    0.00000000    0.00000000
     atom   19 type  3   force =     0.00000000    0.00000000    0.00000000
     atom   20 type  3   force =     0.00000000    0.00000000    0.00000000
     atom   21 type  3   force =     0.00000000    0.00000000    0.00000000
     atom   22 type  3   force =     0.00000000    0.00000000    0.00000000
     atom   23 type  3   force =     0.00000000    0.00000000    0.00000000
     atom   24 type  3   force =     0.00000000    0.00000000    0.00000000
     atom   25 type  3   force =     0.00000000    0.00000000    0.00000000
     atom   26 type  3   force =     0.00000000    0.00000000    0.00000000
     atom   27 type  3   force =     0.00000000    0.00000000    0.00000000
     atom   28 type  4   force =     0.00000000    0.00000000    0.00000000
     atom   29 type  4   force =     0.00000000    0.00000000    0.00000000
     atom   30 type  4   force =     0.00000000    0.00000000    0.00000000
     atom   31 type  4   force =     0.00000000    0.00000000    0.00000000
     atom   32 type  4   force =     0.00000000    0.00000000    0.00000000
     atom   33 type  4   force =     0.00000000    0.00000000    0.00000000
     atom   34 type  4   force =     0.00000000    0.00000000    0.00000000
     atom   35 type  4   force =     0.00000000    0.00000000    0.00000000
     The SCF correction term to forces
     atom    1 type  1   force =     0.00017430    0.00005886    0.00012219
     atom    2 type  1   force =    -0.00020854    0.00005239    0.00016311
     atom    3 type  1   force =     0.00002793   -0.00008629   -0.00002159
     atom    4 type  1   force =    -0.00014333    0.00008660    0.00014262
     atom    5 type  1   force =     0.00011716   -0.00029696    0.00040356
     atom    6 type  2   force =    -0.00029710    0.00029952    0.00001479
     atom    7 type  2   force =     0.00017949   -0.00023867   -0.00021146
     atom    8 type  2   force =     0.00012490   -0.00043147    0.00014564
     atom    9 type  2   force =    -0.00002793    0.00058549   -0.00002733
     atom   10 type  2   force =    -0.00008124   -0.00034813   -0.00044201
     atom   11 type  2   force =     0.00006679   -0.00025982   -0.00005559
     atom   12 type  3   force =     0.00023112   -0.00026784    0.00047065
     atom   13 type  3   force =    -0.00033039   -0.00014908   -0.00021419
     atom   14 type  3   force =    -0.00031548    0.00003131    0.00016296
     atom   15 type  3   force =     0.00023982    0.00056524    0.00003527
     atom   16 type  3   force =     0.00012359    0.00014662    0.00015838
     atom   17 type  3   force =    -0.00028088    0.00029745    0.00023848
     atom   18 type  3   force =    -0.00012412   -0.00021089   -0.00047006
     atom   19 type  3   force =     0.00023447   -0.00036724   -0.00063455
     atom   20 type  3   force =    -0.00013062    0.00004585   -0.00008463
     atom   21 type  3   force =     0.00013506    0.00024203    0.00021452
     atom   22 type  3   force =     0.00001806    0.00017494    0.00001950
     atom   23 type  3   force =     0.00021686   -0.00011696   -0.00051737
     atom   24 type  3   force =     0.00004863    0.00027566   -0.00018337
     atom   25 type  3   force =     0.00011511   -0.00036956    0.00031965
     atom   26 type  3   force =     0.00023071    0.00002218    0.00048039
     atom   27 type  3   force =    -0.00014070    0.00043313    0.00012963
     atom   28 type  4   force =    -0.00001317   -0.00005948   -0.00043639
     atom   29 type  4   force =     0.00003696    0.00018858    0.00006225
     atom   30 type  4   force =    -0.00022620   -0.00015805   -0.00008442
     atom   31 type  4   force =     0.00020491   -0.00032516   -0.00024460
     atom   32 type  4   force =    -0.00023655    0.00018774    0.00029511
     atom   33 type  4   force =     0.00003539   -0.00005318   -0.00004113
     atom   34 type  4   force =    -0.00005914    0.00026407   -0.00004039
     atom   35 type  4   force =     0.00011313    0.00004250    0.00008707

     Total force =     0.545169     Total SCF correction =     0.002469
     Energy error            =      7.7E-02 Ry
     Gradient error          =      1.6E-01 Ry/Bohr

     number of scf cycles    =  50
     number of bfgs steps    =  45

     energy             old  =   -4315.4559155277 Ry
     energy             new  =   -4315.5334132707 Ry

     CASE: energy            _new < energy            _old

     new trust radius        =       0.1759687396 bohr

     The maximum number of steps has been reached.

     End of BFGS Geometry Optimization

ATOMIC_POSITIONS (angstrom)
Hf            1.7372696370        4.8453846577        3.8082761158
Hf            2.6760679063        2.1930298395        4.7408784671
Hf            3.7688130740        6.9885681730        4.5384954774
Hf            2.6883547933        2.6480789057        0.0263920327
Hf            5.2910356905        3.5953357383       -1.0912276079
Ta            1.5031182841        0.2887641164        1.2849920769
Ta            5.3573153524        4.7882380287        1.0534629913
Ta            5.0892544309        2.1250279925        4.2403320326
Ta            5.5333764838        6.1291563694        3.0309785237
Ta            1.3938281110        3.9472632401        8.9816901112
Ta            7.1695513240        2.8554933082        7.8024775741
Nb            0.0519057797        2.8603245053        4.7344369818
Nb            3.4698452803        4.2840003113        2.4009230735
Nb            3.0078793595        4.2971928527        5.6522012117
Nb            4.7791413954       -0.2004275086        8.1820592090
Nb            2.9431890376        7.8921877864        6.7259267453
Nb            4.7300954898        4.3963339409        4.1852570489
Nb            0.8492997654        1.9604171521        2.7010799608
Nb            6.5564075303        3.6478743096        2.7483250138
Nb            1.3336173093        0.0989877094        3.8823679477
Nb           -0.4316972378        5.2331524919        4.6819760814
Nb            6.6223161033        0.1529659919        4.7961890291
Nb            6.0431101442        8.3121549715        2.6251641876
Nb            0.2502485907       -1.4834257162        2.0458417675
Nb            0.8769906385        4.2020538592       -0.8883760020
Nb            5.1994961979        1.1312978579       -1.1336242733
Nb            6.8593477198        8.0393458973        0.3976682498
Zr            3.3379710720        1.7152328366        2.5311199355
Zr            3.2804018449        6.7127528500        2.3823795350
Zr            2.7645685297        5.4898125617        0.3456124861
Zr            4.8254355464        2.4718678117        1.0162851159
Zr            0.7667309911        1.3837378325        6.1747813458
Zr            1.5216114812        6.4079063481        5.8561088560
Zr            4.9832801124       -1.3432611791        6.1637312248
Zr            7.0708192211        5.8331711463        7.2758144637



     Writing config-only to output data dir outdir/pwscf.save/
     NEW-OLD atomic charge density approx. for the potential

     negative rho (up, down):  1.549E+00 0.000E+00

     Writing all to output data dir outdir/pwscf.save/

     init_run     :     18.26s CPU     18.96s WALL (       1 calls)
     electrons    :  37848.78s CPU  38750.99s WALL (      50 calls)
     update_pot   :     33.00s CPU     33.34s WALL (      50 calls)
     forces       :    651.37s CPU    670.43s WALL (      50 calls)

     Called by init_run:
     wfcinit      :     13.55s CPU     13.65s WALL (       1 calls)
     potinit      :      0.63s CPU      0.67s WALL (       1 calls)
     hinit0       :      1.09s CPU      1.15s WALL (       1 calls)

     Called by electrons:
     c_bands      :  30289.95s CPU  30406.27s WALL (    1108 calls)
     sum_band     :   4928.36s CPU   5326.51s WALL (    1108 calls)
     v_of_rho     :    179.11s CPU    185.56s WALL (    1159 calls)
     newd         :   2511.64s CPU   2906.44s WALL (    1159 calls)
     mix_rho      :     32.53s CPU     34.21s WALL (    1108 calls)

     Called by c_bands:
     init_us_2    :     20.94s CPU     21.07s WALL (    2217 calls)
     init_us_2:cp :     20.92s CPU     21.06s WALL (    2217 calls)
     regterg      :  30175.33s CPU  30290.48s WALL (    1108 calls)

     Called by *egterg:
     rdiaghg      :    521.19s CPU    524.74s WALL (    5615 calls)
     h_psi        :  12452.23s CPU  12532.37s WALL (    5665 calls)
     s_psi        :   5109.96s CPU   5113.95s WALL (    5665 calls)
     g_psi        :      5.82s CPU      5.87s WALL (    4556 calls)

     Called by h_psi:
     h_psi:calbec :   5726.78s CPU   5734.07s WALL (    5665 calls)
     vloc_psi     :   1390.10s CPU   1457.74s WALL (    5665 calls)
     add_vuspsi   :   5325.05s CPU   5330.22s WALL (    5665 calls)

     General routines
     calbec       :   8192.60s CPU   8202.99s WALL (    6973 calls)
     fft          :    227.25s CPU    238.45s WALL (   13149 calls)
     ffts         :      6.81s CPU      7.10s WALL (    2267 calls)
     fftw         :   1282.88s CPU   1344.35s WALL (  944702 calls)
     interpolate  :     15.72s CPU     16.81s WALL (    1159 calls)

     Parallel routines

     PWSCF        :     10h44m CPU     11h 0m WALL


   This run was terminated on:  13:29:40   4Jun2023            

=------------------------------------------------------------------------------=
   JOB DONE.
=------------------------------------------------------------------------------=
