
     Program PWSCF v.7.2 starts on  4Jun2023 at  1:53:12 

     This program is part of the open-source Quantum ESPRESSO suite
     for quantum simulation of materials; please cite
         "P. Giannozzi et al., J. Phys.:Condens. Matter 21 395502 (2009);
         "P. Giannozzi et al., J. Phys.:Condens. Matter 29 465901 (2017);
         "P. Giannozzi et al., J. Chem. Phys. 152 154105 (2020);
          URL http://www.quantum-espresso.org", 
     in publications or presentations arising from this work. More details at
     http://www.quantum-espresso.org/quote

     Parallel version (MPI), running on    12 processors

     MPI processes distributed on     1 nodes
     78335 MiB available memory on the printing compute node when the environment starts

     Reading input from relax_Hf16Ta12Nb20Zr13.in
Warning: card &CELL ignored
Warning: card / ignored

     Current dimensions of program PWSCF are:
     Max number of different atomic species (ntypx) = 10
     Max number of k-points (npk) =  40000
     Max angular momentum in pseudopotentials (lmaxx) =  4

     gamma-point specific algorithms are used

     R & G space division:  proc/nbgrp/npool/nimage =      12
     Subspace diagonalization in iterative solution of the eigenvalue problem:
     one sub-group per band group will be used
     custom distributed-memory algorithm (size of sub-group:  3*  3 procs)


     Parallelization info
     --------------------
     sticks:   dense  smooth     PW     G-vecs:    dense   smooth      PW
     Min        1237     617    154               216274    76482    9554
     Max        1240     620    156               216286    76500    9572
     Sum       14857    7425   1861              2595383   917857  114753

     Using Slab Decomposition



     bravais-lattice index     =            0
     lattice parameter (alat)  =      13.9462  a.u.
     unit-cell volume          =    5167.6681 (a.u.)^3
     number of atoms/cell      =           61
     number of atomic types    =            4
     number of electrons       =       764.00
     number of Kohn-Sham states=          458
     kinetic-energy cutoff     =     120.0000  Ry
     charge density cutoff     =     960.0000  Ry
     scf convergence threshold =      1.0E-06
     mixing beta               =       0.7000
     number of iterations used =            8  plain     mixing
     energy convergence thresh.=      1.0E-03
     force convergence thresh. =      1.0E-02
     Exchange-correlation= SLA  PW   PBE  PBE
                           (   1   4   3   4   0   0   0)
     nstep                     =           50


     celldm(1)=  13.946178  celldm(2)=   0.000000  celldm(3)=   0.000000
     celldm(4)=   0.000000  celldm(5)=   0.000000  celldm(6)=   0.000000

     crystal axes: (cart. coord. in units of alat)
               a(1) = (   1.000000   0.000000   0.000000 )  
               a(2) = (   0.000000   1.000000   0.000000 )  
               a(3) = (   0.000000   0.000000   1.905149 )  

     reciprocal axes: (cart. coord. in units 2 pi/alat)
               b(1) = (  1.000000  0.000000  0.000000 )  
               b(2) = (  0.000000  1.000000  0.000000 )  
               b(3) = (  0.000000  0.000000  0.524893 )  


     PseudoPot. # 1 for Hf read from file:
     q-e/pseudo/hf_pbe_v1.uspp.F.UPF
     MD5 check sum: 8ee9378dfe14276e333edf04c5e4aa26
     Pseudo is Ultrasoft + core correction, Zval = 12.0
     Generated by new atomic code, or converted to UPF format
     Using radial grid of  921 points,  8 beta functions with: 
                l(1) =   0
                l(2) =   0
                l(3) =   0
                l(4) =   1
                l(5) =   1
                l(6) =   2
                l(7) =   2
                l(8) =   3
     Q(r) pseudized with  6 coefficients,  rinner =    1.200   1.200   1.200
                                                       1.200   1.200   1.200
                                                       1.200

     PseudoPot. # 2 for Ta read from file:
     q-e/pseudo/ta_pbe_v1.uspp.F.UPF
     MD5 check sum: f8bbe9446314a3b8ea5d9f3e3836c939
     Pseudo is Ultrasoft + core correction, Zval = 13.0
     Generated by new atomic code, or converted to UPF format
     Using radial grid of  921 points,  7 beta functions with: 
                l(1) =   0
                l(2) =   0
                l(3) =   1
                l(4) =   1
                l(5) =   2
                l(6) =   2
                l(7) =   3
     Q(r) pseudized with  6 coefficients,  rinner =    1.300   1.300   1.300
                                                       1.300   1.300   1.300
                                                       1.300

     PseudoPot. # 3 for Nb read from file:
     q-e/pseudo/nb_pbe_v1.uspp.F.UPF
     MD5 check sum: 573aab8a2fa660278ed4a62cd769473f
     Pseudo is Ultrasoft + core correction, Zval = 13.0
     Generated by new atomic code, or converted to UPF format
     Using radial grid of  887 points,  6 beta functions with: 
                l(1) =   0
                l(2) =   0
                l(3) =   1
                l(4) =   1
                l(5) =   2
                l(6) =   2
     Q(r) pseudized with  6 coefficients,  rinner =    1.000   1.000   1.000
                                                       1.000   1.000

     PseudoPot. # 4 for Zr read from file:
     q-e/pseudo/zr_pbe_v1.uspp.F.UPF
     MD5 check sum: 5db81b1e868ab7776c4564c113de050b
     Pseudo is Ultrasoft + core correction, Zval = 12.0
     Generated by new atomic code, or converted to UPF format
     Using radial grid of  887 points,  6 beta functions with: 
                l(1) =   0
                l(2) =   0
                l(3) =   1
                l(4) =   1
                l(5) =   2
                l(6) =   2
     Q(r) pseudized with  6 coefficients,  rinner =    1.200   1.200   1.200
                                                       1.200   1.200

     atomic species   valence    mass     pseudopotential
        Hf            12.00   178.49000     Hf( 1.00)
        Ta            13.00   180.94788     Ta( 1.00)
        Nb            13.00    92.90637     Nb( 1.00)
        Zr            12.00    91.22400     Zr( 1.00)

     No symmetry found



   Cartesian axes

     site n.     atom                  positions (alat units)
         1           Hf  tau(   1) = (   0.2533875   0.7059621   0.7059621  )
         2           Hf  tau(   2) = (   0.2533875   0.7059621   1.6111111  )
         3           Hf  tau(   3) = (   0.4796748   0.4796748   1.3848238  )
         4           Hf  tau(   4) = (   0.4796748   0.0271003   0.4796748  )
         5           Hf  tau(   5) = (   0.4796748   0.9322493   0.4796748  )
         6           Hf  tau(   6) = (   0.4796748   0.0271003   1.3848238  )
         7           Hf  tau(   7) = (   0.4796748   0.9322493   1.3848238  )
         8           Hf  tau(   8) = (   0.7059621   0.7059621   1.1585366  )
         9           Hf  tau(   9) = (   0.0271003   0.4796748   0.0271003  )
        10           Hf  tau(  10) = (   0.0271003   0.4796748   1.8373984  )
        11           Hf  tau(  11) = (   0.9322493   0.4796748   0.0271003  )
        12           Hf  tau(  12) = (   0.9322493   0.4796748   1.8373984  )
        13           Hf  tau(  13) = (   0.0271003   0.0271003   1.3848238  )
        14           Hf  tau(  14) = (   0.0271003   0.9322493   1.3848238  )
        15           Hf  tau(  15) = (   0.9322493   0.0271003   1.3848238  )
        16           Hf  tau(  16) = (   0.9322493   0.9322493   1.3848238  )
        17           Ta  tau(  17) = (   0.2533875   0.2533875   1.1585366  )
        18           Ta  tau(  18) = (   0.2533875   0.2533875   1.6111111  )
        19           Ta  tau(  19) = (   0.4796748   0.0271003   0.0271003  )
        20           Ta  tau(  20) = (   0.4796748   0.0271003   1.8373984  )
        21           Ta  tau(  21) = (   0.4796748   0.9322493   0.0271003  )
        22           Ta  tau(  22) = (   0.4796748   0.9322493   1.8373984  )
        23           Ta  tau(  23) = (   0.7059621   0.2533875   0.7059621  )
        24           Ta  tau(  24) = (   0.7059621   0.2533875   1.1585366  )
        25           Ta  tau(  25) = (   0.7059621   0.2533875   1.6111111  )
        26           Ta  tau(  26) = (   0.7059621   0.7059621   0.2533875  )
        27           Ta  tau(  27) = (   0.0271003   0.4796748   0.9322493  )
        28           Ta  tau(  28) = (   0.9322493   0.4796748   0.9322493  )
        29           Nb  tau(  29) = (   0.2533875   0.2533875   0.7059621  )
        30           Nb  tau(  30) = (   0.4796748   0.4796748   0.4796748  )
        31           Nb  tau(  31) = (   0.4796748   0.4796748   0.9322493  )
        32           Nb  tau(  32) = (   0.4796748   0.0271003   0.9322493  )
        33           Nb  tau(  33) = (   0.4796748   0.9322493   0.9322493  )
        34           Nb  tau(  34) = (   0.7059621   0.7059621   0.7059621  )
        35           Nb  tau(  35) = (   0.0271003   0.4796748   0.4796748  )
        36           Nb  tau(  36) = (   0.9322493   0.4796748   0.4796748  )
        37           Nb  tau(  37) = (   0.0271003   0.0271003   0.4796748  )
        38           Nb  tau(  38) = (   0.0271003   0.9322493   0.4796748  )
        39           Nb  tau(  39) = (   0.9322493   0.0271003   0.4796748  )
        40           Nb  tau(  40) = (   0.9322493   0.9322493   0.4796748  )
        41           Nb  tau(  41) = (   0.0271003   0.0271003   0.0271003  )
        42           Nb  tau(  42) = (   0.0271003   0.0271003   1.8373984  )
        43           Nb  tau(  43) = (   0.0271003   0.9322493   0.0271003  )
        44           Nb  tau(  44) = (   0.0271003   0.9322493   1.8373984  )
        45           Nb  tau(  45) = (   0.9322493   0.0271003   0.0271003  )
        46           Nb  tau(  46) = (   0.9322493   0.0271003   1.8373984  )
        47           Nb  tau(  47) = (   0.9322493   0.9322493   0.0271003  )
        48           Nb  tau(  48) = (   0.9322493   0.9322493   1.8373984  )
        49           Zr  tau(  49) = (   0.2533875   0.2533875   0.2533875  )
        50           Zr  tau(  50) = (   0.2533875   0.7059621   0.2533875  )
        51           Zr  tau(  51) = (   0.2533875   0.7059621   1.1585366  )
        52           Zr  tau(  52) = (   0.4796748   0.4796748   0.0271003  )
        53           Zr  tau(  53) = (   0.4796748   0.4796748   1.8373984  )
        54           Zr  tau(  54) = (   0.7059621   0.2533875   0.2533875  )
        55           Zr  tau(  55) = (   0.7059621   0.7059621   1.6111111  )
        56           Zr  tau(  56) = (   0.0271003   0.4796748   1.3848238  )
        57           Zr  tau(  57) = (   0.9322493   0.4796748   1.3848238  )
        58           Zr  tau(  58) = (   0.0271003   0.0271003   0.9322493  )
        59           Zr  tau(  59) = (   0.0271003   0.9322493   0.9322493  )
        60           Zr  tau(  60) = (   0.9322493   0.0271003   0.9322493  )
        61           Zr  tau(  61) = (   0.9322493   0.9322493   0.9322493  )

     number of k points=     1  Gaussian smearing, width (Ry)=  0.0220
                       cart. coord. in units 2pi/alat
        k(    1) = (   0.0000000   0.0000000   0.0000000), wk =   2.0000000

     Dense  grid:  1297692 G-vectors     FFT dimensions: ( 144, 144, 270)

     Smooth grid:   458929 G-vectors     FFT dimensions: ( 100, 100, 192)

     Estimated max dynamical RAM per process >     960.28 MB

     Estimated total dynamical RAM >      11.25 GB

     Initial potential from superposition of free atoms

     starting charge     731.9040, renormalised to     764.0000

     negative rho (up, down):  1.557E+00 0.000E+00
     Starting wfcs are  793 randomized atomic wfcs

     total cpu time spent up to now is      106.5 secs

     Self-consistent Calculation

     iteration #  1     ecut=   120.00 Ry     beta= 0.70
     Davidson diagonalization with overlap
     ethr =  1.00E-02,  avg # of iterations = 12.0

     negative rho (up, down):  1.637E+00 0.000E+00

     total cpu time spent up to now is      802.7 secs

     total energy              =    -275.52064467 Ry
     estimated scf accuracy    <    6611.53688844 Ry

     iteration #  2     ecut=   120.00 Ry     beta= 0.70
     Davidson diagonalization with overlap
