
     Program PWSCF v.7.2 starts on 11Jun2023 at 23:10: 7 

     This program is part of the open-source Quantum ESPRESSO suite
     for quantum simulation of materials; please cite
         "P. Giannozzi et al., J. Phys.:Condens. Matter 21 395502 (2009);
         "P. Giannozzi et al., J. Phys.:Condens. Matter 29 465901 (2017);
         "P. Giannozzi et al., J. Chem. Phys. 152 154105 (2020);
          URL http://www.quantum-espresso.org", 
     in publications or presentations arising from this work. More details at
     http://www.quantum-espresso.org/quote

     Parallel version (MPI), running on    42 processors

     MPI processes distributed on     1 nodes
     185493 MiB available memory on the printing compute node when the environment starts

     Reading input from md_data/md_Hf5Nb2Ta10Zr5H_20steps_100eV_incident45_polar120.in
Warning: card &CELL ignored
Warning: card / ignored

     Current dimensions of program PWSCF are:
     Max number of different atomic species (ntypx) = 10
     Max number of k-points (npk) =  40000
     Max angular momentum in pseudopotentials (lmaxx) =  4

     File outdir/pwscf.md deleted, as requested

     gamma-point specific algorithms are used

     R & G space division:  proc/nbgrp/npool/nimage =      42
     Subspace diagonalization in iterative solution of the eigenvalue problem:
     one sub-group per band group will be used
     custom distributed-memory algorithm (size of sub-group:  2*  2 procs)


     Parallelization info
     --------------------
     sticks:   dense  smooth     PW     G-vecs:    dense   smooth      PW
     Min         239     239     59                21459    21459    2676
     Max         242     242     62                21470    21470    2688
     Sum       10131   10131   2529               901547   901547  112647

     Using Slab Decomposition



     bravais-lattice index     =            0
     lattice parameter (alat)  =      16.1383  a.u.
     unit-cell volume          =    5077.2634 (a.u.)^3
     number of atoms/cell      =           23
     number of atomic types    =            5
     number of electrons       =       277.00
     number of Kohn-Sham states=          167
     kinetic-energy cutoff     =     120.0000  Ry
     charge density cutoff     =     480.0000  Ry
     scf convergence threshold =      1.0E-03
     mixing beta               =       0.7000
     number of iterations used =            8  TF        mixing
     energy convergence thresh.=      0.0E+00
     force convergence thresh. =      0.0E+00
     Exchange-correlation=  SLA  PW   PBX  PBC
                           (   1   4   3   4   0   0   0)
     nstep                     =           20


     celldm(1)=  16.138261  celldm(2)=   0.000000  celldm(3)=   0.000000
     celldm(4)=   0.000000  celldm(5)=   0.000000  celldm(6)=   0.000000

     crystal axes: (cart. coord. in units of alat)
               a(1) = (   1.000000   0.000000   0.000000 )  
               a(2) = (   0.000000   1.016393   0.000000 )  
               a(3) = (   0.000000   0.000000   1.188496 )  

     reciprocal axes: (cart. coord. in units 2 pi/alat)
               b(1) = (  1.000000  0.000000  0.000000 )  
               b(2) = (  0.000000  0.983871  0.000000 )  
               b(3) = (  0.000000  0.000000  0.841400 )  


     PseudoPot. # 1 for Hf read from file:
     q-e/pseudo/hf_pbe_v1.uspp.F.UPF
     MD5 check sum: 8ee9378dfe14276e333edf04c5e4aa26
     Pseudo is Ultrasoft + core correction, Zval = 12.0
     Generated by new atomic code, or converted to UPF format
     Using radial grid of  921 points,  8 beta functions with: 
                l(1) =   0
                l(2) =   0
                l(3) =   0
                l(4) =   1
                l(5) =   1
                l(6) =   2
                l(7) =   2
                l(8) =   3
     Q(r) pseudized with  6 coefficients,  rinner =    1.200   1.200   1.200
                                                       1.200   1.200   1.200
                                                       1.200

     PseudoPot. # 2 for Nb read from file:
     q-e/pseudo/nb_pbe_v1.uspp.F.UPF
     MD5 check sum: 573aab8a2fa660278ed4a62cd769473f
     Pseudo is Ultrasoft + core correction, Zval = 13.0
     Generated by new atomic code, or converted to UPF format
     Using radial grid of  887 points,  6 beta functions with: 
                l(1) =   0
                l(2) =   0
                l(3) =   1
                l(4) =   1
                l(5) =   2
                l(6) =   2
     Q(r) pseudized with  6 coefficients,  rinner =    1.000   1.000   1.000
                                                       1.000   1.000

     PseudoPot. # 3 for Ta read from file:
     q-e/pseudo/ta_pbe_v1.uspp.F.UPF
     MD5 check sum: f8bbe9446314a3b8ea5d9f3e3836c939
     Pseudo is Ultrasoft + core correction, Zval = 13.0
     Generated by new atomic code, or converted to UPF format
     Using radial grid of  921 points,  7 beta functions with: 
                l(1) =   0
                l(2) =   0
                l(3) =   1
                l(4) =   1
                l(5) =   2
                l(6) =   2
                l(7) =   3
     Q(r) pseudized with  6 coefficients,  rinner =    1.300   1.300   1.300
                                                       1.300   1.300   1.300
                                                       1.300

     PseudoPot. # 4 for Zr read from file:
     q-e/pseudo/zr_pbe_v1.uspp.F.UPF
     MD5 check sum: 5db81b1e868ab7776c4564c113de050b
     Pseudo is Ultrasoft + core correction, Zval = 12.0
     Generated by new atomic code, or converted to UPF format
     Using radial grid of  887 points,  6 beta functions with: 
                l(1) =   0
                l(2) =   0
                l(3) =   1
                l(4) =   1
                l(5) =   2
                l(6) =   2
     Q(r) pseudized with  6 coefficients,  rinner =    1.200   1.200   1.200
                                                       1.200   1.200

     PseudoPot. # 5 for H  read from file:
     q-e/pseudo/h_pbe_v1.4.uspp.F.UPF
     MD5 check sum: 761ae9a214b05c3daf00ab9f6b793d6f
     Pseudo is Ultrasoft, Zval =  1.0
     Generated by new atomic code, or converted to UPF format
     Using radial grid of  615 points,  2 beta functions with: 
                l(1) =   0
                l(2) =   0
     Q(r) pseudized with  8 coefficients,  rinner =    0.700

     atomic species   valence    mass     pseudopotential
        Hf            12.00   178.49000     Hf( 1.00)
        Nb            13.00    92.90637     Nb( 1.00)
        Ta            13.00   180.94788     Ta( 1.00)
        Zr            12.00    91.22400     Zr( 1.00)
        H              1.00     2.01400     H ( 1.00)

     Starting magnetic structure 
     atomic species   magnetization
        Hf           0.000
        Nb           0.000
        Ta           0.000
        Zr           0.000
        H            0.000

     No symmetry found



   Cartesian axes

     site n.     atom                  positions (alat units)
         1           Hf  tau(   1) = (   0.3126464   0.3310449   0.7732979  )
         2           Hf  tau(   2) = (   0.1467202   0.1506188   0.5923263  )
         3           Hf  tau(   3) = (   0.1470125   0.8653167   0.5957925  )
         4           Hf  tau(   4) = (   0.4785725   0.1506188   0.5923263  )
         5           Hf  tau(   5) = (   0.4782802   0.8653167   0.5957925  )
         6           Nb  tau(   6) = (   0.3126464   0.3275094   0.4116608  )
         7           Nb  tau(   7) = (   0.3126464   0.6881006   0.7769319  )
         8           Ta  tau(   8) = (   0.1416128   0.5083054   0.5938087  )
         9           Ta  tau(   9) = (   0.4836800   0.5083054   0.5938087  )
        10           Ta  tau(  10) = (   0.1530741   0.1538785   0.2410748  )
        11           Ta  tau(  11) = (   0.1525513   0.1532074   0.9478430  )
        12           Ta  tau(  12) = (   0.1526943   0.8636799   0.2396062  )
        13           Ta  tau(  13) = (   0.1531277   0.8624219   0.9468387  )
        14           Ta  tau(  14) = (   0.4722187   0.1538785   0.2410748  )
        15           Ta  tau(  15) = (   0.4727414   0.1532074   0.9478430  )
        16           Ta  tau(  16) = (   0.4725984   0.8636799   0.2396062  )
        17           Ta  tau(  17) = (   0.4721650   0.8624219   0.9468387  )
        18           Zr  tau(  18) = (   0.3126464   0.6869187   0.4130426  )
        19           Zr  tau(  19) = (   0.1456481   0.5060981   0.2341920  )
        20           Zr  tau(  20) = (   0.1452442   0.5098505   0.9543040  )
        21           Zr  tau(  21) = (   0.4796447   0.5060981   0.2341920  )
        22           Zr  tau(  22) = (   0.4800486   0.5098505   0.9543040  )
        23           H   tau(  23) = (   0.6161590   0.4419572   0.7086623  )

     number of k points=     1  Gaussian smearing, width (Ry)=  0.0220
                       cart. coord. in units 2pi/alat
        k(    1) = (   0.0000000   0.0000000   0.0000000), wk =   1.0000000

     Dense  grid:   450774 G-vectors     FFT dimensions: ( 120, 120, 135)

     Estimated max dynamical RAM per process >     123.77 MB

     Estimated total dynamical RAM >       5.08 GB

     Check: negative core charge=   -0.000002
     Generating pointlists ...
     new r_m :   0.1222 (alat units)  1.9717 (a.u.) for type    1
     new r_m :   0.1201 (alat units)  1.9374 (a.u.) for type    2
     new r_m :   0.0773 (alat units)  1.2480 (a.u.) for type    3
     new r_m :   0.1192 (alat units)  1.9234 (a.u.) for type    4
     new r_m :   0.0773 (alat units)  1.2480 (a.u.) for type    5

     Initial potential from superposition of free atoms

     starting charge     266.9726, renormalised to     277.0000

     negative rho (up, down):  9.226E-01 9.226E-01
     Starting wfcs are  287 randomized atomic wfcs

     total cpu time spent up to now is       11.2 secs

     Self-consistent Calculation

     iteration #  1     ecut=   120.00 Ry     beta= 0.70
     Davidson diagonalization with overlap
     ethr =  1.00E-02,  avg # of iterations =  2.0

     negative rho (up, down):  9.862E-01 9.859E-01

     total cpu time spent up to now is       26.9 secs

     total energy              =   -2931.79435065 Ry
     estimated scf accuracy    <     287.91973921 Ry

     total magnetization       =    -0.00 Bohr mag/cell
     absolute magnetization    =     0.11 Bohr mag/cell

     iteration #  2     ecut=   120.00 Ry     beta= 0.70
     Davidson diagonalization with overlap
     ethr =  1.00E-02,  avg # of iterations =  4.5

     negative rho (up, down):  9.406E-01 9.458E-01

     total cpu time spent up to now is       43.9 secs

     total energy              =   -2942.22570861 Ry
     estimated scf accuracy    <      34.69867101 Ry

     total magnetization       =     0.03 Bohr mag/cell
     absolute magnetization    =     0.51 Bohr mag/cell

     iteration #  3     ecut=   120.00 Ry     beta= 0.70
     Davidson diagonalization with overlap
     ethr =  1.00E-02,  avg # of iterations =  2.0

     negative rho (up, down):  9.667E-01 9.754E-01

     total cpu time spent up to now is       59.0 secs

     total energy              =   -2942.69808321 Ry
     estimated scf accuracy    <      14.66826253 Ry

     total magnetization       =    -0.06 Bohr mag/cell
     absolute magnetization    =     0.72 Bohr mag/cell

     iteration #  4     ecut=   120.00 Ry     beta= 0.70
     Davidson diagonalization with overlap
     ethr =  5.30E-03,  avg # of iterations =  3.5

     negative rho (up, down):  9.631E-01 9.730E-01

     total cpu time spent up to now is       78.5 secs

     total energy              =   -2942.93811866 Ry
     estimated scf accuracy    <       3.24741418 Ry

     total magnetization       =    -0.48 Bohr mag/cell
     absolute magnetization    =     1.14 Bohr mag/cell

     iteration #  5     ecut=   120.00 Ry     beta= 0.70
     Davidson diagonalization with overlap
     ethr =  1.17E-03,  avg # of iterations =  7.0

     negative rho (up, down):  9.423E-01 9.475E-01

     total cpu time spent up to now is      119.0 secs

     total energy              =   -2943.07239973 Ry
     estimated scf accuracy    <       1.68105784 Ry

     total magnetization       =    -0.30 Bohr mag/cell
     absolute magnetization    =     0.61 Bohr mag/cell

     iteration #  6     ecut=   120.00 Ry     beta= 0.70
     Davidson diagonalization with overlap
     ethr =  6.07E-04,  avg # of iterations =  3.5

     negative rho (up, down):  9.297E-01 9.323E-01

     total cpu time spent up to now is      149.5 secs

     total energy              =   -2943.07857405 Ry
     estimated scf accuracy    <       1.02646991 Ry

     total magnetization       =    -0.21 Bohr mag/cell
     absolute magnetization    =     0.48 Bohr mag/cell

     iteration #  7     ecut=   120.00 Ry     beta= 0.70
     Davidson diagonalization with overlap
     ethr =  3.71E-04,  avg # of iterations =  2.0

     negative rho (up, down):  9.113E-01 9.118E-01

     total cpu time spent up to now is      162.9 secs

     total energy              =   -2943.05262214 Ry
     estimated scf accuracy    <       0.28770702 Ry

     total magnetization       =    -0.23 Bohr mag/cell
     absolute magnetization    =     0.45 Bohr mag/cell

     iteration #  8     ecut=   120.00 Ry     beta= 0.70
     Davidson diagonalization with overlap
     ethr =  1.04E-04,  avg # of iterations = 11.5

     negative rho (up, down):  9.067E-01 9.066E-01

     total cpu time spent up to now is      179.6 secs

     total energy              =   -2943.05464836 Ry
     estimated scf accuracy    <       0.22009019 Ry

     total magnetization       =    -0.24 Bohr mag/cell
     absolute magnetization    =     0.39 Bohr mag/cell

     iteration #  9     ecut=   120.00 Ry     beta= 0.70
     Davidson diagonalization with overlap
     ethr =  7.95E-05,  avg # of iterations =  2.0

     negative rho (up, down):  9.081E-01 9.080E-01

     total cpu time spent up to now is      193.3 secs

     total energy              =   -2943.06184311 Ry
     estimated scf accuracy    <       0.05194343 Ry

     total magnetization       =    -0.18 Bohr mag/cell
     absolute magnetization    =     0.30 Bohr mag/cell

     iteration # 10     ecut=   120.00 Ry     beta= 0.70
     Davidson diagonalization with overlap
     ethr =  1.88E-05,  avg # of iterations = 10.0

     negative rho (up, down):  9.089E-01 9.089E-01

     total cpu time spent up to now is      209.8 secs

     total energy              =   -2943.06700401 Ry
     estimated scf accuracy    <       0.02436597 Ry

     total magnetization       =    -0.16 Bohr mag/cell
     absolute magnetization    =     0.25 Bohr mag/cell

     iteration # 11     ecut=   120.00 Ry     beta= 0.70
     Davidson diagonalization with overlap
     ethr =  8.80E-06,  avg # of iterations =  5.5

     negative rho (up, down):  9.097E-01 9.097E-01

     total cpu time spent up to now is      224.4 secs

     total energy              =   -2943.06940506 Ry
     estimated scf accuracy    <       0.00516664 Ry

     total magnetization       =    -0.16 Bohr mag/cell
     absolute magnetization    =     0.23 Bohr mag/cell

     iteration # 12     ecut=   120.00 Ry     beta= 0.70
     Davidson diagonalization with overlap
     ethr =  1.87E-06,  avg # of iterations = 10.5

     negative rho (up, down):  9.097E-01 9.097E-01

     Magnetic moment per site  (integrated on atomic sphere of radius R)
     atom   1 (R=0.122)  charge=  9.4635  magn= -0.0006
     atom   2 (R=0.122)  charge=  9.0548  magn= -0.0002
     atom   3 (R=0.122)  charge=  9.0547  magn= -0.0004
     atom   4 (R=0.122)  charge=  9.0618  magn=  0.0001
     atom   5 (R=0.122)  charge=  9.0568  magn= -0.0001
     atom   6 (R=0.120)  charge= 10.3457  magn=  0.0009
     atom   7 (R=0.120)  charge= 10.3465  magn= -0.0006
     atom   8 (R=0.077)  charge=  5.9556  magn=  0.0002
     atom   9 (R=0.077)  charge=  5.9704  magn=  0.0002
     atom  10 (R=0.077)  charge=  5.9373  magn= -0.0025
     atom  11 (R=0.077)  charge=  5.9361  magn= -0.0004
     atom  12 (R=0.077)  charge=  5.9367  magn= -0.0027
     atom  13 (R=0.077)  charge=  5.9364  magn= -0.0004
     atom  14 (R=0.077)  charge=  5.9365  magn= -0.0014
     atom  15 (R=0.077)  charge=  5.9376  magn= -0.0012
     atom  16 (R=0.077)  charge=  5.9371  magn= -0.0034
     atom  17 (R=0.077)  charge=  5.9353  magn= -0.0001
     atom  18 (R=0.119)  charge=  9.2843  magn=  0.0007
     atom  19 (R=0.119)  charge=  8.8702  magn= -0.0115
     atom  20 (R=0.119)  charge=  8.8642  magn=  0.0029
     atom  21 (R=0.119)  charge=  8.8685  magn= -0.0110
     atom  22 (R=0.119)  charge=  8.8619  magn=  0.0026
     atom  23 (R=0.077)  charge=  0.8997  magn=  0.0000

     total cpu time spent up to now is      243.8 secs

     End of self-consistent calculation

 ------ SPIN UP ------------


          k = 0.0000 0.0000 0.0000 ( 56324 PWs)   bands (ev):

   -59.7653 -59.7630 -59.7211 -59.7155 -59.6810 -59.6798 -59.6358 -59.6290
   -59.5014 -59.1881 -53.3673 -53.3215 -53.2413 -53.1966 -51.6937 -45.2045
   -45.1998 -40.6311 -40.5843 -40.5309 -40.4815 -38.7714 -26.7634 -26.7560
   -26.6746 -26.6723 -26.5771 -26.5709 -26.4503 -26.4396 -26.3428 -26.3140
   -26.2780 -26.2484 -26.2420 -26.2090 -26.1962 -26.1521 -26.1346 -26.1171
   -26.0578 -25.9490 -25.9422 -25.9376 -25.9256 -25.9037 -25.8741 -25.8632
   -25.8476 -25.8374 -25.8360 -25.8272 -23.1485 -22.9405 -22.6321 -22.5511
   -22.2962 -22.1569 -22.1223 -22.0340 -21.9093 -21.8355 -21.8196 -21.6064
   -21.4516 -21.4034 -21.3543 -21.3046 -21.2432 -21.1894 -20.7385 -20.7116
   -20.6132 -19.1506 -18.9229 -18.7909 -18.7757 -18.6096 -18.5917 -18.5625
   -18.5544 -18.5211 -18.5190 -18.3458 -18.3201 -17.1303 -16.9050 -16.7811
     2.2718   3.2970   3.9540   4.1712   4.3391   4.4606   4.5390   4.6814
     4.7594   4.8044   4.9595   5.0281   5.2722   5.4363   5.6232   5.7082
     5.7601   5.9611   6.0532   6.1135   6.1373   6.2850   6.3110   6.3712
     6.4227   6.5808   6.6240   6.7442   6.7557   6.7755   6.7930   6.9001
     6.9683   7.0885   7.1790   7.2807   7.2889   7.3379   7.3864   7.3998
     7.4469   7.6442   7.6927   7.7929   7.8904   7.9719   8.0202   8.1253
     8.2145   8.2221   8.3149   8.3277   8.4179   8.4706   8.5495   8.5707
     8.6414   8.7125   8.9044   9.0252   9.1081   9.1361   9.2365   9.3342
     9.3479   9.3693   9.3749   9.4412   9.4710   9.6033   9.6879   9.7957
     9.9046   9.9684  10.1029  10.1144  10.1956  10.2791  10.3043

 ------ SPIN DOWN ----------


          k = 0.0000 0.0000 0.0000 ( 56324 PWs)   bands (ev):

   -59.7694 -59.7634 -59.7214 -59.7203 -59.6869 -59.6806 -59.6413 -59.6303
   -59.5004 -59.1867 -53.3672 -53.3213 -53.2411 -53.1965 -51.6941 -45.2050
   -45.1989 -40.6284 -40.5963 -40.5281 -40.4935 -38.7706 -26.7657 -26.7611
   -26.6790 -26.6755 -26.5829 -26.5724 -26.4532 -26.4461 -26.3438 -26.3171
   -26.2785 -26.2497 -26.2468 -26.2114 -26.2012 -26.1530 -26.1408 -26.1179
   -26.0566 -25.9510 -25.9475 -25.9385 -25.9297 -25.9054 -25.8752 -25.8690
   -25.8500 -25.8395 -25.8367 -25.8284 -23.1485 -22.9403 -22.6322 -22.5512
   -22.2960 -22.1566 -22.1221 -22.0340 -21.9091 -21.8354 -21.8195 -21.6062
   -21.4518 -21.4033 -21.3545 -21.3044 -21.2433 -21.1892 -20.7388 -20.7117
   -20.6136 -19.1625 -18.9168 -18.8047 -18.7880 -18.6083 -18.5888 -18.5678
   -18.5587 -18.5333 -18.5185 -18.3413 -18.3360 -17.1298 -16.9048 -16.7822
     2.2708   3.2960   3.9483   4.1696   4.3383   4.4591   4.5344   4.6796
     4.7580   4.8022   4.9549   5.0251   5.2702   5.4340   5.6207   5.7058
     5.7568   5.9580   6.0505   6.1079   6.1338   6.2812   6.3078   6.3660
     6.4194   6.5782   6.6225   6.7393   6.7528   6.7727   6.7892   6.8992
     6.9663   7.0838   7.1739   7.2777   7.2863   7.3332   7.3822   7.3976
     7.4431   7.6408   7.6896   7.7897   7.8848   7.9668   8.0088   8.1177
     8.2008   8.2100   8.3083   8.3209   8.4043   8.4591   8.5404   8.5598
     8.6354   8.7065   8.8997   9.0201   9.0993   9.1308   9.2299   9.3244
     9.3443   9.3605   9.3686   9.4351   9.4665   9.5963   9.6826   9.7914
     9.8984   9.9629  10.0946  10.1103  10.1940  10.2754  10.3001

     the Fermi energy is     8.2874 ev

!    total energy              =   -2943.07093537 Ry
     estimated scf accuracy    <       0.00075735 Ry
     smearing contrib. (-TS)   =      -0.10504395 Ry
     internal energy E=F+TS    =   -2942.96589142 Ry

     total magnetization       =    -0.15 Bohr mag/cell
     absolute magnetization    =     0.21 Bohr mag/cell

     convergence has been achieved in  12 iterations

     negative rho (up, down):  9.097E-01 9.097E-01

     Forces acting on atoms (cartesian axes, Ry/au):

     atom    1 type  1   force =    -0.02242552   -0.02056395    0.00101283
     atom    2 type  1   force =    -0.12005094   -0.01464290   -0.00328215
     atom    3 type  1   force =    -0.12051041    0.01351739    0.00177134
     atom    4 type  1   force =     0.12240582   -0.01967111   -0.00458551
     atom    5 type  1   force =     0.11936219    0.01495852   -0.00317414
     atom    6 type  2   force =    -0.00187585   -0.01930233    0.00590053
     atom    7 type  2   force =    -0.00278571    0.01305578   -0.00659013
     atom    8 type  3   force =    -0.11795659   -0.00338155    0.00211320
     atom    9 type  3   force =     0.03431109    0.07097265   -0.09880301
     atom   10 type  3   force =    -0.02685997   -0.02895580   -0.06052647
     atom   11 type  3   force =    -0.01309576   -0.03480021    0.06125400
     atom   12 type  3   force =    -0.01745207    0.03509624   -0.05243271
     atom   13 type  3   force =    -0.02395025    0.02671837    0.06155959
     atom   14 type  3   force =     0.02664788   -0.02917749   -0.05417051
     atom   15 type  3   force =     0.01431036   -0.04535213    0.05715096
     atom   16 type  3   force =     0.02027007    0.03213269   -0.05186402
     atom   17 type  3   force =     0.02020725    0.03377734    0.06045591
     atom   18 type  4   force =    -0.01055513    0.02629815   -0.01574771
     atom   19 type  4   force =    -0.13607539   -0.00513412   -0.11740333
     atom   20 type  4   force =    -0.13702703    0.00481901    0.11617750
     atom   21 type  4   force =     0.13482467   -0.00296491   -0.12061020
     atom   22 type  4   force =     0.15447130    0.00809727    0.10822058
     atom   23 type  5   force =     0.10381001   -0.05549692    0.11357347
     The non-local contrib.  to forces
     atom    1 type  1   force =     0.00825558   -0.00348152    0.02689552
     atom    2 type  1   force =    -0.24461409   -0.16252182    0.01906242
     atom    3 type  1   force =    -0.24258824    0.16200514   -0.02998276
     atom    4 type  1   force =     0.27174972   -0.14652310    0.04156507
     atom    5 type  1   force =     0.24132192    0.15938807   -0.02104393
     atom    6 type  2   force =    -0.00073392   -0.06111566   -0.06323322
     atom    7 type  2   force =    -0.00586726    0.06255103    0.05898183
     atom    8 type  3   force =    -0.25026789   -0.00407556    0.00016916
     atom    9 type  3   force =     0.11588025    0.04468218   -0.08373443
     atom   10 type  3   force =    -0.22684847    0.00933482   -0.20923045
     atom   11 type  3   force =    -0.22176132    0.01152693    0.19878373
     atom   12 type  3   force =    -0.21406589   -0.01900418   -0.18644558
     atom   13 type  3   force =    -0.21544925   -0.00907678    0.21183265
     atom   14 type  3   force =     0.21834152    0.00531293   -0.22057931
     atom   15 type  3   force =     0.24699666    0.01554658    0.17334666
     atom   16 type  3   force =     0.20936835   -0.02430606   -0.19165353
     atom   17 type  3   force =     0.21794737    0.00185367    0.19882742
     atom   18 type  4   force =     0.00734882    0.06678393   -0.06432413
     atom   19 type  4   force =     0.06337996    0.00714834    0.07190441
     atom   20 type  4   force =     0.05374356   -0.00700859   -0.05642524
     atom   21 type  4   force =    -0.06352060    0.00187427    0.06843972
     atom   22 type  4   force =    -0.05491523   -0.00968999   -0.07465015
     atom   23 type  5   force =    -0.05907148    0.02878245   -0.03925394
     The ionic contribution  to forces
     atom    1 type  1   force =    -0.63710853   -4.83277323   14.32877211
     atom    2 type  1   force =   -35.69357558   -6.25108216    0.69896390
     atom    3 type  1   force =   -35.65860043    6.17221709   -0.77475855
     atom    4 type  1   force =    35.37682181   -6.67346572    0.51926998
     atom    5 type  1   force =    35.51610947    6.30091694   -0.83386689
     atom    6 type  2   force =    -0.23993084   -3.63841034  -14.38612697
     atom    7 type  2   force =    -0.35816132    3.88312645   14.21673481
     atom    8 type  3   force =   -47.63686154    0.13607559   -0.19611057
     atom    9 type  3   force =    45.61577951    1.05282209   -1.78730879
     atom   10 type  3   force =   -32.20032524   -2.13560385  -23.47597158
     atom   11 type  3   force =   -31.29043731   -0.93718295   22.53765450
     atom   12 type  3   force =   -31.38023669    0.80775481  -22.51317483
     atom   13 type  3   force =   -32.18451256    2.22199881   23.48823222
     atom   14 type  3   force =    32.12718401   -2.17992724  -23.53962514
     atom   15 type  3   force =    31.07136560   -1.16712682   22.74449884
     atom   16 type  3   force =    31.32686512    0.82784223  -22.54881184
     atom   17 type  3   force =    32.06521175    2.30597027   23.57393011
     atom   18 type  4   force =    -0.14823955    4.47783207  -14.23013798
     atom   19 type  4   force =   -32.18106655    0.98035100  -25.93347570
     atom   20 type  4   force =   -32.18678489   -0.91284807   26.00216788
     atom   21 type  4   force =    32.08542100    1.00046704  -26.05064075
     atom   22 type  4   force =    31.66653399   -0.71722864   26.71370461
     atom   23 type  5   force =     4.94454876   -0.72172538    1.44608066
     The local contribution  to forces
     atom    1 type  1   force =     0.59786333    4.80823245  -14.35735613
     atom    2 type  1   force =    35.82789506    6.39733048   -0.72508801
     atom    3 type  1   force =    35.78668130   -6.31997437    0.80380607
     atom    4 type  1   force =   -35.53637958    6.79413175   -0.57182107
     atom    5 type  1   force =   -35.64611248   -6.43811819    0.84344102
     atom    6 type  2   force =     0.23337050    3.68724807   14.44759622
     atom    7 type  2   force =     0.35230710   -3.93524800  -14.28620674
     atom    8 type  3   force =    47.77685952   -0.13390195    0.18442999
     atom    9 type  3   force =   -45.69827095   -1.03293790    1.76863924
     atom   10 type  3   force =    32.41291073    2.08818511   23.63740344
     atom   11 type  3   force =    31.52025153    0.87996349  -22.69062802
     atom   12 type  3   force =    31.59410021   -0.74523593   22.65829237
     atom   13 type  3   force =    32.39042461   -2.17656183  -23.65170766
     atom   14 type  3   force =   -32.33576675    2.13693525   23.71935463
     atom   15 type  3   force =   -31.32947111    1.09747698  -22.87197055
     atom   16 type  3   force =   -31.53494429   -0.76435427   22.70047078
     atom   17 type  3   force =   -32.28204618   -2.26315671  -23.72129692
     atom   18 type  4   force =     0.12525659   -4.52322943   14.26618298
     atom   19 type  4   force =    31.98972760   -0.99258689   25.75131115
     atom   20 type  4   force =    31.99767647    0.92409493  -25.82995115
     atom   21 type  4   force =   -31.89820993   -1.00488647   25.86592823
     atom   22 type  4   force =   -31.46135025    0.73218722  -26.52861141
     atom   23 type  5   force =    -4.77983000    0.63724392   -1.29412203
     The core correction contribution to forces
     atom    1 type  1   force =     0.00326257    0.00449620   -0.00149959
     atom    2 type  1   force =    -0.01219216   -0.00162107    0.00011915
     atom    3 type  1   force =    -0.01146737    0.00282304   -0.00231855
     atom    4 type  1   force =     0.01297271   -0.00160814    0.00288720
     atom    5 type  1   force =     0.01201187    0.00210839    0.00127355
     atom    6 type  2   force =     0.00002291    0.00272322    0.00256550
     atom    7 type  2   force =     0.00025280   -0.00307386   -0.00213287
     atom    8 type  3   force =    -0.02851953   -0.00132770    0.00146410
     atom    9 type  3   force =     0.01348500    0.00604604   -0.01059339
     atom   10 type  3   force =    -0.02216721    0.00978870   -0.01540320
     atom   11 type  3   force =    -0.02376001    0.00990612    0.01707002
     atom   12 type  3   force =    -0.02227487   -0.00920170   -0.01481908
     atom   13 type  3   force =    -0.02348343   -0.00811287    0.01799142
     atom   14 type  3   force =     0.02269271    0.00893634   -0.01658587
     atom   15 type  3   force =     0.02674456    0.01003579    0.01375979
     atom   16 type  3   force =     0.02186811   -0.00923328   -0.01579582
     atom   17 type  3   force =     0.02277676   -0.00760530    0.01441593
     atom   18 type  4   force =    -0.00030447   -0.00400476    0.00338329
     atom   19 type  4   force =    -0.00990174    0.00016929   -0.00959144
     atom   20 type  4   force =    -0.00942496   -0.00003809    0.00876107
     atom   21 type  4   force =     0.00983420    0.00042751   -0.00953825
     atom   22 type  4   force =     0.00984507   -0.00017114    0.00945440
     atom   23 type  5   force =     0.00000000    0.00000000    0.00000000
     The Hubbard contrib.    to forces
     atom    1 type  1   force =     0.00000000    0.00000000    0.00000000
     atom    2 type  1   force =     0.00000000    0.00000000    0.00000000
     atom    3 type  1   force =     0.00000000    0.00000000    0.00000000
     atom    4 type  1   force =     0.00000000    0.00000000    0.00000000
     atom    5 type  1   force =     0.00000000    0.00000000    0.00000000
     atom    6 type  2   force =     0.00000000    0.00000000    0.00000000
     atom    7 type  2   force =     0.00000000    0.00000000    0.00000000
     atom    8 type  3   force =     0.00000000    0.00000000    0.00000000
     atom    9 type  3   force =     0.00000000    0.00000000    0.00000000
     atom   10 type  3   force =     0.00000000    0.00000000    0.00000000
     atom   11 type  3   force =     0.00000000    0.00000000    0.00000000
     atom   12 type  3   force =     0.00000000    0.00000000    0.00000000
     atom   13 type  3   force =     0.00000000    0.00000000    0.00000000
     atom   14 type  3   force =     0.00000000    0.00000000    0.00000000
     atom   15 type  3   force =     0.00000000    0.00000000    0.00000000
     atom   16 type  3   force =     0.00000000    0.00000000    0.00000000
     atom   17 type  3   force =     0.00000000    0.00000000    0.00000000
     atom   18 type  4   force =     0.00000000    0.00000000    0.00000000
     atom   19 type  4   force =     0.00000000    0.00000000    0.00000000
     atom   20 type  4   force =     0.00000000    0.00000000    0.00000000
     atom   21 type  4   force =     0.00000000    0.00000000    0.00000000
     atom   22 type  4   force =     0.00000000    0.00000000    0.00000000
     atom   23 type  5   force =     0.00000000    0.00000000    0.00000000
     The SCF correction term to forces
     atom    1 type  1   force =     0.00000000    0.00000000    0.00000000
     atom    2 type  1   force =     0.00000000    0.00000000    0.00000000
     atom    3 type  1   force =     0.00000000   -0.00000000    0.00000000
     atom    4 type  1   force =    -0.00000000    0.00000000    0.00000000
     atom    5 type  1   force =    -0.00000000   -0.00000000    0.00000000
     atom    6 type  2   force =     0.00000000   -0.00000000    0.00000000
     atom    7 type  2   force =     0.00000000    0.00000000    0.00000000
     atom    8 type  3   force =     0.00000000   -0.00000000    0.00000000
     atom    9 type  3   force =    -0.00000000    0.00000000    0.00000000
     atom   10 type  3   force =     0.00933096   -0.00072839    0.00227001
     atom   11 type  3   force =     0.00237208    0.00091838   -0.00203153
     atom   12 type  3   force =     0.00478590    0.00071542    0.00330910
     atom   13 type  3   force =     0.00883111   -0.00159676   -0.00519434
     atom   14 type  3   force =    -0.00604289   -0.00050259    0.00285988
     atom   15 type  3   force =    -0.00156462   -0.00135248   -0.00288910
     atom   16 type  3   force =    -0.00312647    0.00211626    0.00352109
     atom   17 type  3   force =    -0.00392172   -0.00335240   -0.00582595
     atom   18 type  4   force =     0.00514422    0.00884853    0.00874282
     atom   19 type  4   force =     0.00154608   -0.00028367    0.00204294
     atom   20 type  4   force =     0.00752353    0.00055101   -0.00878036
     atom   21 type  4   force =     0.00106072   -0.00091508    0.00479554
     atom   22 type  4   force =    -0.00588155    0.00293201   -0.01208217
     atom   23 type  5   force =    -0.00207654    0.00013427    0.00046346

     Total force =     0.447083     Total SCF correction =     0.030505


     Computing stress (Cartesian axis) and pressure


     negative rho (up, down):  9.097E-01 9.097E-01
          total   stress  (Ry/bohr**3)                   (kbar)     P=       92.96
   0.00069628  -0.00001559   0.00004668          102.43       -2.29        6.87
  -0.00001559   0.00074941  -0.00004053           -2.29      110.24       -5.96
   0.00004668  -0.00004053   0.00045003            6.87       -5.96       66.20


     Molecular Dynamics Calculation

     Starting temperature  =   300.00 K

     temperature is set once at start

     mass Hf               =   178.49
     mass Nb               =    92.91
     mass Ta               =   180.95
     mass Zr               =    91.22
     mass H                =     2.01
     Time step             =     4.20 a.u.,  0.2032 femto-seconds

     Entering Dynamics:    iteration =     1
                           time      =   0.0002 pico-seconds


ATOMIC_POSITIONS (angstrom)
Hf            2.6699999570        2.8271230292        6.6039642186    0   0   0
Hf            1.2529906802        1.2862841814        5.0584662261    0   0   0
Hf            1.2554868986        7.3898042948        5.0880677674    0   0   0
Hf            4.0870092338        1.2862841814        5.0584662261    0   0   0
Hf            4.0845130154        7.3898042948        5.0880677674    0   0   0
Nb            2.6699999570        2.7969306055        3.5155832167    0   0   0
Nb            2.6699999570        5.8763786763        6.6349979432    0   0   0
Ta            1.2093730560        4.3409278516        5.0711258323    0   0   0
Ta            4.1306268580        4.3409278516        5.0711258323    0   0   0
Ta            1.3072519240        1.3141217700        2.0587773972
Ta            1.3027879436        1.3083901512        8.0945809359
Ta            1.3040091282        7.3758271173        2.0462356960
Ta            1.3077101206        7.3650837045        8.0860039629
Ta            4.0327479840        1.3141217637        2.0587775771
Ta            4.0372120048        1.3083898525        8.0945808198
Ta            4.0359908655        7.3758270335        2.0462357120
Ta            4.0322896875        7.3650839043        8.0860039317
Zr            2.6699993645        5.8662873196        3.5273830464
Zr            1.2438269805        4.3220776763        1.9999934096
Zr            1.2403777207        4.3541235550        8.1497620709
Zr            4.0961728633        4.3220777981        1.9999932296
Zr            4.0996231725        4.3541237390        8.1497616242
H             5.1919403553        3.8093340686        5.9913667518


     kinetic energy (Ekin) =           1.83759633 Ry
     temperature           =       13815.88157946 K 
     Ekin + Etot (const)   =       -2941.23333904 Ry
     Ions kinetic stress =           35.49 (kbar)
                                     53.24         -26.62          46.11
                                    -26.62          13.31         -23.05
                                     46.11         -23.05          39.93



     File outdir/pwscf.msd.dat deleted, as requested

     Writing config-only to output data dir outdir/pwscf.save/
     NEW-OLD atomic charge density approx. for the potential

     Check: negative core charge=   -0.000002

     negative rho (up, down):  9.096E-01 9.096E-01
     Generating pointlists ...
     new r_m :   0.0725 (alat units)  1.1708 (a.u.) for type    3
     new r_m :   0.0725 (alat units)  1.1708 (a.u.) for type    5

     total cpu time spent up to now is      268.3 secs

     Self-consistent Calculation

     iteration #  1     ecut=   120.00 Ry     beta= 0.70
     Davidson diagonalization with overlap
     ethr =  1.00E-06,  avg # of iterations =  8.5

     negative rho (up, down):  9.098E-01 9.098E-01

     total cpu time spent up to now is      297.8 secs

     total energy              =   -2943.02747970 Ry
     estimated scf accuracy    <       0.04479355 Ry

     total magnetization       =    -0.14 Bohr mag/cell
     absolute magnetization    =     0.19 Bohr mag/cell

     iteration #  2     ecut=   120.00 Ry     beta= 0.70
     Davidson diagonalization with overlap
     ethr =  1.62E-05,  avg # of iterations =  2.0

     negative rho (up, down):  9.097E-01 9.097E-01

     total cpu time spent up to now is      312.7 secs

     total energy              =   -2943.03128886 Ry
     estimated scf accuracy    <       0.01614978 Ry

     total magnetization       =    -0.14 Bohr mag/cell
     absolute magnetization    =     0.18 Bohr mag/cell

     iteration #  3     ecut=   120.00 Ry     beta= 0.70
     Davidson diagonalization with overlap
     ethr =  5.83E-06,  avg # of iterations =  1.0

     negative rho (up, down):  9.096E-01 9.096E-01

     total cpu time spent up to now is      325.2 secs

     total energy              =   -2943.03225350 Ry
     estimated scf accuracy    <       0.00131912 Ry

     total magnetization       =    -0.14 Bohr mag/cell
     absolute magnetization    =     0.17 Bohr mag/cell

     iteration #  4     ecut=   120.00 Ry     beta= 0.70
     Davidson diagonalization with overlap
     ethr =  4.76E-07,  avg # of iterations =  2.0

     negative rho (up, down):  9.095E-01 9.095E-01

     Magnetic moment per site  (integrated on atomic sphere of radius R)
     atom   1 (R=0.122)  charge=  9.4661  magn= -0.0003
     atom   2 (R=0.122)  charge=  9.0552  magn= -0.0004
     atom   3 (R=0.122)  charge=  9.0559  magn= -0.0005
     atom   4 (R=0.122)  charge=  9.0601  magn= -0.0003
     atom   5 (R=0.122)  charge=  9.0582  magn= -0.0004
     atom   6 (R=0.120)  charge= 10.3490  magn=  0.0003
     atom   7 (R=0.120)  charge= 10.3486  magn= -0.0006
     atom   8 (R=0.073)  charge=  5.2460  magn= -0.0000
     atom   9 (R=0.073)  charge=  5.2657  magn= -0.0000
     atom  10 (R=0.073)  charge=  5.2317  magn= -0.0014
     atom  11 (R=0.073)  charge=  5.2303  magn= -0.0004
     atom  12 (R=0.073)  charge=  5.2313  magn= -0.0018
     atom  13 (R=0.073)  charge=  5.2316  magn= -0.0004
     atom  14 (R=0.073)  charge=  5.2315  magn= -0.0010
     atom  15 (R=0.073)  charge=  5.2312  magn= -0.0009
     atom  16 (R=0.073)  charge=  5.2315  magn= -0.0021
     atom  17 (R=0.073)  charge=  5.2313  magn= -0.0003
     atom  18 (R=0.119)  charge=  9.2841  magn=  0.0005
     atom  19 (R=0.119)  charge=  8.8665  magn= -0.0082
     atom  20 (R=0.119)  charge=  8.8656  magn=  0.0020
     atom  21 (R=0.119)  charge=  8.8658  magn= -0.0079
     atom  22 (R=0.119)  charge=  8.8633  magn=  0.0017
     atom  23 (R=0.073)  charge=  0.8787  magn= -0.0000

     total cpu time spent up to now is      339.7 secs

     End of self-consistent calculation

 ------ SPIN UP ------------


          k = 0.0000 0.0000 0.0000 ( 56324 PWs)   bands (ev):

   -59.7700 -59.7674 -59.7253 -59.7192 -59.6847 -59.6807 -59.6386 -59.6304
   -59.4953 -59.1219 -53.3718 -53.3259 -53.2471 -53.2019 -51.6963 -45.2230
   -45.2090 -40.6398 -40.5920 -40.5356 -40.4875 -38.7975 -26.7689 -26.7625
   -26.6795 -26.6779 -26.5820 -26.5760 -26.4530 -26.4435 -26.3450 -26.3208
   -26.2796 -26.2549 -26.2475 -26.2118 -26.2013 -26.1515 -26.1395 -26.1164
   -26.0534 -25.9479 -25.9467 -25.9420 -25.9296 -25.9093 -25.8793 -25.8674
   -25.8450 -25.8400 -25.8121 -25.7815 -23.1543 -22.9450 -22.6408 -22.5580
   -22.3017 -22.1638 -22.1308 -22.0407 -21.9155 -21.8411 -21.8272 -21.6129
   -21.4667 -21.4175 -21.3645 -21.3146 -21.2545 -21.1994 -20.7439 -20.7119
   -20.6185 -19.1578 -18.9316 -18.7992 -18.7808 -18.6185 -18.5990 -18.5701
   -18.5646 -18.5276 -18.5233 -18.3525 -18.3244 -17.1589 -16.9260 -16.8024
     2.2278   3.2114   3.9430   4.1613   4.3307   4.4541   4.5298   4.6709
     4.7543   4.8015   4.9503   5.0200   5.2686   5.4270   5.6057   5.7021
     5.7505   5.9521   6.0445   6.1058   6.1265   6.2766   6.3036   6.3653
     6.4168   6.5726   6.6204   6.7375   6.7509   6.7693   6.7841   6.8985
     6.9628   7.0858   7.1723   7.2747   7.2798   7.3340   7.3802   7.3905
     7.4385   7.6402   7.6886   7.7934   7.8899   7.9691   8.0131   8.1218
     8.2064   8.2089   8.3032   8.3199   8.4100   8.4617   8.5456   8.5552
     8.6319   8.7037   8.8968   9.0189   9.1045   9.1316   9.2317   9.3291
     9.3440   9.3613   9.3716   9.4407   9.4657   9.6029   9.6839   9.7912
     9.9053   9.9684  10.0926  10.1096  10.1871  10.2729  10.3023

 ------ SPIN DOWN ----------


          k = 0.0000 0.0000 0.0000 ( 56324 PWs)   bands (ev):

   -59.7732 -59.7682 -59.7261 -59.7228 -59.6892 -59.6818 -59.6429 -59.6320
   -59.4952 -59.1219 -53.3720 -53.3261 -53.2473 -53.2021 -51.6965 -45.2227
   -45.2095 -40.6380 -40.6000 -40.5338 -40.4953 -38.7972 -26.7715 -26.7669
   -26.6835 -26.6811 -26.5865 -26.5778 -26.4557 -26.4488 -26.3463 -26.3232
   -26.2803 -26.2559 -26.2515 -26.2141 -26.2051 -26.1532 -26.1441 -26.1176
   -26.0536 -25.9530 -25.9482 -25.9432 -25.9339 -25.9108 -25.8812 -25.8728
   -25.8499 -25.8421 -25.8126 -25.7818 -23.1547 -22.9453 -22.6413 -22.5583
   -22.3020 -22.1640 -22.1311 -22.0411 -21.9158 -21.8413 -21.8274 -21.6130
   -21.4668 -21.4176 -21.3650 -21.3148 -21.2549 -21.1995 -20.7441 -20.7120
   -20.6188 -19.1662 -18.9274 -18.8082 -18.7890 -18.6173 -18.5972 -18.5750
   -18.5658 -18.5353 -18.5225 -18.3498 -18.3357 -17.1586 -16.9261 -16.8032
     2.2265   3.2098   3.9379   4.1597   4.3293   4.4523   4.5254   4.6693
     4.7524   4.7996   4.9459   5.0170   5.2664   5.4244   5.6032   5.6997
     5.7472   5.9491   6.0418   6.1010   6.1237   6.2733   6.3007   6.3607
     6.4134   6.5704   6.6187   6.7334   6.7479   6.7669   6.7804   6.8969
     6.9608   7.0816   7.1676   7.2719   7.2773   7.3297   7.3764   7.3884
     7.4348   7.6372   7.6860   7.7903   7.8851   7.9646   8.0031   8.1153
     8.1938   8.1992   8.2969   8.3135   8.3995   8.4506   8.5382   8.5442
     8.6263   8.6985   8.8926   9.0142   9.0972   9.1268   9.2264   9.3199
     9.3409   9.3536   9.3663   9.4354   9.4616   9.5969   9.6792   9.7876
     9.9004   9.9635  10.0849  10.1059  10.1849  10.2694  10.2990

     the Fermi energy is     8.2795 ev

!    total energy              =   -2943.03219726 Ry
     estimated scf accuracy    <       0.00021802 Ry
     smearing contrib. (-TS)   =      -0.10572827 Ry
     internal energy E=F+TS    =   -2942.92646899 Ry

     total magnetization       =    -0.14 Bohr mag/cell
     absolute magnetization    =     0.17 Bohr mag/cell

     convergence has been achieved in   4 iterations

     negative rho (up, down):  9.095E-01 9.095E-01

     Forces acting on atoms (cartesian axes, Ry/au):

     atom    1 type  1   force =    -0.02108875   -0.02167317    0.00534147
     atom    2 type  1   force =    -0.11760908   -0.01631767    0.00009194
     atom    3 type  1   force =    -0.11757475    0.01529363    0.00564834
     atom    4 type  1   force =     0.11922640   -0.02051778   -0.00034783
     atom    5 type  1   force =     0.11630139    0.01477112    0.00200088
     atom    6 type  2   force =    -0.00209569   -0.02035169    0.00356462
     atom    7 type  2   force =    -0.00196393    0.01310771   -0.00727026
     atom    8 type  3   force =    -0.11739585   -0.00444256    0.00639079
     atom    9 type  3   force =    -0.03607376    0.10864530   -0.15809197
     atom   10 type  3   force =    -0.02550430   -0.02969371   -0.06298196
     atom   11 type  3   force =    -0.01309159   -0.03526069    0.06006252
     atom   12 type  3   force =    -0.01710255    0.03601511   -0.05341950
     atom   13 type  3   force =    -0.02246911    0.02687725    0.05956284
     atom   14 type  3   force =     0.02535246   -0.03010798   -0.05612383
     atom   15 type  3   force =     0.01398029   -0.04533633    0.05490166
     atom   16 type  3   force =     0.01898886    0.03344961   -0.05317281
     atom   17 type  3   force =     0.01925580    0.03353499    0.05876156
     atom   18 type  4   force =    -0.00818832    0.02877173   -0.01450296
     atom   19 type  4   force =    -0.13573625   -0.00552795   -0.11740793
     atom   20 type  4   force =    -0.13536973    0.00500924    0.11185345
     atom   21 type  4   force =     0.13479278   -0.00394688   -0.12223610
     atom   22 type  4   force =     0.14928284    0.00839299    0.10552003
     atom   23 type  5   force =     0.17408283   -0.09069229    0.17185506
     The non-local contrib.  to forces
     atom    1 type  1   force =     0.00733417   -0.00525178    0.03125535
     atom    2 type  1   force =    -0.24609637   -0.16222508    0.02155369
     atom    3 type  1   force =    -0.24315266    0.16186129   -0.02709401
     atom    4 type  1   force =     0.27057919   -0.14752234    0.04158899
     atom    5 type  1   force =     0.24192006    0.15824112   -0.01901622
     atom    6 type  2   force =    -0.00074860   -0.06168833   -0.06158969
     atom    7 type  2   force =    -0.00547112    0.06165350    0.05978718
     atom    8 type  3   force =    -0.24674876   -0.00377075    0.00309235
     atom    9 type  3   force =     0.12833116    0.04137040   -0.07267386
     atom   10 type  3   force =    -0.22383097    0.00958155   -0.21192850
     atom   11 type  3   force =    -0.21993370    0.01316265    0.19857827
     atom   12 type  3   force =    -0.21240878   -0.01972673   -0.18892486
     atom   13 type  3   force =    -0.21268746   -0.01145305    0.21107994
     atom   14 type  3   force =     0.21618388    0.00495752   -0.22186513
     atom   15 type  3   force =     0.24180049    0.01305678    0.17761563
     atom   16 type  3   force =     0.20790371   -0.02430528   -0.19299547
     atom   17 type  3   force =     0.21569601    0.00071170    0.20010164
     atom   18 type  4   force =     0.00836408    0.06798828   -0.06151993
     atom   19 type  4   force =     0.06480305    0.00736101    0.07364755
     atom   20 type  4   force =     0.05536926   -0.00746192   -0.05953832
     atom   21 type  4   force =    -0.06437361    0.00199530    0.07055043
     atom   22 type  4   force =    -0.05722765   -0.00863404   -0.07624285
     atom   23 type  5   force =    -0.06960545    0.03474173   -0.05067675
     The ionic contribution  to forces
     atom    1 type  1   force =    -0.65524187   -4.85390973   14.35426231
     atom    2 type  1   force =   -35.70364380   -6.25273728    0.70320529
     atom    3 type  1   force =   -35.66541668    6.17613665   -0.77207025
     atom    4 type  1   force =    35.38735046   -6.69085557    0.53026774
     atom    5 type  1   force =    35.51699057    6.31842292   -0.83132351
     atom    6 type  2   force =    -0.25623116   -3.65030052  -14.40085534
     atom    7 type  2   force =    -0.37701435    3.89899666   14.23454324
     atom    8 type  3   force =   -47.66224435    0.13405602   -0.19158876
     atom    9 type  3   force =    45.33892425    1.19106215   -2.02545509
     atom   10 type  3   force =   -32.20382252   -2.13647461  -23.47965180
     atom   11 type  3   force =   -31.29665889   -0.93538911   22.53836930
     atom   12 type  3   force =   -31.38304730    0.80948910  -22.51680569
     atom   13 type  3   force =   -32.18930235    2.22371900   23.49021209
     atom   14 type  3   force =    32.12840936   -2.18343152  -23.54749020
     atom   15 type  3   force =    31.08739104   -1.15705862   22.74187051
     atom   16 type  3   force =    31.32737534    0.83182667  -22.55574713
     atom   17 type  3   force =    32.06957552    2.31079391   23.57943818
     atom   18 type  4   force =    -0.16026345    4.48757596  -14.24123368
     atom   19 type  4   force =   -32.18596122    0.97961924  -25.93907298
     atom   20 type  4   force =   -32.19838080   -0.91572686   26.00485545
     atom   21 type  4   force =    32.08514196    1.00012123  -26.06881143
     atom   22 type  4   force =    31.70145432   -0.73521468   26.72354484
     atom   23 type  5   force =     5.29461593   -0.85072101    1.66953692
     The local contribution  to forces
     atom    1 type  1   force =     0.62583932    4.82659889  -14.36908425
     atom    2 type  1   force =    35.85076627    6.39344151   -0.71573552
     atom    3 type  1   force =    35.80824623   -6.31907298    0.81617450
     atom    4 type  1   force =   -35.55686429    6.81372698   -0.56446128
     atom    5 type  1   force =   -35.65877377   -6.45830137    0.86230426
     atom    6 type  2   force =     0.25580022    3.67617451   14.46810034
     atom    7 type  2   force =     0.38241614   -3.93639401  -14.28767475
     atom    8 type  3   force =    47.82705027   -0.13315035    0.20779320
     atom    9 type  3   force =   -45.51891274   -1.13313266    1.97113235
     atom   10 type  3   force =    32.43051154    2.08010744   23.64211839
     atom   11 type  3   force =    31.53061886    0.87085247  -22.69501937
     atom   12 type  3   force =    31.60616393   -0.73696498   22.66654518
     atom   13 type  3   force =    32.40698581   -2.17019064  -23.66184072
     atom   14 type  3   force =   -32.34497119    2.13036343   23.72607556
     atom   15 type  3   force =   -31.34006946    1.08007538  -22.87988922
     atom   16 type  3   force =   -31.54076136   -0.75545208   22.70821429
     atom   17 type  3   force =   -32.28758237   -2.26109053  -23.73684412
     atom   18 type  4   force =     0.14439705   -4.51110712   14.28910112
     atom   19 type  4   force =    31.99728656   -0.99317290   25.75601861
     atom   20 type  4   force =    32.01981877    0.92773562  -25.84498355
     atom   21 type  4   force =   -31.89605398   -1.00694704   25.88276646
     atom   22 type  4   force =   -31.50881687    0.75321921  -26.55145543
     atom   23 type  5   force =    -5.05245411    0.72518131   -1.44585545
     The core correction contribution to forces
     atom    1 type  1   force =     0.00274642    0.00440073   -0.00121394
     atom    2 type  1   force =    -0.01231406   -0.00157149    0.00024228
     atom    3 type  1   force =    -0.01165742    0.00286426   -0.00220484
     atom    4 type  1   force =     0.01288236   -0.00165423    0.00269260
     atom    5 type  1   force =     0.01203309    0.00221081    0.00110663
     atom    6 type  2   force =     0.00005865    0.00272630    0.00247495
     atom    7 type  2   force =     0.00023722   -0.00300814   -0.00215737
     atom    8 type  3   force =    -0.02832446   -0.00129339    0.00150697
     atom    9 type  3   force =     0.01349905    0.00628984   -0.01116289
     atom   10 type  3   force =    -0.02221442    0.00996859   -0.01567457
     atom   11 type  3   force =    -0.02364552    0.01010202    0.01704657
     atom   12 type  3   force =    -0.02221422   -0.00926157   -0.01494192
     atom   13 type  3   force =    -0.02346833   -0.00833131    0.01807057
     atom   14 type  3   force =     0.02268888    0.00889835   -0.01674401
     atom   15 type  3   force =     0.02622734    0.01003594    0.01427912
     atom   16 type  3   force =     0.02191436   -0.00920389   -0.01597892
     atom   17 type  3   force =     0.02259123   -0.00773615    0.01466392
     atom   18 type  4   force =    -0.00025160   -0.00398253    0.00336418
     atom   19 type  4   force =    -0.00992053    0.00016665   -0.00973549
     atom   20 type  4   force =    -0.00946274   -0.00000702    0.00886035
     atom   21 type  4   force =     0.00986155    0.00041969   -0.00969933
     atom   22 type  4   force =     0.00994321   -0.00021198    0.00943899
     atom   23 type  5   force =     0.00000000    0.00000000    0.00000000
     The Hubbard contrib.    to forces
     atom    1 type  1   force =     0.00000000    0.00000000    0.00000000
     atom    2 type  1   force =     0.00000000    0.00000000    0.00000000
     atom    3 type  1   force =     0.00000000    0.00000000    0.00000000
     atom    4 type  1   force =     0.00000000    0.00000000    0.00000000
     atom    5 type  1   force =     0.00000000    0.00000000    0.00000000
     atom    6 type  2   force =     0.00000000    0.00000000    0.00000000
     atom    7 type  2   force =     0.00000000    0.00000000    0.00000000
     atom    8 type  3   force =     0.00000000    0.00000000    0.00000000
     atom    9 type  3   force =     0.00000000    0.00000000    0.00000000
     atom   10 type  3   force =     0.00000000    0.00000000    0.00000000
     atom   11 type  3   force =     0.00000000    0.00000000    0.00000000
     atom   12 type  3   force =     0.00000000    0.00000000    0.00000000
     atom   13 type  3   force =     0.00000000    0.00000000    0.00000000
     atom   14 type  3   force =     0.00000000    0.00000000    0.00000000
     atom   15 type  3   force =     0.00000000    0.00000000    0.00000000
     atom   16 type  3   force =     0.00000000    0.00000000    0.00000000
     atom   17 type  3   force =     0.00000000    0.00000000    0.00000000
     atom   18 type  4   force =     0.00000000    0.00000000    0.00000000
     atom   19 type  4   force =     0.00000000    0.00000000    0.00000000
     atom   20 type  4   force =     0.00000000    0.00000000    0.00000000
     atom   21 type  4   force =     0.00000000    0.00000000    0.00000000
     atom   22 type  4   force =     0.00000000    0.00000000    0.00000000
     atom   23 type  5   force =     0.00000000    0.00000000    0.00000000
     The SCF correction term to forces
     atom    1 type  1   force =    -0.00000000    0.00000000   -0.00000000
     atom    2 type  1   force =    -0.00000000    0.00000000   -0.00000000
     atom    3 type  1   force =    -0.00000000   -0.00000000   -0.00000000
     atom    4 type  1   force =     0.00000000    0.00000000   -0.00000000
     atom    5 type  1   force =     0.00000000   -0.00000000   -0.00000000
     atom    6 type  2   force =    -0.00000000    0.00000000   -0.00000000
     atom    7 type  2   force =    -0.00000000   -0.00000000   -0.00000000
     atom    8 type  3   force =    -0.00000000   -0.00000000   -0.00000000
     atom    9 type  3   force =     0.00000000    0.00000000   -0.00000000
     atom   10 type  3   force =    -0.00602491    0.00711228    0.00284746
     atom   11 type  3   force =    -0.00334933    0.00600024    0.00178068
     atom   12 type  3   force =    -0.00547317   -0.00753174    0.00140073
     atom   13 type  3   force =    -0.00387377   -0.00687779    0.00273388
     atom   14 type  3   force =     0.00316456    0.00909322    0.00459287
     atom   15 type  3   force =    -0.00124609    0.00854315    0.00171855
     atom   16 type  3   force =     0.00267984   -0.00942684    0.00402735
     atom   17 type  3   force =    -0.00090157   -0.00915497    0.00209487
     atom   18 type  4   force =    -0.00031138   -0.01171389   -0.00352172
     atom   19 type  4   force =    -0.00182109    0.00048701    0.00242731
     atom   20 type  4   force =    -0.00259120    0.00045840    0.00335246
     atom   21 type  4   force =     0.00033989    0.00045291    0.00365070
     atom   22 type  4   force =     0.00405284   -0.00077655    0.00092740
     atom   23 type  5   force =     0.00164948    0.00009465   -0.00045672

     Total force =     0.487694     Total SCF correction =     0.030136


     Computing stress (Cartesian axis) and pressure


     negative rho (up, down):  9.095E-01 9.095E-01
          total   stress  (Ry/bohr**3)                   (kbar)     P=       95.49
   0.00073595  -0.00002641   0.00006409          108.26       -3.88        9.43
  -0.00002641   0.00074280  -0.00004915           -3.88      109.27       -7.23
   0.00006409  -0.00004915   0.00046869            9.43       -7.23       68.95


     Entering Dynamics:    iteration =     2
                           time      =   0.0004 pico-seconds


ATOMIC_POSITIONS (angstrom)
Hf            2.6699999570        2.8271230292        6.6039642186    0   0   0
Hf            1.2529906802        1.2862841814        5.0584662261    0   0   0
Hf            1.2554868986        7.3898042948        5.0880677674    0   0   0
Hf            4.0870092338        1.2862841814        5.0584662261    0   0   0
Hf            4.0845130154        7.3898042948        5.0880677674    0   0   0
Nb            2.6699999570        2.7969306055        3.5155832167    0   0   0
Nb            2.6699999570        5.8763786763        6.6349979432    0   0   0
Ta            1.2093730560        4.3409278516        5.0711258323    0   0   0
Ta            4.1306268580        4.3409278516        5.0711258323    0   0   0
Ta            1.3072497203        1.3141192698        2.0587721195
Ta            1.3027868320        1.3083871706        8.0945860689
Ta            1.3040076663        7.3758301490        2.0462311886
Ta            1.3077081711        7.3650859819        8.0860090763
Ta            4.0327501731        1.3141192338        2.0587728674
Ta            4.0372132010        1.3083860030        8.0945855446
Ta            4.0359925140        7.3758298361        2.0462312347
Ta            4.0322913492        7.3650867583        8.0860089685
Zr            2.6699978527        5.8662920260        3.5273805342
Zr            1.2438041029        4.3220767675        1.9999736379
Zr            1.2403548309        4.3541243879        8.1497811501
Zr            4.0961955647        4.3220771885        1.9999727358
Zr            4.0996486035        4.3541251358        8.1497795458
H             5.1227682530        3.8438924214        5.9316317332


     kinetic energy (Ekin) =           1.79808419 Ry
     temperature           =       13518.81142447 K 
     Ekin + Etot (const)   =       -2941.23411307 Ry
     Ions kinetic stress =           34.73 (kbar)
                                     52.18         -26.08          45.10
                                    -26.08          13.03         -22.54
                                     45.10         -22.54          38.98



     Writing config-only to output data dir outdir/pwscf.save/
     NEW-OLD atomic charge density approx. for the potential

     Check: negative core charge=   -0.000002

     negative rho (up, down):  9.094E-01 9.094E-01
     Generating pointlists ...
     new r_m :   0.0678 (alat units)  1.0946 (a.u.) for type    3
     new r_m :   0.0678 (alat units)  1.0946 (a.u.) for type    5

     total cpu time spent up to now is      362.2 secs

     Self-consistent Calculation

     iteration #  1     ecut=   120.00 Ry     beta= 0.70
     Davidson diagonalization with overlap
     ethr =  1.00E-06,  avg # of iterations =  9.0

     negative rho (up, down):  9.094E-01 9.094E-01

     total cpu time spent up to now is      389.0 secs

     total energy              =   -2942.96592447 Ry
     estimated scf accuracy    <       0.05776623 Ry

     total magnetization       =    -0.13 Bohr mag/cell
     absolute magnetization    =     0.16 Bohr mag/cell

     iteration #  2     ecut=   120.00 Ry     beta= 0.70
     Davidson diagonalization with overlap
     ethr =  2.09E-05,  avg # of iterations =  2.0

     negative rho (up, down):  9.094E-01 9.094E-01

     total cpu time spent up to now is      416.6 secs

     total energy              =   -2942.97055750 Ry
     estimated scf accuracy    <       0.02015495 Ry

     total magnetization       =    -0.13 Bohr mag/cell
     absolute magnetization    =     0.15 Bohr mag/cell

     iteration #  3     ecut=   120.00 Ry     beta= 0.70
     Davidson diagonalization with overlap
     ethr =  7.28E-06,  avg # of iterations =  1.0

     negative rho (up, down):  9.094E-01 9.094E-01

     total cpu time spent up to now is      446.3 secs

     total energy              =   -2942.97179469 Ry
     estimated scf accuracy    <       0.00175723 Ry

     total magnetization       =    -0.13 Bohr mag/cell
     absolute magnetization    =     0.15 Bohr mag/cell

     iteration #  4     ecut=   120.00 Ry     beta= 0.70
     Davidson diagonalization with overlap
     ethr =  6.34E-07,  avg # of iterations =  2.0

     negative rho (up, down):  9.094E-01 9.094E-01

     Magnetic moment per site  (integrated on atomic sphere of radius R)
     atom   1 (R=0.122)  charge=  9.4650  magn= -0.0002
     atom   2 (R=0.122)  charge=  9.0552  magn= -0.0003
     atom   3 (R=0.122)  charge=  9.0557  magn= -0.0005
     atom   4 (R=0.122)  charge=  9.0604  magn= -0.0004
     atom   5 (R=0.122)  charge=  9.0583  magn= -0.0004
     atom   6 (R=0.120)  charge= 10.3501  magn=  0.0001
     atom   7 (R=0.120)  charge= 10.3492  magn= -0.0004
     atom   8 (R=0.068)  charge=  4.4965  magn= -0.0000
     atom   9 (R=0.068)  charge=  4.5175  magn= -0.0001
     atom  10 (R=0.068)  charge=  4.4798  magn= -0.0009
     atom  11 (R=0.068)  charge=  4.4782  magn= -0.0004
     atom  12 (R=0.068)  charge=  4.4771  magn= -0.0012
     atom  13 (R=0.068)  charge=  4.4797  magn= -0.0004
     atom  14 (R=0.068)  charge=  4.4799  magn= -0.0008
     atom  15 (R=0.068)  charge=  4.4784  magn= -0.0007
     atom  16 (R=0.068)  charge=  4.4773  magn= -0.0014
     atom  17 (R=0.068)  charge=  4.4792  magn= -0.0004
     atom  18 (R=0.119)  charge=  9.2835  magn=  0.0003
     atom  19 (R=0.119)  charge=  8.8696  magn= -0.0065
     atom  20 (R=0.119)  charge=  8.8646  magn=  0.0011
     atom  21 (R=0.119)  charge=  8.8699  magn= -0.0064
     atom  22 (R=0.119)  charge=  8.8622  magn=  0.0009
     atom  23 (R=0.068)  charge=  0.8596  magn= -0.0000

     total cpu time spent up to now is      474.6 secs

     End of self-consistent calculation

 ------ SPIN UP ------------


          k = 0.0000 0.0000 0.0000 ( 56324 PWs)   bands (ev):

   -59.7675 -59.7619 -59.7203 -59.7176 -59.6812 -59.6752 -59.6354 -59.6211
   -59.4844 -59.0393 -53.3690 -53.3229 -53.2451 -53.1996 -51.7001 -45.2195
   -45.2154 -40.6330 -40.5925 -40.5248 -40.4883 -38.8047 -26.7631 -26.7584
   -26.6757 -26.6725 -26.5799 -26.5699 -26.4462 -26.4395 -26.3413 -26.3158
   -26.2767 -26.2487 -26.2455 -26.2050 -26.1966 -26.1439 -26.1348 -26.1063
   -26.0453 -25.9667 -25.9453 -25.9349 -25.9313 -25.9200 -25.8727 -25.8643
   -25.8394 -25.8325 -25.7478 -25.7033 -23.1517 -22.9416 -22.6394 -22.5568
   -22.2980 -22.1600 -22.1307 -22.0384 -21.9124 -21.8396 -21.8252 -21.6104
   -21.4674 -21.4183 -21.3656 -21.3137 -21.2525 -21.1977 -20.7452 -20.7088
   -20.6204 -19.1607 -18.9239 -18.8003 -18.7830 -18.6110 -18.5929 -18.5673
   -18.5570 -18.5284 -18.5147 -18.3438 -18.3279 -17.1679 -16.9302 -16.8083
     2.1992   3.1485   3.9476   4.1662   4.3320   4.4613   4.5345   4.6735
     4.7612   4.8133   4.9545   5.0215   5.2779   5.4248   5.6012   5.7054
     5.7500   5.9545   6.0487   6.1085   6.1302   6.2816   6.3076   6.3725
     6.4237   6.5747   6.6305   6.7409   6.7578   6.7737   6.7869   6.9084
     6.9683   7.0927   7.1782   7.2800   7.2825   7.3389   7.3842   7.3935
     7.4410   7.6457   7.6958   7.8017   7.8924   7.9688   8.0148   8.1251
     8.2049   8.2114   8.3042   8.3247   8.4089   8.4594   8.5448   8.5528
     8.6356   8.7066   8.9012   9.0257   9.1081   9.1378   9.2327   9.3323
     9.3470   9.3647   9.3746   9.4441   9.4668   9.6090   9.6892   9.7933
     9.9103   9.9726  10.0967  10.1144  10.1904  10.2779  10.3083

 ------ SPIN DOWN ----------


          k = 0.0000 0.0000 0.0000 ( 56324 PWs)   bands (ev):

   -59.7702 -59.7629 -59.7212 -59.7205 -59.6849 -59.6764 -59.6389 -59.6228
   -59.4845 -59.0395 -53.3693 -53.3231 -53.2453 -53.1998 -51.7002 -45.2194
   -45.2157 -40.6321 -40.5987 -40.5238 -40.4944 -38.8044 -26.7667 -26.7611
   -26.6802 -26.6743 -26.5839 -26.5715 -26.4498 -26.4430 -26.3426 -26.3178
   -26.2776 -26.2506 -26.2480 -26.2076 -26.1994 -26.1462 -26.1380 -26.1075
   -26.0458 -25.9673 -25.9494 -25.9363 -25.9334 -25.9241 -25.8748 -25.8689
   -25.8443 -25.8340 -25.7481 -25.7037 -23.1521 -22.9418 -22.6399 -22.5571
   -22.2983 -22.1603 -22.1310 -22.0388 -21.9127 -21.8399 -21.8254 -21.6106
   -21.4675 -21.4184 -21.3660 -21.3139 -21.2530 -21.1979 -20.7454 -20.7089
   -20.6206 -19.1674 -18.9212 -18.8073 -18.7894 -18.6105 -18.5921 -18.5728
   -18.5566 -18.5346 -18.5142 -18.3423 -18.3368 -17.1678 -16.9303 -16.8090
     2.1980   3.1469   3.9430   4.1648   4.3306   4.4597   4.5302   4.6720
     4.7593   4.8117   4.9507   5.0187   5.2759   5.4224   5.5990   5.7032
     5.7469   5.9518   6.0461   6.1043   6.1277   6.2787   6.3049   6.3683
     6.4206   6.5727   6.6289   6.7368   6.7550   6.7718   6.7839   6.9069
     6.9664   7.0891   7.1739   7.2776   7.2803   7.3350   7.3810   7.3917
     7.4376   7.6431   7.6935   7.7989   7.8882   7.9649   8.0058   8.1193
     8.1952   8.2013   8.2983   8.3189   8.3997   8.4485   8.5378   8.5436
     8.6304   8.7020   8.8975   9.0214   9.1016   9.1334   9.2282   9.3238
     9.3441   9.3581   9.3700   9.4394   9.4631   9.6035   9.6851   9.7901
     9.9062   9.9680  10.0898  10.1112  10.1885  10.2753  10.3060

     the Fermi energy is     8.2809 ev

!    total energy              =   -2942.97157254 Ry
     estimated scf accuracy    <       0.00037938 Ry
     smearing contrib. (-TS)   =      -0.10610313 Ry
     internal energy E=F+TS    =   -2942.86546941 Ry

     total magnetization       =    -0.12 Bohr mag/cell
     absolute magnetization    =     0.15 Bohr mag/cell

     convergence has been achieved in   4 iterations

     negative rho (up, down):  9.094E-01 9.094E-01

     Forces acting on atoms (cartesian axes, Ry/au):

     atom    1 type  1   force =    -0.02297768   -0.01870160    0.00224700
     atom    2 type  1   force =    -0.12112779   -0.01224790   -0.00817411
     atom    3 type  1   force =    -0.12121406    0.01141577   -0.00227814
     atom    4 type  1   force =     0.12272211   -0.01845205   -0.00801900
     atom    5 type  1   force =     0.11944269    0.01228776   -0.00605805
     atom    6 type  2   force =    -0.00169647   -0.02037324    0.00458921
     atom    7 type  2   force =    -0.00086123    0.01242313   -0.00520856
     atom    8 type  3   force =    -0.12301785   -0.00554600    0.00410216
     atom    9 type  3   force =    -0.13141600    0.16200824   -0.25221871
     atom   10 type  3   force =    -0.02730080   -0.02723208   -0.05919175
     atom   11 type  3   force =    -0.01457930   -0.03269126    0.06265147
     atom   12 type  3   force =    -0.01922495    0.03377000   -0.04947288
     atom   13 type  3   force =    -0.02361668    0.02393525    0.06244598
     atom   14 type  3   force =     0.02722530   -0.02686898   -0.05199234
     atom   15 type  3   force =     0.01552126   -0.04054588    0.05701651
     atom   16 type  3   force =     0.02066228    0.02988772   -0.04928072
     atom   17 type  3   force =     0.02044198    0.02948747    0.06179632
     atom   18 type  4   force =    -0.00615286    0.02473349   -0.01348778
     atom   19 type  4   force =    -0.13618361   -0.00548652   -0.11414581
     atom   20 type  4   force =    -0.13559789    0.00555724    0.11528026
     atom   21 type  4   force =     0.13592282   -0.00447094   -0.12094122
     atom   22 type  4   force =     0.14724378    0.00799621    0.11102823
     atom   23 type  5   force =     0.27578495   -0.14088583    0.25931192
     The non-local contrib.  to forces
     atom    1 type  1   force =     0.00362552   -0.00518741    0.02954348
     atom    2 type  1   force =    -0.24856199   -0.15998836    0.01610078
     atom    3 type  1   force =    -0.24538571    0.16002036   -0.03172699
     atom    4 type  1   force =     0.27033063   -0.14825818    0.03368210
     atom    5 type  1   force =     0.24265582    0.15709861   -0.02540944
     atom    6 type  2   force =    -0.00154295   -0.06196886   -0.06297323
     atom    7 type  2   force =    -0.00529396    0.06127689    0.06035369
     atom    8 type  3   force =    -0.24813500   -0.00367499   -0.00317597
     atom    9 type  3   force =     0.16639431    0.02705473   -0.05331393
     atom   10 type  3   force =    -0.22538698    0.01137581   -0.21057637
     atom   11 type  3   force =    -0.22200483    0.01673493    0.19873993
     atom   12 type  3   force =    -0.21374000   -0.02131799   -0.18836867
     atom   13 type  3   force =    -0.21593086   -0.01541299    0.21145610
     atom   14 type  3   force =     0.21693227    0.00660466   -0.21936155
     atom   15 type  3   force =     0.23918834    0.01358321    0.18296561
     atom   16 type  3   force =     0.20864976   -0.02616419   -0.19131899
     atom   17 type  3   force =     0.21734600   -0.00234453    0.20250929
     atom   18 type  4   force =     0.00771965    0.06425046   -0.06358883
     atom   19 type  4   force =     0.06369414    0.00825785    0.07402718
     atom   20 type  4   force =     0.05516039   -0.00773117   -0.05873153
     atom   21 type  4   force =    -0.06453687    0.00273923    0.07107717
     atom   22 type  4   force =    -0.05850575   -0.00832392   -0.07360525
     atom   23 type  5   force =    -0.08251453    0.04221218   -0.06462736
     The ionic contribution  to forces
     atom    1 type  1   force =    -0.67044398   -4.87511180   14.38076002
     atom    2 type  1   force =   -35.71334400   -6.25451218    0.70739562
     atom    3 type  1   force =   -35.67232166    6.18018690   -0.76933283
     atom    4 type  1   force =    35.39925275   -6.70618412    0.54241689
     atom    5 type  1   force =    35.51829797    6.33649957   -0.82837353
     atom    6 type  2   force =    -0.27280363   -3.66303145  -14.41612982
     atom    7 type  2   force =    -0.39541510    3.91488135   14.25377229
     atom    8 type  3   force =   -47.68830741    0.13208104   -0.18714568
     atom    9 type  3   force =    45.00709225    1.35691161   -2.31157571
     atom   10 type  3   force =   -32.20721246   -2.13728974  -23.48306466
     atom   11 type  3   force =   -31.30208599   -0.93359088   22.53883964
     atom   12 type  3   force =   -31.38584486    0.81120497  -22.52026825
     atom   13 type  3   force =   -32.19375866    2.22530713   23.49196155
     atom   14 type  3   force =    32.12969795   -2.18687632  -23.55488935
     atom   15 type  3   force =    31.10253603   -1.14646028   22.73817701
     atom   16 type  3   force =    31.32791025    0.83591740  -22.56255932
     atom   17 type  3   force =    32.07400370    2.31502698   23.58442099
     atom   18 type  4   force =    -0.17288886    4.49779940  -14.25305217
     atom   19 type  4   force =   -32.19076255    0.97886636  -25.94429095
     atom   20 type  4   force =   -32.20879944   -0.91847149   26.00717334
     atom   21 type  4   force =    32.08479507    0.99965031  -26.08706358
     atom   22 type  4   force =    31.73666090   -0.75342826   26.72790238
     atom   23 type  5   force =     5.69374171   -1.00937651    1.94492615
     The local contribution  to forces
     atom    1 type  1   force =     0.63575429    4.86107653  -14.41608604
     atom    2 type  1   force =    35.84584122    6.40866005   -0.75181837
     atom    3 type  1   force =    35.80099332   -6.33637539    0.78029403
     atom    4 type  1   force =   -35.55684592    6.83939019   -0.60539265
     atom    5 type  1   force =   -35.65124226   -6.48489420    0.82639977
     atom    6 type  2   force =     0.26466872    3.70506473   14.46416523
     atom    7 type  2   force =     0.39162888   -3.96610875  -14.32842093
     atom    8 type  3   force =    47.82590988   -0.13329583    0.17009312
     atom    9 type  3   force =   -45.31271913   -1.23082169    2.10373957
     atom   10 type  3   force =    32.41885264    2.09909059   23.66081284
     atom   11 type  3   force =    31.52638775    0.88601298  -22.69088155
     atom   12 type  3   force =    31.59449582   -0.75736848   22.68463990
     atom   13 type  3   force =    32.40288335   -2.18953069  -23.65747870
     atom   14 type  3   force =   -32.33955963    2.15516720   23.74939754
     atom   15 type  3   force =   -31.35083601    1.09676084  -22.87956584
     atom   16 type  3   force =   -31.53613023   -0.78158768   22.73136057
     atom   17 type  3   force =   -32.29395162   -2.28795222  -23.73913028
     atom   18 type  4   force =     0.15241449   -4.53525637   14.28347509
     atom   19 type  4   force =    31.99475429   -0.99241380   25.77076311
     atom   20 type  4   force =    32.02424392    0.93168243  -25.83631600
     atom   21 type  4   force =   -31.89351915   -1.00686262   25.90627748
     atom   22 type  4   force =   -31.54608160    0.76943700  -26.54225788
     atom   23 type  5   force =    -5.33587569    0.82624668   -1.62384352
     The core correction contribution to forces
     atom    1 type  1   force =     0.00225805    0.00416206   -0.00098340
     atom    2 type  1   force =    -0.01233670   -0.00151579    0.00016045
     atom    3 type  1   force =    -0.01171753    0.00283947   -0.00212855
     atom    4 type  1   force =     0.01277469   -0.00161371    0.00232241
     atom    5 type  1   force =     0.01185303    0.00223757    0.00090053
     atom    6 type  2   force =     0.00011730    0.00279033    0.00255782
     atom    7 type  2   force =     0.00023080   -0.00298658   -0.00219681
     atom    8 type  3   force =    -0.02804000   -0.00118388    0.00136261
     atom    9 type  3   force =     0.01456443    0.00598134   -0.01104511
     atom   10 type  3   force =    -0.02224849    0.01006989   -0.01570842
     atom   11 type  3   force =    -0.02375838    0.01019473    0.01705338
     atom   12 type  3   force =    -0.02209777   -0.00915013   -0.01482222
     atom   13 type  3   force =    -0.02372527   -0.00836764    0.01816653
     atom   14 type  3   force =     0.02268964    0.00881307   -0.01670654
     atom   15 type  3   force =     0.02602963    0.00986249    0.01494441
     atom   16 type  3   force =     0.02199445   -0.00911092   -0.01606326
     atom   17 type  3   force =     0.02282013   -0.00771354    0.01496032
     atom   18 type  4   force =    -0.00018872   -0.00397737    0.00344056
     atom   19 type  4   force =    -0.00990269    0.00012304   -0.00970525
     atom   20 type  4   force =    -0.00946929    0.00000954    0.00888855
     atom   21 type  4   force =     0.00988600    0.00038410   -0.00968132
     atom   22 type  4   force =     0.01002354   -0.00023698    0.00935601
     atom   23 type  5   force =     0.00000000    0.00000000    0.00000000
     The Hubbard contrib.    to forces
     atom    1 type  1   force =     0.00000000    0.00000000    0.00000000
     atom    2 type  1   force =     0.00000000    0.00000000    0.00000000
     atom    3 type  1   force =     0.00000000    0.00000000    0.00000000
     atom    4 type  1   force =     0.00000000    0.00000000    0.00000000
     atom    5 type  1   force =     0.00000000    0.00000000    0.00000000
     atom    6 type  2   force =     0.00000000    0.00000000    0.00000000
     atom    7 type  2   force =     0.00000000    0.00000000    0.00000000
     atom    8 type  3   force =     0.00000000    0.00000000    0.00000000
     atom    9 type  3   force =     0.00000000    0.00000000    0.00000000
     atom   10 type  3   force =     0.00000000    0.00000000    0.00000000
     atom   11 type  3   force =     0.00000000    0.00000000    0.00000000
     atom   12 type  3   force =     0.00000000    0.00000000    0.00000000
     atom   13 type  3   force =     0.00000000    0.00000000    0.00000000
     atom   14 type  3   force =     0.00000000    0.00000000    0.00000000
     atom   15 type  3   force =     0.00000000    0.00000000    0.00000000
     atom   16 type  3   force =     0.00000000    0.00000000    0.00000000
     atom   17 type  3   force =     0.00000000    0.00000000    0.00000000
     atom   18 type  4   force =     0.00000000    0.00000000    0.00000000
     atom   19 type  4   force =     0.00000000    0.00000000    0.00000000
     atom   20 type  4   force =     0.00000000    0.00000000    0.00000000
     atom   21 type  4   force =     0.00000000    0.00000000    0.00000000
     atom   22 type  4   force =     0.00000000    0.00000000    0.00000000
     atom   23 type  5   force =     0.00000000    0.00000000    0.00000000
     The SCF correction term to forces
     atom    1 type  1   force =     0.00000000   -0.00000000    0.00000000
     atom    2 type  1   force =     0.00000000   -0.00000000    0.00000000
     atom    3 type  1   force =     0.00000000    0.00000000    0.00000000
     atom    4 type  1   force =    -0.00000000   -0.00000000    0.00000000
     atom    5 type  1   force =    -0.00000000    0.00000000    0.00000000
     atom    6 type  2   force =     0.00000000   -0.00000000    0.00000000
     atom    7 type  2   force =     0.00000000    0.00000000    0.00000000
     atom    8 type  3   force =     0.00000000    0.00000000    0.00000000
     atom    9 type  3   force =    -0.00000000    0.00000000    0.00000000
     atom   10 type  3   force =     0.00813919   -0.01043423   -0.01172927
     atom   11 type  3   force =     0.00632684   -0.01199862   -0.00217408
     atom   12 type  3   force =     0.00740655    0.01044603   -0.01172777
     atom   13 type  3   force =     0.00635946    0.01198385   -0.00273364
     atom   14 type  3   force =    -0.00309023   -0.01053318   -0.01150658
     atom   15 type  3   force =    -0.00195205   -0.01424774   -0.00057881
     atom   16 type  3   force =    -0.00231726    0.01087751   -0.01177387
     atom   17 type  3   force =    -0.00033154    0.01251518   -0.00203814
     atom   18 type  4   force =     0.00623527    0.00196176    0.01516343
     atom   19 type  4   force =     0.00547789   -0.00027556   -0.00601405
     atom   20 type  4   force =     0.00271123    0.00011233   -0.00680824
     atom   21 type  4   force =    -0.00125755   -0.00033757   -0.00262511
     atom   22 type  4   force =     0.00459137    0.00059277   -0.01144117
     atom   23 type  5   force =    -0.00012185    0.00007622    0.00178250

     Total force =     0.576046     Total SCF correction =     0.049340


     Computing stress (Cartesian axis) and pressure


     negative rho (up, down):  9.094E-01 9.094E-01
          total   stress  (Ry/bohr**3)                   (kbar)     P=      100.07
   0.00076884  -0.00004103   0.00008906          113.10       -6.04       13.10
  -0.00004103   0.00076829  -0.00006050           -6.04      113.02       -8.90
   0.00008906  -0.00006050   0.00050367           13.10       -8.90       74.09


     Entering Dynamics:    iteration =     3
                           time      =   0.0006 pico-seconds


ATOMIC_POSITIONS (angstrom)
Hf            2.6699999570        2.8271230292        6.6039642186    0   0   0
Hf            1.2529906802        1.2862841814        5.0584662261    0   0   0
Hf            1.2554868986        7.3898042948        5.0880677674    0   0   0
Hf            4.0870092338        1.2862841814        5.0584662261    0   0   0
Hf            4.0845130154        7.3898042948        5.0880677674    0   0   0
[...]
     4.7555   4.8005   4.9513   5.0173   5.2711   5.4238   5.6017   5.7000
     5.7438   5.9572   6.0457   6.1062   6.1277   6.2761   6.3013   6.3657
     6.4176   6.5719   6.6241   6.7368   6.7524   6.7688   6.7836   6.9079
     6.9652   7.0847   7.1711   7.2746   7.2826   7.3353   7.3789   7.3919
     7.4366   7.6420   7.6899   7.7982   7.8907   7.9650   8.0075   8.1199
     8.1968   8.2051   8.2966   8.3169   8.4060   8.4503   8.5413   8.5463
     8.6290   8.6994   8.8974   9.0209   9.1057   9.1329   9.2287   9.3269
     9.3439   9.3594   9.3698   9.4415   9.4662   9.6024   9.6829   9.7885
     9.9037   9.9633  10.0884  10.1109  10.1810  10.2701  10.3016

     the Fermi energy is     8.2790 ev

!    total energy              =   -2942.98637249 Ry
     estimated scf accuracy    <       0.00025918 Ry
     smearing contrib. (-TS)   =      -0.10609697 Ry
     internal energy E=F+TS    =   -2942.88027552 Ry

     total magnetization       =    -0.02 Bohr mag/cell
     absolute magnetization    =     0.02 Bohr mag/cell

     convergence has been achieved in   5 iterations

     negative rho (up, down):  9.093E-01 9.093E-01

     Forces acting on atoms (cartesian axes, Ry/au):

     atom    1 type  1   force =    -0.02291960   -0.02028234    0.00790571
     atom    2 type  1   force =    -0.11854444   -0.01413929    0.00201476
     atom    3 type  1   force =    -0.11852616    0.01311233    0.00812886
     atom    4 type  1   force =     0.11972168   -0.02083227    0.00129714
     atom    5 type  1   force =     0.11684815    0.01349537    0.00413604
     atom    6 type  2   force =    -0.00195150   -0.01865424    0.00163855
     atom    7 type  2   force =    -0.00112936    0.01202503   -0.00651289
     atom    8 type  3   force =    -0.11949994   -0.00500549    0.00658077
     atom    9 type  3   force =    -0.11619215    0.15649582   -0.24151163
     atom   10 type  3   force =    -0.02553779   -0.02784091   -0.06478385
     atom   11 type  3   force =    -0.01341144   -0.03482147    0.05987557
     atom   12 type  3   force =    -0.01772395    0.03441632   -0.05513707
     atom   13 type  3   force =    -0.02276916    0.02643448    0.05945383
     atom   14 type  3   force =     0.02521846   -0.02738090   -0.05724541
     atom   15 type  3   force =     0.01399916   -0.04387075    0.05497545
     atom   16 type  3   force =     0.01896374    0.03068818   -0.05486985
     atom   17 type  3   force =     0.01930591    0.03246323    0.05896254
     atom   18 type  4   force =    -0.00592798    0.02327904   -0.01395662
     atom   19 type  4   force =    -0.13209209   -0.00526312   -0.11716045
     atom   20 type  4   force =    -0.13435591    0.00558586    0.11202239
     atom   21 type  4   force =     0.13150862   -0.00421989   -0.12368285
     atom   22 type  4   force =     0.14717413    0.00829153    0.10608794
     atom   23 type  5   force =     0.25784162   -0.13397653    0.25178106
     The non-local contrib.  to forces
     atom    1 type  1   force =     0.00599043   -0.00641477    0.03138538
     atom    2 type  1   force =    -0.24741402   -0.16119180    0.02246073
     atom    3 type  1   force =    -0.24415687    0.16086453   -0.02549992
     atom    4 type  1   force =     0.26920886   -0.14930153    0.03998775
     atom    5 type  1   force =     0.24159697    0.15776385   -0.01940738
     atom    6 type  2   force =    -0.00095675   -0.06286911   -0.06131853
     atom    7 type  2   force =    -0.00532784    0.06278832    0.05957159
     atom    8 type  3   force =    -0.24550083   -0.00367716    0.00159632
     atom    9 type  3   force =     0.16395855    0.02784040   -0.05142550
     atom   10 type  3   force =    -0.22476204    0.01033669   -0.21335707
     atom   11 type  3   force =    -0.21991745    0.01373044    0.19766914
     atom   12 type  3   force =    -0.21354636   -0.02064598   -0.19051542
     atom   13 type  3   force =    -0.21385937   -0.01261134    0.21010322
     atom   14 type  3   force =     0.21693327    0.00575568   -0.22211735
     atom   15 type  3   force =     0.23713528    0.01030525    0.18154036
     atom   16 type  3   force =     0.20922853   -0.02578873   -0.19332675
     atom   17 type  3   force =     0.21546902    0.00034525    0.20039675
     atom   18 type  4   force =     0.00765200    0.06486862   -0.06033762
     atom   19 type  4   force =     0.06506526    0.00813701    0.07183144
     atom   20 type  4   force =     0.05466903   -0.00753122   -0.05956987
     atom   21 type  4   force =    -0.06572140    0.00231830    0.06842581
     atom   22 type  4   force =    -0.05635247   -0.00804836   -0.07504318
     atom   23 type  5   force =    -0.07895594    0.04128176   -0.06340081
     The ionic contribution  to forces
     atom    1 type  1   force =    -0.68349074   -4.83975789   14.39587787
     atom    2 type  1   force =   -35.70194335   -6.24481465    0.70541719
     atom    3 type  1   force =   -35.66095757    6.16996223   -0.77042906
     atom    4 type  1   force =    35.38877079   -6.69568251    0.53523581
     atom    5 type  1   force =    35.50810557    6.32564648   -0.82962629
     atom    6 type  2   force =    -0.26957541   -3.61586779  -14.43543147
     atom    7 type  2   force =    -0.39913484    3.87566722   14.26784254
     atom    8 type  3   force =   -47.65952875    0.13349744   -0.19315159
     atom    9 type  3   force =    45.06357381    1.33935871   -2.32863240
     atom   10 type  3   force =   -32.18455603   -2.11514880  -23.44482924
     atom   11 type  3   force =   -31.28247216   -0.91291473   22.50340304
     atom   12 type  3   force =   -31.36613243    0.78839396  -22.48367426
     atom   13 type  3   force =   -32.17305773    2.20533996   23.45551945
     atom   14 type  3   force =    32.10849055   -2.16567403  -23.51575172
     atom   15 type  3   force =    31.07938431   -1.13155829   22.70635526
     atom   16 type  3   force =    31.30881720    0.81612330  -22.52724420
     atom   17 type  3   force =    32.05137158    2.29627867   23.54855745
     atom   18 type  4   force =    -0.16863551    4.44985806  -14.27036725
     atom   19 type  4   force =   -32.13434763    0.97934786  -25.85673492
     atom   20 type  4   force =   -32.15545852   -0.91762446   25.92434659
     atom   21 type  4   force =    32.02871605    0.99799348  -25.99511317
     atom   22 type  4   force =    31.67311669   -0.74463219   26.66399024
     atom   23 type  5   force =     5.62894410   -0.99379202    1.94444011
     The local contribution  to forces
     atom    1 type  1   force =     0.64773451    4.81586354  -14.40504920
     atom    2 type  1   force =    35.84580032    6.39260248   -0.70982834
     atom    3 type  1   force =    35.80166745   -6.32063558    0.82224773
     atom    4 type  1   force =   -35.55555098    6.82172190   -0.56136060
     atom    5 type  1   force =   -35.64924542   -6.46947568    0.86782437
     atom    6 type  2   force =     0.26387558    3.65936498   14.49837723
     atom    7 type  2   force =     0.39896612   -3.91608396  -14.31528443
     atom    8 type  3   force =    47.81458363   -0.13276593    0.21031493
     atom    9 type  3   force =   -45.36062619   -1.21516993    2.16410315
     atom   10 type  3   force =    32.41069134    2.07065369   23.59966750
     atom   11 type  3   force =    31.51208676    0.84910242  -22.65695545
     atom   12 type  3   force =    31.58882897   -0.72862787   22.62476753
     atom   13 type  3   force =    32.38826491   -2.15351846  -23.62346063
     atom   14 type  3   force =   -32.32881554    2.12826218   23.68812268
     atom   15 type  3   force =   -31.33089982    1.06173259  -22.84460612
     atom   16 type  3   force =   -31.52677876   -0.75643958   22.67297696
     atom   17 type  3   force =   -32.27211459   -2.25312705  -23.70362789
     atom   18 type  4   force =     0.15211545   -4.48911705   14.31650078
     atom   19 type  4   force =    31.95584192   -0.99239602   25.66937372
     atom   20 type  4   force =    31.97409388    0.93112911  -25.75877422
     atom   21 type  4   force =   -31.85104477   -1.00390364   25.80109035
     atom   22 type  4   force =   -31.47776813    0.76240499  -26.48749867
     atom   23 type  5   force =    -5.29143542    0.81817549   -1.62618270
     The core correction contribution to forces
     atom    1 type  1   force =     0.00238735    0.00444549   -0.00123426
     atom    2 type  1   force =    -0.01225596   -0.00155673    0.00024372
     atom    3 type  1   force =    -0.01169645    0.00289302   -0.00207321
     atom    4 type  1   force =     0.01282383   -0.00160331    0.00239578
     atom    5 type  1   force =     0.01184609    0.00220304    0.00091561
     atom    6 type  2   force =     0.00008008    0.00282396    0.00248333
     atom    7 type  2   force =     0.00023820   -0.00306846   -0.00214824
     atom    8 type  3   force =    -0.02797006   -0.00118517    0.00137812
     atom    9 type  3   force =     0.01488486    0.00574135   -0.01088307
     atom   10 type  3   force =    -0.02226680    0.01008850   -0.01568003
     atom   11 type  3   force =    -0.02350155    0.01019964    0.01691728
     atom   12 type  3   force =    -0.02219146   -0.00919012   -0.01483679
     atom   13 type  3   force =    -0.02351631   -0.00838290    0.01798241
     atom   14 type  3   force =     0.02265028    0.00875255   -0.01675630
     atom   15 type  3   force =     0.02587062    0.00986890    0.01475951
     atom   16 type  3   force =     0.02198435   -0.00909316   -0.01601600
     atom   17 type  3   force =     0.02256238   -0.00766949    0.01474215
     atom   18 type  4   force =    -0.00017265   -0.00398431    0.00337242
     atom   19 type  4   force =    -0.00988295    0.00012583   -0.00966381
     atom   20 type  4   force =    -0.00943564    0.00000293    0.00890487
     atom   21 type  4   force =     0.00987746    0.00040617   -0.00961030
     atom   22 type  4   force =     0.00993314   -0.00024276    0.00937876
     atom   23 type  5   force =     0.00000000    0.00000000    0.00000000
     The Hubbard contrib.    to forces
     atom    1 type  1   force =     0.00000000    0.00000000    0.00000000
     atom    2 type  1   force =     0.00000000    0.00000000    0.00000000
     atom    3 type  1   force =     0.00000000    0.00000000    0.00000000
     atom    4 type  1   force =     0.00000000    0.00000000    0.00000000
     atom    5 type  1   force =     0.00000000    0.00000000    0.00000000
     atom    6 type  2   force =     0.00000000    0.00000000    0.00000000
     atom    7 type  2   force =     0.00000000    0.00000000    0.00000000
     atom    8 type  3   force =     0.00000000    0.00000000    0.00000000
     atom    9 type  3   force =     0.00000000    0.00000000    0.00000000
     atom   10 type  3   force =     0.00000000    0.00000000    0.00000000
     atom   11 type  3   force =     0.00000000    0.00000000    0.00000000
     atom   12 type  3   force =     0.00000000    0.00000000    0.00000000
     atom   13 type  3   force =     0.00000000    0.00000000    0.00000000
     atom   14 type  3   force =     0.00000000    0.00000000    0.00000000
     atom   15 type  3   force =     0.00000000    0.00000000    0.00000000
     atom   16 type  3   force =     0.00000000    0.00000000    0.00000000
     atom   17 type  3   force =     0.00000000    0.00000000    0.00000000
     atom   18 type  4   force =     0.00000000    0.00000000    0.00000000
     atom   19 type  4   force =     0.00000000    0.00000000    0.00000000
     atom   20 type  4   force =     0.00000000    0.00000000    0.00000000
     atom   21 type  4   force =     0.00000000    0.00000000    0.00000000
     atom   22 type  4   force =     0.00000000    0.00000000    0.00000000
     atom   23 type  5   force =     0.00000000    0.00000000    0.00000000
     The SCF correction term to forces
     atom    1 type  1   force =     0.00000000    0.00000000   -0.00000000
     atom    2 type  1   force =    -0.00000000    0.00000000   -0.00000000
     atom    3 type  1   force =    -0.00000000   -0.00000000   -0.00000000
     atom    4 type  1   force =     0.00000000    0.00000000   -0.00000000
     atom    5 type  1   force =     0.00000000   -0.00000000   -0.00000000
     atom    6 type  2   force =     0.00000000   -0.00000000   -0.00000000
     atom    7 type  2   force =     0.00000000   -0.00000000   -0.00000000
     atom    8 type  3   force =    -0.00000000   -0.00000000   -0.00000000
     atom    9 type  3   force =     0.00000000   -0.00000000   -0.00000000
     atom   10 type  3   force =    -0.00473922   -0.00386066    0.01038006
     atom   11 type  3   force =     0.00029800    0.00497109   -0.00019336
     atom   12 type  3   force =    -0.00477764    0.00439666    0.01008695
     atom   13 type  3   force =    -0.00069562   -0.00448246    0.00027446
     atom   14 type  3   force =     0.00586495   -0.00456695    0.01022235
     atom   15 type  3   force =     0.00241381    0.00569113   -0.00210848
     atom   16 type  3   force =     0.00561746    0.00579668    0.00970523
     atom   17 type  3   force =     0.00192257   -0.00345383   -0.00014083
     atom   18 type  4   force =     0.00301778    0.00156405   -0.00215987
     atom   19 type  4   force =    -0.00886364   -0.00056748    0.00899819
     atom   20 type  4   force =     0.00168039   -0.00048019   -0.00191990
     atom   21 type  4   force =     0.00958631   -0.00112389    0.01248954
     atom   22 type  4   force =    -0.00185006   -0.00127982   -0.00377414
     atom   23 type  5   force =    -0.00080608    0.00026856   -0.00211046

     Total force =     0.561194     Total SCF correction =     0.034181


     Computing stress (Cartesian axis) and pressure


     negative rho (up, down):  9.093E-01 9.093E-01
          total   stress  (Ry/bohr**3)                   (kbar)     P=       98.31
   0.00076031  -0.00003834   0.00008715          111.85       -5.64       12.82
  -0.00003834   0.00075396  -0.00006025           -5.64      110.91       -8.86
   0.00008715  -0.00006025   0.00049053           12.82       -8.86       72.16


     Entering Dynamics:    iteration =    20
                           time      =   0.0041 pico-seconds


ATOMIC_POSITIONS (angstrom)
Hf            2.6699999570        2.8271230292        6.6039642186    0   0   0
Hf            1.2529906802        1.2862841814        5.0584662261    0   0   0
Hf            1.2554868986        7.3898042948        5.0880677674    0   0   0
Hf            4.0870092338        1.2862841814        5.0584662261    0   0   0
Hf            4.0845130154        7.3898042948        5.0880677674    0   0   0
Nb            2.6699999570        2.7969306055        3.5155832167    0   0   0
Nb            2.6699999570        5.8763786763        6.6349979432    0   0   0
Ta            1.2093730560        4.3409278516        5.0711258323    0   0   0
Ta            4.1306268580        4.3409278516        5.0711258323    0   0   0
Ta            1.3069522530        1.3137790107        2.0580775769
Ta            1.3026046601        1.3079949701        8.0952558733
Ta            1.3037524971        7.3762590116        2.0456493211
Ta            1.3074488154        7.3653923084        8.0866790330
Ta            4.0330344048        1.3138132729        2.0581555485
Ta            4.0373888486        1.3079628003        8.0951803948
Ta            4.0362115634        7.3761686035        2.0456479646
Ta            4.0325151388        7.3654154755        8.0866825264
Zr            2.6701834623        5.8665512031        3.5273259162
Zr            1.2407901644        4.3219423345        1.9974078044
Zr            1.2373287742        4.3542655497        8.1522833722
Zr            4.0992164640        4.3219435558        1.9972050380
Zr            4.1028071305        4.3543106944        8.1522870510
H             5.1791260445        3.8035993363        6.0209841072


     kinetic energy (Ekin) =           1.75305797 Ry
     temperature           =       13180.28388921 K 
     Ekin + Etot (const)   =       -2941.23331452 Ry
     Ions kinetic stress =           33.86 (kbar)
                                     47.45         -24.59          44.12
                                    -24.59          12.80         -22.95
                                     44.12         -22.95          41.33



     The maximum number of steps has been reached.

     End of molecular dynamics calculation

     diffusion coefficients :
     atom     1   D =       0.00000000 cm^2/s
     atom     2   D =       0.00000000 cm^2/s
     atom     3   D =       0.00000000 cm^2/s
     atom     4   D =       0.00000000 cm^2/s
     atom     5   D =       0.00000000 cm^2/s
     atom     6   D =       0.00000000 cm^2/s
     atom     7   D =       0.00000000 cm^2/s
     atom     8   D =       0.00000000 cm^2/s
     atom     9   D =       0.00000000 cm^2/s
     atom    10   D =       0.00000000 cm^2/s
     atom    11   D =       0.00000000 cm^2/s
     atom    12   D =       0.00000000 cm^2/s
     atom    13   D =       0.00000000 cm^2/s
     atom    14   D =       0.00000000 cm^2/s
     atom    15   D =       0.00000000 cm^2/s
     atom    16   D =       0.00000000 cm^2/s
     atom    17   D =       0.00000000 cm^2/s
     atom    18   D =       0.00000000 cm^2/s
     atom    19   D =       0.00000007 cm^2/s
     atom    20   D =       0.00000006 cm^2/s
     atom    21   D =       0.00000007 cm^2/s
     atom    22   D =       0.00000007 cm^2/s
     atom    23   D =       0.00003562 cm^2/s

     < D > =       0.00000257 cm^2/s

     Writing all to output data dir outdir/pwscf.save/

     init_run     :      9.19s CPU     10.39s WALL (       1 calls)
     electrons    :   1732.65s CPU   2029.47s WALL (      20 calls)
     update_pot   :     18.03s CPU     18.85s WALL (      19 calls)
     forces       :    227.14s CPU    262.24s WALL (      20 calls)
     stress       :    349.45s CPU    385.85s WALL (      20 calls)

     Called by init_run:
     wfcinit      :      6.89s CPU      7.73s WALL (       1 calls)
     potinit      :      0.41s CPU      0.45s WALL (       1 calls)
     hinit0       :      0.92s CPU      1.02s WALL (       1 calls)

     Called by electrons:
     c_bands      :   1380.78s CPU   1615.47s WALL (      99 calls)
     sum_band     :    228.37s CPU    267.34s WALL (      99 calls)
     v_of_rho     :      9.52s CPU     11.13s WALL (     119 calls)
     newd         :    142.49s CPU    165.89s WALL (     119 calls)
     mix_rho      :      0.84s CPU      1.06s WALL (      99 calls)

     Called by c_bands:
     init_us_2    :      3.73s CPU      3.82s WALL (     478 calls)
     init_us_2:cp :      3.72s CPU      3.82s WALL (     478 calls)
     regterg      :   1369.07s CPU   1601.57s WALL (     198 calls)

     Called by *egterg:
     rdiaghg      :     43.43s CPU     54.03s WALL (    1172 calls)
     h_psi        :    699.83s CPU    767.84s WALL (    1212 calls)
     s_psi        :    248.19s CPU    248.82s WALL (    1212 calls)
     g_psi        :      0.52s CPU      0.57s WALL (    1012 calls)

     Called by h_psi:
     h_psi:calbec :    331.00s CPU    385.81s WALL (    1212 calls)
     vloc_psi     :     68.44s CPU     80.54s WALL (    1212 calls)
     add_vuspsi   :    299.21s CPU    300.24s WALL (    1212 calls)

     General routines
     calbec       :    628.27s CPU    748.25s WALL (    1610 calls)
     fft          :      7.14s CPU     17.55s WALL (    2484 calls)
     ffts         :      0.19s CPU      0.23s WALL (      99 calls)
     fftw         :     72.19s CPU     85.76s WALL (  100728 calls)

     Parallel routines

     PWSCF        :  39m26.07s CPU  45m39.52s WALL


   This run was terminated on:  23:55:47  11Jun2023            

=------------------------------------------------------------------------------=
   JOB DONE.
=------------------------------------------------------------------------------=
