
     Program PWSCF v.7.2 starts on  6Jun2023 at 18:28:59 

     This program is part of the open-source Quantum ESPRESSO suite
     for quantum simulation of materials; please cite
         "P. Giannozzi et al., J. Phys.:Condens. Matter 21 395502 (2009);
         "P. Giannozzi et al., J. Phys.:Condens. Matter 29 465901 (2017);
         "P. Giannozzi et al., J. Chem. Phys. 152 154105 (2020);
          URL http://www.quantum-espresso.org", 
     in publications or presentations arising from this work. More details at
     http://www.quantum-espresso.org/quote

     Parallel version (MPI), running on    12 processors

     MPI processes distributed on     1 nodes
     67553 MiB available memory on the printing compute node when the environment starts

     Reading input from md_Hf5Nb2Ta10Zr5H_15steps_1000eV_offset_02.in
Warning: card &CELL ignored
Warning: card / ignored

     Current dimensions of program PWSCF are:
     Max number of different atomic species (ntypx) = 10
     Max number of k-points (npk) =  40000
     Max angular momentum in pseudopotentials (lmaxx) =  4

     File outdir/pwscf.md deleted, as requested

     gamma-point specific algorithms are used

     R & G space division:  proc/nbgrp/npool/nimage =      12
     Subspace diagonalization in iterative solution of the eigenvalue problem:
     one sub-group per band group will be used
     custom distributed-memory algorithm (size of sub-group:  2*  2 procs)


     Parallelization info
     --------------------
     sticks:   dense  smooth     PW     G-vecs:    dense   smooth      PW
     Min         821     821    205                73378    73378    9174
     Max         824     824    206                73388    73388    9178
     Sum        9871    9871   2471               880587   880587  110101

     Using Slab Decomposition



     bravais-lattice index     =            0
     lattice parameter (alat)  =      15.7603  a.u.
     unit-cell volume          =    4958.3580 (a.u.)^3
     number of atoms/cell      =           23
     number of atomic types    =            5
     number of electrons       =       277.00
     number of Kohn-Sham states=          167
     kinetic-energy cutoff     =     120.0000  Ry
     charge density cutoff     =     480.0000  Ry
     scf convergence threshold =      1.0E-03
     mixing beta               =       0.7000
     number of iterations used =            8  TF        mixing
     energy convergence thresh.=      0.0E+00
     force convergence thresh. =      0.0E+00
     Exchange-correlation=  SLA  PW   PBX  PBC
                           (   1   4   3   4   0   0   0)
     nstep                     =           15


     celldm(1)=  15.760315  celldm(2)=   0.000000  celldm(3)=   0.000000
     celldm(4)=   0.000000  celldm(5)=   0.000000  celldm(6)=   0.000000

     crystal axes: (cart. coord. in units of alat)
               a(1) = (   1.000000   0.000000   0.000000 )  
               a(2) = (   0.000000   1.040767   0.000000 )  
               a(3) = (   0.000000   0.000000   1.216997 )  

     reciprocal axes: (cart. coord. in units 2 pi/alat)
               b(1) = (  1.000000  0.000000  0.000000 )  
               b(2) = (  0.000000  0.960830  0.000000 )  
               b(3) = (  0.000000  0.000000  0.821695 )  


     PseudoPot. # 1 for Hf read from file:
     q-e/pseudo/hf_pbe_v1.uspp.F.UPF
     MD5 check sum: 8ee9378dfe14276e333edf04c5e4aa26
     Pseudo is Ultrasoft + core correction, Zval = 12.0
     Generated by new atomic code, or converted to UPF format
     Using radial grid of  921 points,  8 beta functions with: 
                l(1) =   0
                l(2) =   0
                l(3) =   0
                l(4) =   1
                l(5) =   1
                l(6) =   2
                l(7) =   2
                l(8) =   3
     Q(r) pseudized with  6 coefficients,  rinner =    1.200   1.200   1.200
                                                       1.200   1.200   1.200
                                                       1.200

     PseudoPot. # 2 for Nb read from file:
     q-e/pseudo/nb_pbe_v1.uspp.F.UPF
     MD5 check sum: 573aab8a2fa660278ed4a62cd769473f
     Pseudo is Ultrasoft + core correction, Zval = 13.0
     Generated by new atomic code, or converted to UPF format
     Using radial grid of  887 points,  6 beta functions with: 
                l(1) =   0
                l(2) =   0
                l(3) =   1
                l(4) =   1
                l(5) =   2
                l(6) =   2
     Q(r) pseudized with  6 coefficients,  rinner =    1.000   1.000   1.000
                                                       1.000   1.000

     PseudoPot. # 3 for Ta read from file:
     q-e/pseudo/ta_pbe_v1.uspp.F.UPF
     MD5 check sum: f8bbe9446314a3b8ea5d9f3e3836c939
     Pseudo is Ultrasoft + core correction, Zval = 13.0
     Generated by new atomic code, or converted to UPF format
     Using radial grid of  921 points,  7 beta functions with: 
                l(1) =   0
                l(2) =   0
                l(3) =   1
                l(4) =   1
                l(5) =   2
                l(6) =   2
                l(7) =   3
     Q(r) pseudized with  6 coefficients,  rinner =    1.300   1.300   1.300
                                                       1.300   1.300   1.300
                                                       1.300

     PseudoPot. # 4 for Zr read from file:
     q-e/pseudo/zr_pbe_v1.uspp.F.UPF
     MD5 check sum: 5db81b1e868ab7776c4564c113de050b
     Pseudo is Ultrasoft + core correction, Zval = 12.0
     Generated by new atomic code, or converted to UPF format
     Using radial grid of  887 points,  6 beta functions with: 
                l(1) =   0
                l(2) =   0
                l(3) =   1
                l(4) =   1
                l(5) =   2
                l(6) =   2
     Q(r) pseudized with  6 coefficients,  rinner =    1.200   1.200   1.200
                                                       1.200   1.200

     PseudoPot. # 5 for H  read from file:
     q-e/pseudo/h_pbe_v1.4.uspp.F.UPF
     MD5 check sum: 761ae9a214b05c3daf00ab9f6b793d6f
     Pseudo is Ultrasoft, Zval =  1.0
     Generated by new atomic code, or converted to UPF format
     Using radial grid of  615 points,  2 beta functions with: 
                l(1) =   0
                l(2) =   0
     Q(r) pseudized with  8 coefficients,  rinner =    0.700

     atomic species   valence    mass     pseudopotential
        Hf            12.00   178.49000     Hf( 1.00)
        Nb            13.00    92.90637     Nb( 1.00)
        Ta            13.00   180.94788     Ta( 1.00)
        Zr            12.00    91.22400     Zr( 1.00)
        H              1.00     2.01400     H ( 1.00)

     Starting magnetic structure 
     atomic species   magnetization
        Hf           0.000
        Nb           0.000
        Ta           0.000
        Zr           0.000
        H            0.000

     No symmetry found



   Cartesian axes

     site n.     atom                  positions (alat units)
         1           Hf  tau(   1) = (   0.3201439   0.3389836   0.7918423  )
         2           Hf  tau(   2) = (   0.1502387   0.1542307   0.6065307  )
         3           Hf  tau(   3) = (   0.1505380   0.8860677   0.6100801  )
         4           Hf  tau(   4) = (   0.4900491   0.1542307   0.6065307  )
         5           Hf  tau(   5) = (   0.4897498   0.8860677   0.6100801  )
         6           Nb  tau(   6) = (   0.3201439   0.3353634   0.4215328  )
         7           Nb  tau(   7) = (   0.3201439   0.7046018   0.7955633  )
         8           Ta  tau(   8) = (   0.1450088   0.5204950   0.6080487  )
         9           Ta  tau(   9) = (   0.4952790   0.5204950   0.6080487  )
        10           Ta  tau(  10) = (   0.1567449   0.1575687   0.2468560  )
        11           Ta  tau(  11) = (   0.1562096   0.1568814   0.9705731  )
        12           Ta  tau(  12) = (   0.1563561   0.8843917   0.2453522  )
        13           Ta  tau(  13) = (   0.1567999   0.8831035   0.9695447  )
        14           Ta  tau(  14) = (   0.4835429   0.1575687   0.2468560  )
        15           Ta  tau(  15) = (   0.4840781   0.1568814   0.9705731  )
        16           Ta  tau(  16) = (   0.4839317   0.8843917   0.2453522  )
        17           Ta  tau(  17) = (   0.4834879   0.8831035   0.9695447  )
        18           Zr  tau(  18) = (   0.3201439   0.7033916   0.4229477  )
        19           Zr  tau(  19) = (   0.1491408   0.5182348   0.2398082  )
        20           Zr  tau(  20) = (   0.1487273   0.5220772   0.9771889  )
        21           Zr  tau(  21) = (   0.4911469   0.5182348   0.2398082  )
        22           Zr  tau(  22) = (   0.4915605   0.5220772   0.9771889  )
        23           H   tau(  23) = (   0.6751351   0.5443645   0.6081751  )

     number of k points=     1  Gaussian smearing, width (Ry)=  0.0220
                       cart. coord. in units 2pi/alat
        k(    1) = (   0.0000000   0.0000000   0.0000000), wk =   1.0000000

     Dense  grid:   440294 G-vectors     FFT dimensions: ( 120, 120, 135)

     Estimated max dynamical RAM per process >     369.12 MB

     Estimated total dynamical RAM >       4.33 GB

     Check: negative core charge=   -0.000002
     Generating pointlists ...
     new r_m :   0.1251 (alat units)  1.9717 (a.u.) for type    1
     new r_m :   0.1229 (alat units)  1.9374 (a.u.) for type    2
     new r_m :   0.0748 (alat units)  1.1795 (a.u.) for type    3
     new r_m :   0.1245 (alat units)  1.9625 (a.u.) for type    4
     new r_m :   0.0748 (alat units)  1.1795 (a.u.) for type    5

     Initial potential from superposition of free atoms

     starting charge     266.9726, renormalised to     277.0000

     negative rho (up, down):  9.206E-01 9.206E-01
     Starting wfcs are  287 randomized atomic wfcs

     total cpu time spent up to now is       36.5 secs

     Self-consistent Calculation

     iteration #  1     ecut=   120.00 Ry     beta= 0.70
     Davidson diagonalization with overlap
     ethr =  1.00E-02,  avg # of iterations =  3.0

     negative rho (up, down):  9.825E-01 9.821E-01

     total cpu time spent up to now is       94.0 secs

     total energy              =   -2932.11560014 Ry
     estimated scf accuracy    <     291.71757197 Ry

     total magnetization       =    -0.00 Bohr mag/cell
     absolute magnetization    =     0.08 Bohr mag/cell

     iteration #  2     ecut=   120.00 Ry     beta= 0.70
     Davidson diagonalization with overlap
     ethr =  1.00E-02,  avg # of iterations =  4.0

     negative rho (up, down):  9.361E-01 9.354E-01

     total cpu time spent up to now is      153.8 secs

     total energy              =   -2942.05763544 Ry
     estimated scf accuracy    <      36.76676401 Ry

     total magnetization       =    -0.01 Bohr mag/cell
     absolute magnetization    =     0.13 Bohr mag/cell

     iteration #  3     ecut=   120.00 Ry     beta= 0.70
     Davidson diagonalization with overlap
     ethr =  1.00E-02,  avg # of iterations =  3.0

     negative rho (up, down):  9.657E-01 9.644E-01

     total cpu time spent up to now is      201.7 secs

     total energy              =   -2942.60167382 Ry
     estimated scf accuracy    <      15.34719740 Ry

     total magnetization       =    -0.01 Bohr mag/cell
     absolute magnetization    =     0.18 Bohr mag/cell

     iteration #  4     ecut=   120.00 Ry     beta= 0.70
     Davidson diagonalization with overlap
     ethr =  5.54E-03,  avg # of iterations =  3.0

     negative rho (up, down):  9.604E-01 9.586E-01

     total cpu time spent up to now is      247.6 secs

     total energy              =   -2942.86592006 Ry
     estimated scf accuracy    <       3.27918841 Ry

     total magnetization       =     0.06 Bohr mag/cell
     absolute magnetization    =     0.35 Bohr mag/cell

     iteration #  5     ecut=   120.00 Ry     beta= 0.70
     Davidson diagonalization with overlap
     ethr =  1.18E-03,  avg # of iterations =  7.0

     negative rho (up, down):  9.361E-01 9.352E-01

     total cpu time spent up to now is      301.4 secs

     total energy              =   -2943.01361163 Ry
     estimated scf accuracy    <       1.64695479 Ry

     total magnetization       =     0.00 Bohr mag/cell
     absolute magnetization    =     0.21 Bohr mag/cell

     iteration #  6     ecut=   120.00 Ry     beta= 0.70
     Davidson diagonalization with overlap
     ethr =  5.95E-04,  avg # of iterations =  2.0

     negative rho (up, down):  9.235E-01 9.232E-01

     total cpu time spent up to now is      343.3 secs

     total energy              =   -2943.01228080 Ry
     estimated scf accuracy    <       1.09089246 Ry

     total magnetization       =    -0.01 Bohr mag/cell
     absolute magnetization    =     0.16 Bohr mag/cell

     iteration #  7     ecut=   120.00 Ry     beta= 0.70
     Davidson diagonalization with overlap
     ethr =  3.94E-04,  avg # of iterations =  2.0

     negative rho (up, down):  9.084E-01 9.084E-01

     total cpu time spent up to now is      386.1 secs

     total energy              =   -2942.99850207 Ry
     estimated scf accuracy    <       0.27131230 Ry

     total magnetization       =    -0.02 Bohr mag/cell
     absolute magnetization    =     0.15 Bohr mag/cell

     iteration #  8     ecut=   120.00 Ry     beta= 0.70
     Davidson diagonalization with overlap
     ethr =  9.79E-05,  avg # of iterations = 11.5

     negative rho (up, down):  9.048E-01 9.048E-01

     total cpu time spent up to now is      433.7 secs

     total energy              =   -2942.99816247 Ry
     estimated scf accuracy    <       0.21732263 Ry

     total magnetization       =    -0.03 Bohr mag/cell
     absolute magnetization    =     0.14 Bohr mag/cell

     iteration #  9     ecut=   120.00 Ry     beta= 0.70
     Davidson diagonalization with overlap
     ethr =  7.85E-05,  avg # of iterations =  2.0

     negative rho (up, down):  9.061E-01 9.061E-01

     total cpu time spent up to now is      474.9 secs

     total energy              =   -2943.00650122 Ry
     estimated scf accuracy    <       0.05741573 Ry

     total magnetization       =    -0.03 Bohr mag/cell
     absolute magnetization    =     0.10 Bohr mag/cell

     iteration # 10     ecut=   120.00 Ry     beta= 0.70
     Davidson diagonalization with overlap
     ethr =  2.07E-05,  avg # of iterations = 12.0

     negative rho (up, down):  9.069E-01 9.069E-01

     total cpu time spent up to now is      523.3 secs

     total energy              =   -2943.01086901 Ry
     estimated scf accuracy    <       0.03194751 Ry

     total magnetization       =    -0.03 Bohr mag/cell
     absolute magnetization    =     0.11 Bohr mag/cell

     iteration # 11     ecut=   120.00 Ry     beta= 0.70
     Davidson diagonalization with overlap
     ethr =  1.15E-05,  avg # of iterations =  2.0

     negative rho (up, down):  9.077E-01 9.078E-01

     total cpu time spent up to now is      564.8 secs

     total energy              =   -2943.01324510 Ry
     estimated scf accuracy    <       0.00511124 Ry

     total magnetization       =    -0.02 Bohr mag/cell
     absolute magnetization    =     0.10 Bohr mag/cell

     iteration # 12     ecut=   120.00 Ry     beta= 0.70
     Davidson diagonalization with overlap
     ethr =  1.85E-06,  avg # of iterations = 11.5

     negative rho (up, down):  9.078E-01 9.078E-01

     Magnetic moment per site  (integrated on atomic sphere of radius R)
     atom   1 (R=0.125)  charge=  9.4605  magn=  0.0001
     atom   2 (R=0.125)  charge=  9.0580  magn= -0.0011
     atom   3 (R=0.125)  charge=  9.0571  magn= -0.0010
     atom   4 (R=0.125)  charge=  9.0556  magn= -0.0011
     atom   5 (R=0.125)  charge=  9.0550  magn= -0.0011
     atom   6 (R=0.123)  charge= 10.3448  magn= -0.0016
     atom   7 (R=0.123)  charge= 10.3450  magn= -0.0005
     atom   8 (R=0.075)  charge=  5.3305  magn= -0.0001
     atom   9 (R=0.075)  charge=  5.3487  magn= -0.0005
     atom  10 (R=0.075)  charge=  5.3143  magn=  0.0006
     atom  11 (R=0.075)  charge=  5.3130  magn= -0.0000
     atom  12 (R=0.075)  charge=  5.3143  magn= -0.0003
     atom  13 (R=0.075)  charge=  5.3135  magn=  0.0003
     atom  14 (R=0.075)  charge=  5.3141  magn=  0.0005
     atom  15 (R=0.075)  charge=  5.3129  magn= -0.0001
     atom  16 (R=0.075)  charge=  5.3157  magn= -0.0006
     atom  17 (R=0.075)  charge=  5.3129  magn= -0.0001
     atom  18 (R=0.125)  charge=  9.4542  magn= -0.0003
     atom  19 (R=0.125)  charge=  9.0035  magn=  0.0034
     atom  20 (R=0.125)  charge=  8.9994  magn=  0.0005
     atom  21 (R=0.125)  charge=  9.0003  magn=  0.0025
     atom  22 (R=0.125)  charge=  8.9972  magn= -0.0002
     atom  23 (R=0.075)  charge=  0.8845  magn= -0.0000

     total cpu time spent up to now is      622.2 secs

     End of self-consistent calculation

 ------ SPIN UP ------------


          k = 0.0000 0.0000 0.0000 ( 55051 PWs)   bands (ev):

   -59.4891 -59.4772 -59.4440 -59.4321 -59.4068 -59.4018 -59.3632 -59.3580
   -59.2270 -58.7574 -53.0891 -53.0333 -52.9644 -52.9094 -51.3670 -44.9032
   -44.8962 -40.3243 -40.3082 -40.2200 -40.2176 -38.4659 -26.4865 -26.4773
   -26.4029 -26.3893 -26.3066 -26.2965 -26.1809 -26.1698 -26.0545 -26.0274
   -25.9890 -25.9670 -25.9525 -25.9274 -25.9172 -25.8673 -25.8575 -25.8348
   -25.7947 -25.6729 -25.6632 -25.6531 -25.6486 -25.5917 -25.5901 -25.5700
   -25.5672 -25.4986 -25.4728 -25.4302 -22.8659 -22.6564 -22.3437 -22.2680
   -22.0050 -21.8634 -21.8422 -21.7398 -21.6219 -21.5554 -21.5368 -21.3216
   -21.1505 -21.1025 -21.0602 -21.0081 -20.9502 -20.8940 -20.4358 -20.3636
   -20.3028 -18.8846 -18.6029 -18.5322 -18.5136 -18.2966 -18.2871 -18.2712
   -18.2605 -18.2522 -18.2093 -18.0527 -18.0355 -16.8157 -16.6111 -16.4904
     2.7012   3.9388   4.2244   4.4633   4.6110   4.8272   4.8454   4.9664
     5.0311   5.2298   5.2473   5.4571   5.5829   5.8124   5.9028   5.9993
     6.0879   6.0943   6.3473   6.3527   6.4285   6.5689   6.6100   6.6424
     6.7044   6.8619   6.9034   7.0062   7.0459   7.0553   7.0768   7.1176
     7.2337   7.4572   7.4711   7.5630   7.5765   7.6159   7.6582   7.6945
     7.8449   7.9036   7.9528   8.0284   8.1805   8.2765   8.3130   8.3393
     8.4551   8.5186   8.6031   8.6180   8.6313   8.8273   8.8309   8.8705
     8.9162   8.9747   9.1841   9.2643   9.3623   9.3808   9.5735   9.6156
     9.6393   9.6422   9.6700   9.6957   9.7404   9.8899  10.0094  10.0809
    10.1518  10.2454  10.3790  10.4203  10.4282  10.5549  10.5787

 ------ SPIN DOWN ----------


          k = 0.0000 0.0000 0.0000 ( 55051 PWs)   bands (ev):

   -59.4878 -59.4769 -59.4427 -59.4319 -59.4068 -59.4018 -59.3632 -59.3580
   -59.2277 -58.7596 -53.0904 -53.0346 -52.9657 -52.9107 -51.3669 -44.9039
   -44.8983 -40.3206 -40.3077 -40.2171 -40.2158 -38.4670 -26.4857 -26.4771
   -26.4021 -26.3891 -26.3052 -26.2964 -26.1811 -26.1703 -26.0541 -26.0261
   -25.9886 -25.9651 -25.9520 -25.9273 -25.9171 -25.8673 -25.8575 -25.8352
   -25.7960 -25.6716 -25.6632 -25.6531 -25.6481 -25.5917 -25.5900 -25.5700
   -25.5670 -25.5015 -25.4745 -25.4335 -22.8680 -22.6584 -22.3455 -22.2694
   -22.0067 -21.8653 -21.8441 -21.7415 -21.6237 -21.5568 -21.5384 -21.3229
   -21.1517 -21.1040 -21.0615 -21.0094 -20.9520 -20.8955 -20.4360 -20.3636
   -20.3028 -18.8810 -18.6024 -18.5279 -18.5088 -18.2942 -18.2858 -18.2681
   -18.2587 -18.2512 -18.2085 -18.0480 -18.0349 -16.8165 -16.6119 -16.4911
     2.7000   3.9379   4.2245   4.4623   4.6084   4.8264   4.8449   4.9649
     5.0297   5.2289   5.2480   5.4564   5.5820   5.8110   5.9018   5.9985
     6.0873   6.0940   6.3460   6.3518   6.4290   6.5693   6.6098   6.6413
     6.7040   6.8616   6.9023   7.0068   7.0466   7.0547   7.0772   7.1160
     7.2331   7.4569   7.4708   7.5623   7.5761   7.6151   7.6576   7.6939
     7.8444   7.9030   7.9528   8.0287   8.1798   8.2765   8.3126   8.3381
     8.4557   8.5174   8.6023   8.6166   8.6293   8.8284   8.8296   8.8709
     8.9158   8.9744   9.1840   9.2627   9.3625   9.3815   9.5717   9.6159
     9.6378   9.6425   9.6704   9.6951   9.7398   9.8896  10.0097  10.0811
    10.1525  10.2458  10.3798  10.4197  10.4282  10.5541  10.5778

     the Fermi energy is     8.5669 ev

!    total energy              =   -2943.01452661 Ry
     estimated scf accuracy    <       0.00080300 Ry
     smearing contrib. (-TS)   =      -0.10135921 Ry
     internal energy E=F+TS    =   -2942.91316740 Ry

     total magnetization       =    -0.01 Bohr mag/cell
     absolute magnetization    =     0.07 Bohr mag/cell

     convergence has been achieved in  12 iterations

     negative rho (up, down):  9.078E-01 9.078E-01

     Forces acting on atoms (cartesian axes, Ry/au):

     atom    1 type  1   force =    -0.01117101   -0.02733056    0.01624741
     atom    2 type  1   force =    -0.12271179   -0.01804520   -0.00233686
     atom    3 type  1   force =    -0.12218177    0.01421737    0.00102852
     atom    4 type  1   force =     0.12136608   -0.01992752   -0.00347468
     atom    5 type  1   force =     0.12701201    0.01365011    0.00199915
     atom    6 type  2   force =    -0.00986842   -0.01722401    0.00272544
     atom    7 type  2   force =    -0.00825288    0.01498696   -0.00406856
     atom    8 type  3   force =    -0.13948472    0.00603256   -0.00497680
     atom    9 type  3   force =    -0.07414677   -0.03861126   -0.00265007
     atom   10 type  3   force =    -0.02359967   -0.02997834   -0.05876357
     atom   11 type  3   force =    -0.02283087   -0.03587328    0.05672256
     atom   12 type  3   force =    -0.01913305    0.03469799   -0.05564196
     atom   13 type  3   force =    -0.02180794    0.02921153    0.06034783
     atom   14 type  3   force =     0.02565685   -0.03020350   -0.05745964
     atom   15 type  3   force =     0.02432086   -0.03312906    0.05410158
     atom   16 type  3   force =     0.02017296    0.03420418   -0.05222444
     atom   17 type  3   force =     0.02224879    0.02990913    0.05837721
     atom   18 type  4   force =    -0.00987411    0.02682371   -0.01625614
     atom   19 type  4   force =    -0.13590965   -0.00340625   -0.11476520
     atom   20 type  4   force =    -0.13964554    0.00550130    0.11846222
     atom   21 type  4   force =     0.13576290   -0.00539718   -0.11968959
     atom   22 type  4   force =     0.14007295    0.00549235    0.12184133
     atom   23 type  5   force =     0.24400478    0.04439895    0.00045427
     The non-local contrib.  to forces
     atom    1 type  1   force =    -0.00501842   -0.01491324    0.03420605
     atom    2 type  1   force =    -0.24477694   -0.16537346    0.01805495
     atom    3 type  1   force =    -0.23923904    0.15880382   -0.02853986
     atom    4 type  1   force =     0.25378846   -0.16407856    0.01655363
     atom    5 type  1   force =     0.25831617    0.15324080   -0.02848994
     atom    6 type  2   force =    -0.00301257   -0.06111731   -0.07421756
     atom    7 type  2   force =    -0.01500478    0.07154304    0.06162259
     atom    8 type  3   force =    -0.27033988    0.00050792   -0.00491045
     atom    9 type  3   force =    -0.05466610   -0.05068531   -0.00590223
     atom   10 type  3   force =    -0.21772957    0.00655568   -0.21352729
     atom   11 type  3   force =    -0.22237250    0.00675399    0.20372864
     atom   12 type  3   force =    -0.20498422   -0.02286245   -0.18361631
     atom   13 type  3   force =    -0.21627442   -0.00720205    0.20991663
     atom   14 type  3   force =     0.21587252    0.00306187   -0.21538914
     atom   15 type  3   force =     0.22160779    0.00809849    0.20401791
     atom   16 type  3   force =     0.20905897   -0.02204356   -0.18546443
     atom   17 type  3   force =     0.21915632   -0.00562617    0.21228578
     atom   18 type  4   force =    -0.01591872    0.06638163   -0.06698374
     atom   19 type  4   force =     0.06969517    0.00856319    0.06349862
     atom   20 type  4   force =     0.06426007   -0.00961284   -0.05887349
     atom   21 type  4   force =    -0.06661705    0.00793678    0.06665978
     atom   22 type  4   force =    -0.06198114   -0.00885834   -0.05956186
     atom   23 type  5   force =    -0.09736687   -0.01188705   -0.00001815
     The ionic contribution  to forces
     atom    1 type  1   force =    -0.22569688   -4.75810455   14.43462010
     atom    2 type  1   force =   -34.49872735   -6.23105801    0.77902446
     atom    3 type  1   force =   -34.47588633    6.24552882   -0.71240611
     atom    4 type  1   force =    34.33734826   -6.42221527    0.77798485
     atom    5 type  1   force =    34.24909936    6.53549164   -0.71058983
     atom    6 type  2   force =    -0.23830969   -3.72641569  -14.36733726
     atom    7 type  2   force =    -0.28508368    3.74730994   14.43115555
     atom    8 type  3   force =   -46.17731203    0.04392113   -0.06585804
     atom    9 type  3   force =    43.22331967   -0.33784681   -0.06788308
     atom   10 type  3   force =   -31.09972299   -2.13970446  -23.64129021
     atom   11 type  3   force =   -30.16831588   -0.88707264   22.64328305
     atom   12 type  3   force =   -30.28259405    0.84926385  -22.70081732
     atom   13 type  3   force =   -31.07488743    2.24021757   23.63328788
     atom   14 type  3   force =    31.02986304   -2.18988802  -23.70669346
     atom   15 type  3   force =    30.09925716   -0.93677863   22.70834376
     atom   16 type  3   force =    30.20078271    0.91541114  -22.78404574
     atom   17 type  3   force =    30.99179953    2.30731616   23.71746347
     atom   18 type  4   force =    -0.26653621    4.51030558  -14.32196666
     atom   19 type  4   force =   -31.10361782    0.95006408  -26.14120847
     atom   20 type  4   force =   -31.07509964   -0.96821482   26.11977777
     atom   21 type  4   force =    30.93023493    0.93165049  -26.39624697
     atom   22 type  4   force =    30.90273069   -0.98389801   26.37479720
     atom   23 type  5   force =     5.00735462    0.30471651   -0.00339494
     The local contribution  to forces
     atom    1 type  1   force =     0.21215713    4.74242501  -14.45341490
     atom    2 type  1   force =    34.62492567    6.37526792   -0.80190185
     atom    3 type  1   force =    34.59893723   -6.38922887    0.73798965
     atom    4 type  1   force =   -34.47607928    6.55657213   -0.80123343
     atom    5 type  1   force =   -34.38808013   -6.66854196    0.73621582
     atom    6 type  2   force =     0.22197950    3.77681125   14.43577941
     atom    7 type  2   force =     0.28315341   -3.80702840  -14.50182998
     atom    8 type  3   force =    46.31489402   -0.03687951    0.05757625
     atom    9 type  3   force =   -43.23158892    0.35919061    0.06272400
     atom   10 type  3   force =    31.30848043    2.09111933   23.80965454
     atom   11 type  3   force =    30.38626184    0.83330177  -22.80787691
     atom   12 type  3   force =    30.48982484   -0.78425756   22.83968939
     atom   13 type  3   force =    31.28392689   -2.19353278  -23.79354317
     atom   14 type  3   force =   -31.23552498    2.13890674   23.87493674
     atom   15 type  3   force =   -30.31704396    0.88278504  -22.87239877
     atom   16 type  3   force =   -30.41130734   -0.84700471   22.92570051
     atom   17 type  3   force =   -31.20614635   -2.25921020  -23.87951288
     atom   18 type  4   force =     0.26498966   -4.55035783   14.36097235
     atom   19 type  4   force =    30.90144577   -0.95780940   25.96631550
     atom   20 type  4   force =    30.87392336    0.98383441  -25.94186334
     atom   21 type  4   force =   -30.73485579   -0.94017011   26.20788374
     atom   22 type  4   force =   -30.70589207    0.99774072  -26.18797544
     atom   23 type  5   force =    -4.66407615   -0.24840379    0.00295270
     The core correction contribution to forces
     atom    1 type  1   force =     0.00050493    0.00350620   -0.00215070
     atom    2 type  1   force =    -0.01159723   -0.00148899    0.00093342
     atom    3 type  1   force =    -0.01225513    0.00234933   -0.00153537
     atom    4 type  1   force =     0.01202659   -0.00179527    0.00093888
     atom    5 type  1   force =     0.01237400    0.00267911   -0.00191257
     atom    6 type  2   force =     0.00002268    0.00277486    0.00286292
     atom    7 type  2   force =     0.00051613   -0.00323095   -0.00213075
     atom    8 type  3   force =    -0.03107041    0.00086647   -0.00080319
     atom    9 type  3   force =     0.00173084   -0.00568242   -0.00020617
     atom   10 type  3   force =    -0.02208219    0.00866165   -0.01667850
     atom   11 type  3   force =    -0.02400518    0.00900759    0.01745599
     atom   12 type  3   force =    -0.02234377   -0.00933266   -0.01559868
     atom   13 type  3   force =    -0.02243322   -0.00846768    0.01655106
     atom   14 type  3   force =     0.02316121    0.00963043   -0.01490303
     atom   15 type  3   force =     0.02453176    0.01061602    0.01559332
     atom   16 type  3   force =     0.02310393   -0.01100027   -0.01386159
     atom   17 type  3   force =     0.02324822   -0.00958113    0.01508186
     atom   18 type  4   force =     0.00067379   -0.00350895    0.00308913
     atom   19 type  4   force =    -0.01030149    0.00013527   -0.00900973
     atom   20 type  4   force =    -0.01011390    0.00012092    0.00894195
     atom   21 type  4   force =     0.01035478    0.00020792   -0.00916427
     atom   22 type  4   force =     0.01018506    0.00009483    0.00893650
     atom   23 type  5   force =     0.00000000    0.00000000    0.00000000
     The Hubbard contrib.    to forces
     atom    1 type  1   force =     0.00000000    0.00000000    0.00000000
     atom    2 type  1   force =     0.00000000    0.00000000    0.00000000
     atom    3 type  1   force =     0.00000000    0.00000000    0.00000000
     atom    4 type  1   force =     0.00000000    0.00000000    0.00000000
     atom    5 type  1   force =     0.00000000    0.00000000    0.00000000
     atom    6 type  2   force =     0.00000000    0.00000000    0.00000000
     atom    7 type  2   force =     0.00000000    0.00000000    0.00000000
     atom    8 type  3   force =     0.00000000    0.00000000    0.00000000
     atom    9 type  3   force =     0.00000000    0.00000000    0.00000000
     atom   10 type  3   force =     0.00000000    0.00000000    0.00000000
     atom   11 type  3   force =     0.00000000    0.00000000    0.00000000
     atom   12 type  3   force =     0.00000000    0.00000000    0.00000000
     atom   13 type  3   force =     0.00000000    0.00000000    0.00000000
     atom   14 type  3   force =     0.00000000    0.00000000    0.00000000
     atom   15 type  3   force =     0.00000000    0.00000000    0.00000000
     atom   16 type  3   force =     0.00000000    0.00000000    0.00000000
     atom   17 type  3   force =     0.00000000    0.00000000    0.00000000
     atom   18 type  4   force =     0.00000000    0.00000000    0.00000000
     atom   19 type  4   force =     0.00000000    0.00000000    0.00000000
     atom   20 type  4   force =     0.00000000    0.00000000    0.00000000
     atom   21 type  4   force =     0.00000000    0.00000000    0.00000000
     atom   22 type  4   force =     0.00000000    0.00000000    0.00000000
     atom   23 type  5   force =     0.00000000    0.00000000    0.00000000
     The SCF correction term to forces
     atom    1 type  1   force =     0.00000000   -0.00000000    0.00000000
     atom    2 type  1   force =     0.00000000    0.00000000    0.00000000
     atom    3 type  1   force =     0.00000000   -0.00000000    0.00000000
     atom    4 type  1   force =    -0.00000000    0.00000000    0.00000000
     atom    5 type  1   force =    -0.00000000   -0.00000000    0.00000000
     atom    6 type  2   force =     0.00000000   -0.00000000    0.00000000
     atom    7 type  2   force =     0.00000000    0.00000000    0.00000000
     atom    8 type  3   force =     0.00000000   -0.00000000    0.00000000
     atom    9 type  3   force =    -0.00000000   -0.00000000    0.00000000
     atom   10 type  3   force =     0.00000000    0.00000000    0.00000000
     atom   11 type  3   force =     0.00000000    0.00000000   -0.00000000
     atom   12 type  3   force =     0.00000000    0.00000000    0.00000000
     atom   13 type  3   force =     0.00000000   -0.00000000   -0.00000000
     atom   14 type  3   force =    -0.00802335    0.00803834    0.00421553
     atom   15 type  3   force =    -0.00434030    0.00210288   -0.00182838
     atom   16 type  3   force =    -0.00177374   -0.00120555    0.00507307
     atom   17 type  3   force =    -0.00611735   -0.00303667   -0.00731475
     atom   18 type  4   force =     0.00660895    0.00395614    0.00825905
     atom   19 type  4   force =     0.00656030   -0.00440653    0.00526515
     atom   20 type  4   force =     0.00707615   -0.00067352   -0.00989441
     atom   21 type  4   force =    -0.00366240   -0.00506940    0.01080440
     atom   22 type  4   force =    -0.00527802    0.00036601   -0.01472881
     atom   23 type  5   force =    -0.00221524   -0.00007386    0.00054092

     Total force =     0.462257     Total SCF correction =     0.032802

     Molecular Dynamics Calculation

     Starting temperature  =   300.00 K

     temperature is set once at start

     mass Hf               =   178.49
     mass Nb               =    92.91
     mass Ta               =   180.95
     mass Zr               =    91.22
     mass H                =     2.01
     Time step             =     4.20 a.u.,  0.2032 femto-seconds

     Entering Dynamics:    iteration =     1
                           time      =   0.0002 pico-seconds


ATOMIC_POSITIONS (angstrom)
Hf            2.6699999570        2.8271230292        6.6039642186    0   0   0
Hf            1.2529906802        1.2862841814        5.0584662261    0   0   0
Hf            1.2554868986        7.3898042948        5.0880677674    0   0   0
Hf            4.0870092338        1.2862841814        5.0584662261    0   0   0
Hf            4.0845130154        7.3898042948        5.0880677674    0   0   0
Nb            2.6699999570        2.7969306055        3.5155832167    0   0   0
Nb            2.6699999570        5.8763786763        6.6349979432    0   0   0
Ta            1.2093730560        4.3409278516        5.0711258323    0   0   0
Ta            4.1306268580        4.3409278516        5.0711258323    0   0   0
Ta            1.3072526841        1.3141225894        2.0587791101    0   0   0
Ta            1.3027883142        1.3083911360        8.0945792024    0   0   0
Ta            1.3040096221        7.3758261241        2.0462371798    0   0   0
Ta            1.3077107984        7.3650829484        8.0860022208    0   0   0
Ta            4.0327479560        1.3141217346        2.0587774840
Ta            4.0372122881        1.3083901984        8.0945807335
Ta            4.0359908628        7.3758270921        2.0462357018
Ta            4.0322897452        7.3650837948        8.0860038729
Zr            2.6699994027        5.8662873491        3.5273830179
Zr            1.2438269898        4.3220777733        1.9999935577
Zr            1.2403775738        4.3541235933        8.1497621991
Zr            4.0961729160        4.3220776615        1.9999932813
Zr            4.0996223642        4.3541235928        8.1497623888
H             5.3167794766        4.5401128395        5.0721809498


     kinetic energy (Ekin) =          18.37431130 Ry
     temperature           =      193404.95351811 K 
     Ekin + Etot (const)   =       -2924.64021531 Ry

     File outdir/pwscf.msd.dat deleted, as requested

     Writing config-only to output data dir outdir/pwscf.save/
     NEW-OLD atomic charge density approx. for the potential

     Check: negative core charge=   -0.000002

     negative rho (up, down):  9.074E-01 9.074E-01
     Generating pointlists ...
     new r_m :   0.0595 (alat units)  0.9376 (a.u.) for type    3
     new r_m :   0.0595 (alat units)  0.9376 (a.u.) for type    5

     total cpu time spent up to now is      647.1 secs

     Self-consistent Calculation

     iteration #  1     ecut=   120.00 Ry     beta= 0.70
     Davidson diagonalization with overlap
     c_bands:  1 eigenvalues not converged
     c_bands:  1 eigenvalues not converged
     ethr =  1.00E-06,  avg # of iterations = 20.0

     negative rho (up, down):  9.078E-01 9.078E-01

     total cpu time spent up to now is      742.3 secs

     total energy              =   -2942.67783042 Ry
     estimated scf accuracy    <       0.17252331 Ry

     total magnetization       =    -0.01 Bohr mag/cell
     absolute magnetization    =     0.04 Bohr mag/cell

     iteration #  2     ecut=   120.00 Ry     beta= 0.70
     Davidson diagonalization with overlap
     ethr =  6.23E-05,  avg # of iterations =  3.0

     negative rho (up, down):  9.074E-01 9.075E-01

     total cpu time spent up to now is      784.9 secs

     total energy              =   -2942.70124987 Ry
     estimated scf accuracy    <       0.04485211 Ry

     total magnetization       =    -0.01 Bohr mag/cell
     absolute magnetization    =     0.04 Bohr mag/cell

     iteration #  3     ecut=   120.00 Ry     beta= 0.70
     Davidson diagonalization with overlap
     ethr =  1.62E-05,  avg # of iterations =  2.0

     negative rho (up, down):  9.073E-01 9.073E-01

     total cpu time spent up to now is      825.8 secs

     total energy              =   -2942.70339404 Ry
     estimated scf accuracy    <       0.00581775 Ry

     total magnetization       =    -0.01 Bohr mag/cell
     absolute magnetization    =     0.04 Bohr mag/cell

     iteration #  4     ecut=   120.00 Ry     beta= 0.70
     Davidson diagonalization with overlap
     ethr =  2.10E-06,  avg # of iterations = 17.0

     negative rho (up, down):  9.071E-01 9.071E-01

     total cpu time spent up to now is      874.7 secs

     total energy              =   -2942.70349411 Ry
     estimated scf accuracy    <       0.00136137 Ry

     total magnetization       =    -0.01 Bohr mag/cell
     absolute magnetization    =     0.03 Bohr mag/cell

     iteration #  5     ecut=   120.00 Ry     beta= 0.70
     Davidson diagonalization with overlap
     ethr =  4.91E-07,  avg # of iterations =  2.0

     negative rho (up, down):  9.070E-01 9.070E-01

     Magnetic moment per site  (integrated on atomic sphere of radius R)
     atom   1 (R=0.125)  charge=  9.4624  magn=  0.0001
     atom   2 (R=0.125)  charge=  9.0571  magn= -0.0001
     atom   3 (R=0.125)  charge=  9.0575  magn= -0.0001
     atom   4 (R=0.125)  charge=  9.0548  magn= -0.0001
     atom   5 (R=0.125)  charge=  9.0555  magn= -0.0002
     atom   6 (R=0.123)  charge= 10.3536  magn= -0.0002
     atom   7 (R=0.123)  charge= 10.3509  magn= -0.0000
     atom   8 (R=0.059)  charge=  2.8447  magn= -0.0000
     atom   9 (R=0.059)  charge=  2.8680  magn= -0.0000
     atom  10 (R=0.059)  charge=  2.8379  magn=  0.0001
     atom  11 (R=0.059)  charge=  2.8360  magn=  0.0000
     atom  12 (R=0.059)  charge=  2.8347  magn= -0.0001
     atom  13 (R=0.059)  charge=  2.8382  magn=  0.0000
     atom  14 (R=0.059)  charge=  2.8382  magn=  0.0000
     atom  15 (R=0.059)  charge=  2.8372  magn= -0.0000
     atom  16 (R=0.059)  charge=  2.8347  magn= -0.0002
     atom  17 (R=0.059)  charge=  2.8388  magn= -0.0001
     atom  18 (R=0.125)  charge=  9.4551  magn= -0.0000
     atom  19 (R=0.125)  charge=  8.9987  magn=  0.0013
     atom  20 (R=0.125)  charge=  8.9983  magn= -0.0001
     atom  21 (R=0.125)  charge=  8.9971  magn=  0.0007
     atom  22 (R=0.125)  charge=  8.9961  magn= -0.0006
     atom  23 (R=0.059)  charge=  0.8213  magn= -0.0000

     total cpu time spent up to now is      915.7 secs

     End of self-consistent calculation

 ------ SPIN UP ------------


          k = 0.0000 0.0000 0.0000 ( 55051 PWs)   bands (ev):

   -59.4950 -59.4895 -59.4497 -59.4441 -59.4155 -59.4083 -59.3713 -59.3647
   -59.2547 -58.6944 -53.0899 -53.0400 -52.9651 -52.9158 -51.4079 -44.9455
   -44.9375 -40.3218 -40.3101 -40.2223 -40.2184 -38.4969 -26.5040 -26.4898
   -26.4086 -26.4032 -26.3571 -26.3082 -26.2691 -26.1939 -26.1704 -26.0402
   -26.0306 -25.9768 -25.9672 -25.9410 -25.9255 -25.8905 -25.8773 -25.8662
   -25.8502 -25.8167 -25.6780 -25.6755 -25.6658 -25.6531 -25.6038 -25.5944
   -25.5814 -25.5703 -25.3543 -25.2837 -22.8750 -22.6623 -22.3606 -22.2758
   -22.0160 -21.8757 -21.8529 -21.7530 -21.6325 -21.5622 -21.5438 -21.3266
   -21.1950 -21.1392 -21.0871 -21.0359 -20.9748 -20.9198 -20.4678 -20.3936
   -20.3440 -18.8862 -18.6073 -18.5300 -18.5144 -18.2982 -18.2912 -18.2760
   -18.2686 -18.2555 -18.2173 -18.0490 -18.0384 -16.8477 -16.6368 -16.5146
     2.5896   3.5420   4.2121   4.4481   4.5927   4.8139   4.8239   4.9334
     4.9985   5.2103   5.2335   5.4695   5.5589   5.7773   5.8875   5.9830
     6.0635   6.1019   6.3298   6.3365   6.4236   6.5582   6.5948   6.6271
     6.6933   6.8446   6.8881   6.9927   7.0407   7.0523   7.0613   7.1158
     7.2203   7.4478   7.4591   7.5504   7.5658   7.6275   7.6531   7.6773
     7.8602   7.8885   7.9932   8.0173   8.1745   8.2608   8.3078   8.3355
     8.4342   8.5118   8.5930   8.6068   8.6138   8.8167   8.8179   8.8645
     8.9084   8.9759   9.1740   9.2305   9.3486   9.3768   9.5607   9.5835
     9.6297   9.6327   9.6617   9.6696   9.7309   9.8858  10.0056  10.0809
    10.1490  10.2494  10.3238  10.4091  10.4156  10.5508  10.5819

 ------ SPIN DOWN ----------


          k = 0.0000 0.0000 0.0000 ( 55051 PWs)   bands (ev):

   -59.4949 -59.4897 -59.4496 -59.4443 -59.4157 -59.4088 -59.3714 -59.3652
   -59.2548 -58.6947 -53.0900 -53.0401 -52.9652 -52.9159 -51.4078 -44.9457
   -44.9375 -40.3209 -40.3104 -40.2225 -40.2174 -38.4969 -26.5043 -26.4901
   -26.4088 -26.4034 -26.3573 -26.3082 -26.2693 -26.1941 -26.1711 -26.0400
   -26.0308 -25.9765 -25.9674 -25.9413 -25.9260 -25.8906 -25.8774 -25.8668
   -25.8506 -25.8168 -25.6778 -25.6758 -25.6661 -25.6535 -25.6041 -25.5949
   -25.5817 -25.5708 -25.3547 -25.2842 -22.8752 -22.6625 -22.3608 -22.2759
   -22.0162 -21.8759 -21.8531 -21.7532 -21.6326 -21.5624 -21.5439 -21.3267
   -21.1951 -21.1393 -21.0872 -21.0361 -20.9749 -20.9199 -20.4678 -20.3936
   -20.3439 -18.8850 -18.6078 -18.5289 -18.5128 -18.2980 -18.2912 -18.2754
   -18.2684 -18.2558 -18.2174 -18.0475 -18.0388 -16.8478 -16.6367 -16.5145
     2.5894   3.5417   4.2117   4.4480   4.5924   4.8135   4.8236   4.9331
     4.9984   5.2102   5.2331   5.4693   5.5587   5.7771   5.8873   5.9826
     6.0633   6.1018   6.3292   6.3363   6.4236   6.5583   6.5946   6.6268
     6.6929   6.8445   6.8881   6.9928   7.0409   7.0521   7.0612   7.1156
     7.2201   7.4473   7.4589   7.5503   7.5657   7.6271   7.6530   7.6773
     7.8599   7.8882   7.9932   8.0171   8.1742   8.2608   8.3075   8.3344
     8.4345   8.5108   8.5925   8.6060   8.6120   8.8162   8.8185   8.8645
     8.9079   8.9753   9.1740   9.2301   9.3485   9.3763   9.5601   9.5834
     9.6290   9.6321   9.6617   9.6694   9.7305   9.8854  10.0054  10.0806
    10.1489  10.2491  10.3237  10.4087  10.4151  10.5512  10.5836

     the Fermi energy is     8.5560 ev

!    total energy              =   -2942.70343373 Ry
     estimated scf accuracy    <       0.00036110 Ry
     smearing contrib. (-TS)   =      -0.10148174 Ry
     internal energy E=F+TS    =   -2942.60195199 Ry

     total magnetization       =    -0.01 Bohr mag/cell
     absolute magnetization    =     0.03 Bohr mag/cell

     convergence has been achieved in   5 iterations

     negative rho (up, down):  9.070E-01 9.070E-01

     Forces acting on atoms (cartesian axes, Ry/au):

     atom    1 type  1   force =    -0.00567323   -0.02663823    0.01609297
     atom    2 type  1   force =    -0.11988228   -0.01667467   -0.00022711
     atom    3 type  1   force =    -0.11955887    0.01322497    0.00524345
     atom    4 type  1   force =     0.11868921   -0.01573139   -0.00073897
     atom    5 type  1   force =     0.12422018    0.01148037    0.00700453
     atom    6 type  2   force =    -0.00659388   -0.01878795   -0.00003022
     atom    7 type  2   force =    -0.00439223    0.01646408   -0.00403181
     atom    8 type  3   force =    -0.13893427    0.00756664   -0.00394536
     atom    9 type  3   force =    -0.77706256   -0.18015778    0.00143957
     atom   10 type  3   force =    -0.02314063   -0.02890304   -0.06002318
     atom   11 type  3   force =    -0.02209110   -0.03572233    0.05556576
     atom   12 type  3   force =    -0.02097233    0.03435883   -0.05655130
     atom   13 type  3   force =    -0.02208422    0.02853225    0.05807902
     atom   14 type  3   force =     0.02425526   -0.02723114   -0.05834333
     atom   15 type  3   force =     0.02305567   -0.03208060    0.05289424
     atom   16 type  3   force =     0.02100418    0.03394896   -0.05363913
     atom   17 type  3   force =     0.02149968    0.02873288    0.05643763
     atom   18 type  4   force =    -0.00514677    0.02815529   -0.01459600
     atom   19 type  4   force =    -0.13609742   -0.00467873   -0.11385732
     atom   20 type  4   force =    -0.14065460    0.00511721    0.11494690
     atom   21 type  4   force =     0.13425415   -0.00764687   -0.11653746
     atom   22 type  4   force =     0.13951365    0.00500089    0.11595703
     atom   23 type  5   force =     0.93579239    0.18167036   -0.00113992
     The non-local contrib.  to forces
     atom    1 type  1   force =     0.00001890   -0.00689490    0.02820489
     atom    2 type  1   force =    -0.24614042   -0.16219709    0.01934789
     atom    3 type  1   force =    -0.24047846    0.15606558   -0.02662988
     atom    4 type  1   force =     0.25176179   -0.16056776    0.01843472
     atom    5 type  1   force =     0.25466411    0.15176106   -0.02624027
     atom    6 type  2   force =    -0.00325063   -0.06098197   -0.07546423
     atom    7 type  2   force =    -0.01736652    0.07239646    0.06038827
     atom    8 type  3   force =    -0.23575897   -0.00280964   -0.00268775
     atom    9 type  3   force =     0.27646904   -0.01945902   -0.00040298
     atom   10 type  3   force =    -0.21766644    0.00624986   -0.21835763
     atom   11 type  3   force =    -0.22218137    0.00606608    0.20749587
     atom   12 type  3   force =    -0.20594318   -0.02462697   -0.18432667
     atom   13 type  3   force =    -0.21390384   -0.00766650    0.21061194
     atom   14 type  3   force =     0.21283274    0.00550737   -0.21789706
     atom   15 type  3   force =     0.22018576    0.00862706    0.20587706
     atom   16 type  3   force =     0.21157056   -0.02401845   -0.18699413
     atom   17 type  3   force =     0.21748768   -0.00720068    0.21325709
     atom   18 type  4   force =    -0.01667210    0.06682328   -0.06284612
     atom   19 type  4   force =     0.07168974    0.00834629    0.06703050
     atom   20 type  4   force =     0.06591677   -0.00972151   -0.06379434
     atom   21 type  4   force =    -0.06833188    0.00702450    0.06857455
     atom   22 type  4   force =    -0.06320248   -0.00840215   -0.06161147
     atom   23 type  5   force =    -0.17306446   -0.02598328   -0.00041564
     The ionic contribution  to forces
     atom    1 type  1   force =    -0.28290010   -4.79809851   14.47151448
     atom    2 type  1   force =   -34.53428915   -6.23015818    0.77903156
     atom    3 type  1   force =   -34.51968234    6.24436782   -0.71240481
     atom    4 type  1   force =    34.35305297   -6.46395382    0.77777266
     atom    5 type  1   force =    34.26516265    6.60562810   -0.71016261
     atom    6 type  2   force =    -0.29809826   -3.76879357  -14.40642949
     atom    7 type  2   force =    -0.36221411    3.79026190   14.48245449
     atom    8 type  3   force =   -46.31085087    0.04471897   -0.06585755
     atom    9 type  3   force =    41.39107391   -0.75240936   -0.07009027
     atom   10 type  3   force =   -31.11745025   -2.13970270  -23.64125627
     atom   11 type  3   force =   -30.18594277   -0.88704539   22.64321490
     atom   12 type  3   force =   -30.30274425    0.84926402  -22.70077749
     atom   13 type  3   force =   -31.09521478    2.24023752   23.63326833
     atom   14 type  3   force =    31.03779066   -2.19910687  -23.71827537
     atom   15 type  3   force =    30.10721089   -0.94586809   22.71981160
     atom   16 type  3   force =    30.20969328    0.92786973  -22.79934209
     atom   17 type  3   force =    31.00070010    2.32001467   23.73300303
     atom   18 type  4   force =    -0.33904618    4.55039217  -14.36965858
     atom   19 type  4   force =   -31.13926218    0.95014644  -26.13962880
     atom   20 type  4   force =   -31.11066714   -0.96812995   26.11811984
     atom   21 type  4   force =    30.94519857    0.92760758  -26.45201099
     atom   22 type  4   force =    30.91783793   -0.98732728   26.43037602
     atom   23 type  5   force =     7.37064142    0.69008478   -0.00267260
     The local contribution  to forces
     atom    1 type  1   force =     0.27594040    4.77534435  -14.48217733
     atom    2 type  1   force =    34.67358591    6.37723124   -0.79264380
     atom    3 type  1   force =    34.65436064   -6.38833497    0.75472348
     atom    4 type  1   force =   -34.50124161    6.61213215   -0.79114616
     atom    5 type  1   force =   -34.41282185   -6.74749818    0.75543353
     atom    6 type  2   force =     0.29508751    3.81192616   14.49413947
     atom    7 type  2   force =     0.37391261   -3.84444677  -14.54652663
     atom    8 type  3   force =    46.45082410   -0.03651150    0.07388383
     atom    9 type  3   force =   -42.49465099    0.59612762    0.07933889
     atom   10 type  3   force =    31.33061458    2.09591600   23.81661820
     atom   11 type  3   force =    30.40694558    0.83195649  -22.81447058
     atom   12 type  3   force =    30.50364052   -0.77756164   22.84292471
     atom   13 type  3   force =    31.30594927   -2.19066575  -23.80528354
     atom   14 type  3   force =   -31.24947332    2.16003686   23.89310076
     atom   15 type  3   force =   -30.32886470    0.89058991  -22.88984526
     atom   16 type  3   force =   -30.42238252   -0.85637928   22.94560620
     atom   17 type  3   force =   -31.21922687   -2.27016629  -23.90859555
     atom   18 type  4   force =     0.34839609   -4.59147086   14.43040537
     atom   19 type  4   force =    30.93875427   -0.96574995   25.96994386
     atom   20 type  4   force =    30.91005152    0.98285034  -25.95290709
     atom   21 type  4   force =   -30.75336717   -0.94655823   26.28082986
     atom   22 type  4   force =   -30.72450495    1.00067655  -26.26815027
     atom   23 type  5   force =    -6.26653603   -0.48237315    0.00320135
     The core correction contribution to forces
     atom    1 type  1   force =     0.00063632    0.00439868   -0.00314555
     atom    2 type  1   force =    -0.01174890   -0.00126453    0.00090757
     atom    3 type  1   force =    -0.01227761    0.00214636   -0.00155009
     atom    4 type  1   force =     0.01185773   -0.00177997    0.00100904
     atom    5 type  1   force =     0.01231709    0.00221849   -0.00189521
     atom    6 type  2   force =     0.00018961    0.00288733    0.00308498
     atom    7 type  2   force =     0.00075389   -0.00331955   -0.00216427
     atom    8 type  3   force =    -0.02906238    0.00073233   -0.00088130
     atom    9 type  3   force =     0.01502270   -0.00604271    0.00037773
     atom   10 type  3   force =    -0.02178902    0.00867679   -0.01710395
     atom   11 type  3   force =    -0.02352864    0.00912748    0.01764321
     atom   12 type  3   force =    -0.02221565   -0.00968443   -0.01558056
     atom   13 type  3   force =    -0.02223234   -0.00875313    0.01649154
     atom   14 type  3   force =     0.02298091    0.00948025   -0.01546164
     atom   15 type  3   force =     0.02437182    0.01043366    0.01606086
     atom   16 type  3   force =     0.02280632   -0.01075676   -0.01427483
     atom   17 type  3   force =     0.02280343   -0.00936101    0.01551907
     atom   18 type  4   force =     0.00085597   -0.00354545    0.00307916
     atom   19 type  4   force =    -0.01030602    0.00010991   -0.00918884
     atom   20 type  4   force =    -0.01015095    0.00011263    0.00913974
     atom   21 type  4   force =     0.01027408    0.00018162   -0.00919527
     atom   22 type  4   force =     0.01012063    0.00003836    0.00890028
     atom   23 type  5   force =     0.00000000    0.00000000    0.00000000
     The Hubbard contrib.    to forces
     atom    1 type  1   force =     0.00000000    0.00000000    0.00000000
     atom    2 type  1   force =     0.00000000    0.00000000    0.00000000
     atom    3 type  1   force =     0.00000000    0.00000000    0.00000000
     atom    4 type  1   force =     0.00000000    0.00000000    0.00000000
     atom    5 type  1   force =     0.00000000    0.00000000    0.00000000
     atom    6 type  2   force =     0.00000000    0.00000000    0.00000000
     atom    7 type  2   force =     0.00000000    0.00000000    0.00000000
     atom    8 type  3   force =     0.00000000    0.00000000    0.00000000
     atom    9 type  3   force =     0.00000000    0.00000000    0.00000000
     atom   10 type  3   force =     0.00000000    0.00000000    0.00000000
     atom   11 type  3   force =     0.00000000    0.00000000    0.00000000
     atom   12 type  3   force =     0.00000000    0.00000000    0.00000000
     atom   13 type  3   force =     0.00000000    0.00000000    0.00000000
     atom   14 type  3   force =     0.00000000    0.00000000    0.00000000
     atom   15 type  3   force =     0.00000000    0.00000000    0.00000000
     atom   16 type  3   force =     0.00000000    0.00000000    0.00000000
     atom   17 type  3   force =     0.00000000    0.00000000    0.00000000
     atom   18 type  4   force =     0.00000000    0.00000000    0.00000000
     atom   19 type  4   force =     0.00000000    0.00000000    0.00000000
     atom   20 type  4   force =     0.00000000    0.00000000    0.00000000
     atom   21 type  4   force =     0.00000000    0.00000000    0.00000000
     atom   22 type  4   force =     0.00000000    0.00000000    0.00000000
     atom   23 type  5   force =     0.00000000    0.00000000    0.00000000
     The SCF correction term to forces
     atom    1 type  1   force =     0.00000000   -0.00000000    0.00000000
     atom    2 type  1   force =    -0.00000000   -0.00000000   -0.00000000
     atom    3 type  1   force =    -0.00000000   -0.00000000   -0.00000000
     atom    4 type  1   force =     0.00000000   -0.00000000   -0.00000000
     atom    5 type  1   force =     0.00000000   -0.00000000   -0.00000000
     atom    6 type  2   force =    -0.00000000   -0.00000000   -0.00000000
     atom    7 type  2   force =     0.00000000    0.00000000    0.00000000
     atom    8 type  3   force =    -0.00000000    0.00000000   -0.00000000
     atom    9 type  3   force =     0.00000000    0.00000000   -0.00000000
     atom   10 type  3   force =     0.00000000   -0.00000000    0.00000000
     atom   11 type  3   force =     0.00000000    0.00000000    0.00000000
     atom   12 type  3   force =     0.00000000   -0.00000000    0.00000000
     atom   13 type  3   force =     0.00000000   -0.00000000    0.00000000
     atom   14 type  3   force =    -0.00029834   -0.00311069    0.00073747
     atom   15 type  3   force =    -0.00027071    0.00417492    0.00153748
     atom   16 type  3   force =    -0.00110608   -0.00272822    0.00191320
     atom   17 type  3   force =    -0.00068728   -0.00451576    0.00380150
     atom   18 type  4   force =     0.00089684    0.00599420   -0.01502834
     atom   19 type  4   force =     0.00260415    0.00250664   -0.00146655
     atom   20 type  4   force =     0.00377257    0.00004375    0.00493625
     atom   21 type  4   force =     0.00005793    0.00413571   -0.00418812
     atom   22 type  4   force =    -0.00116010    0.00005346    0.00698996
     atom   23 type  5   force =     0.00432885   -0.00001993   -0.00070553

     Total force =     1.028062     Total SCF correction =     0.022323

     Entering Dynamics:    iteration =     2
                           time      =   0.0004 pico-seconds


ATOMIC_POSITIONS (angstrom)
Hf            2.6699999570        2.8271230292        6.6039642186    0   0   0
Hf            1.2529906802        1.2862841814        5.0584662261    0   0   0
Hf            1.2554868986        7.3898042948        5.0880677674    0   0   0
Hf            4.0870092338        1.2862841814        5.0584662261    0   0   0
Hf            4.0845130154        7.3898042948        5.0880677674    0   0   0
Nb            2.6699999570        2.7969306055        3.5155832167    0   0   0
Nb            2.6699999570        5.8763786763        6.6349979432    0   0   0
Ta            1.2093730560        4.3409278516        5.0711258323    0   0   0
Ta            4.1306268580        4.3409278516        5.0711258323    0   0   0
Ta            1.3072526841        1.3141225894        2.0587791101    0   0   0
Ta            1.3027883142        1.3083911360        8.0945792024    0   0   0
Ta            1.3040096221        7.3758261241        2.0462371798    0   0   0
Ta            1.3077107984        7.3650829484        8.0860022208    0   0   0
Ta            4.0327500549        1.3141193386        2.0587725557
Ta            4.0372142813        1.3083874451        8.0945852584
Ta            4.0359926225        7.3758299816        2.0462311879
Ta            4.0322915918        7.3650862675        8.0860087193
Zr            2.6699982706        5.8662920158        3.5273804667
Zr            1.2438040810        4.3220770568        1.9999743327
Zr            1.2403539436        4.3541244766        8.1497817539
Zr            4.0961956096        4.3220765001        1.9999734790
Zr            4.0996458903        4.3541244626        8.1497822467
H             5.0076908096        4.5411495634        5.0721763081


     kinetic energy (Ekin) =          18.02550769 Ry
     temperature           =      189733.50459803 K 
     Ekin + Etot (const)   =       -2924.67792604 Ry

     Writing config-only to output data dir outdir/pwscf.save/
     NEW-OLD atomic charge density approx. for the potential

     Check: negative core charge=   -0.000002

     negative rho (up, down):  9.060E-01 9.060E-01
     Generating pointlists ...
     new r_m :   0.0445 (alat units)  0.7013 (a.u.) for type    3
     new r_m :   0.0445 (alat units)  0.7013 (a.u.) for type    5

     total cpu time spent up to now is      939.8 secs

     Self-consistent Calculation

     iteration #  1     ecut=   120.00 Ry     beta= 0.70
     Davidson diagonalization with overlap
     c_bands:  2 eigenvalues not converged
     c_bands:  1 eigenvalues not converged
     ethr =  1.00E-06,  avg # of iterations = 20.0

     negative rho (up, down):  9.071E-01 9.071E-01

     total cpu time spent up to now is     1038.6 secs

     total energy              =   -2941.54862420 Ry
     estimated scf accuracy    <       0.22121263 Ry

     total magnetization       =    -0.01 Bohr mag/cell
     absolute magnetization    =     0.02 Bohr mag/cell

     iteration #  2     ecut=   120.00 Ry     beta= 0.70
     Davidson diagonalization with overlap
     ethr =  7.99E-05,  avg # of iterations =  3.0

     negative rho (up, down):  9.069E-01 9.069E-01

     total cpu time spent up to now is     1082.7 secs

     total energy              =   -2941.57946838 Ry
     estimated scf accuracy    <       0.10484690 Ry

     total magnetization       =    -0.01 Bohr mag/cell
     absolute magnetization    =     0.03 Bohr mag/cell

     iteration #  3     ecut=   120.00 Ry     beta= 0.70
     Davidson diagonalization with overlap
     ethr =  3.79E-05,  avg # of iterations =  1.0

     negative rho (up, down):  9.067E-01 9.067E-01

     total cpu time spent up to now is     1119.3 secs

     total energy              =   -2941.58383374 Ry
     estimated scf accuracy    <       0.00855698 Ry

     total magnetization       =    -0.01 Bohr mag/cell
     absolute magnetization    =     0.02 Bohr mag/cell

     iteration #  4     ecut=   120.00 Ry     beta= 0.70
     Davidson diagonalization with overlap
     ethr =  3.09E-06,  avg # of iterations = 12.5

     negative rho (up, down):  9.066E-01 9.066E-01

     total cpu time spent up to now is     1166.1 secs

     total energy              =   -2941.58454688 Ry
     estimated scf accuracy    <       0.00270383 Ry

     total magnetization       =    -0.01 Bohr mag/cell
     absolute magnetization    =     0.02 Bohr mag/cell

     iteration #  5     ecut=   120.00 Ry     beta= 0.70
     Davidson diagonalization with overlap
     ethr =  9.76E-07,  avg # of iterations =  2.0

     negative rho (up, down):  9.067E-01 9.067E-01

     Magnetic moment per site  (integrated on atomic sphere of radius R)
     atom   1 (R=0.125)  charge=  9.4561  magn=  0.0000
     atom   2 (R=0.125)  charge=  9.0561  magn= -0.0001
     atom   3 (R=0.125)  charge=  9.0564  magn= -0.0001
     atom   4 (R=0.125)  charge=  9.0507  magn= -0.0000
     atom   5 (R=0.125)  charge=  9.0521  magn= -0.0001
     atom   6 (R=0.123)  charge= 10.3445  magn= -0.0000
     atom   7 (R=0.123)  charge= 10.3437  magn= -0.0000
     atom   8 (R=0.044)  charge=  0.7721  magn=  0.0000
     atom   9 (R=0.044)  charge=  0.7857  magn= -0.0000
     atom  10 (R=0.044)  charge=  0.7706  magn=  0.0000
     atom  11 (R=0.044)  charge=  0.7702  magn= -0.0000
     atom  12 (R=0.044)  charge=  0.7712  magn= -0.0000
     atom  13 (R=0.044)  charge=  0.7702  magn= -0.0000
     atom  14 (R=0.044)  charge=  0.7699  magn=  0.0000
     atom  15 (R=0.044)  charge=  0.7699  magn= -0.0000
     atom  16 (R=0.044)  charge=  0.7716  magn= -0.0000
     atom  17 (R=0.044)  charge=  0.7694  magn= -0.0000
     atom  18 (R=0.125)  charge=  9.4498  magn= -0.0000
     atom  19 (R=0.125)  charge=  9.0005  magn=  0.0006
     atom  20 (R=0.125)  charge=  8.9963  magn= -0.0003
     atom  21 (R=0.125)  charge=  8.9953  magn=  0.0002
     atom  22 (R=0.125)  charge=  8.9909  magn= -0.0006
     atom  23 (R=0.044)  charge=  0.7239  magn= -0.0000

     total cpu time spent up to now is     1209.3 secs

     End of self-consistent calculation

 ------ SPIN UP ------------


          k = 0.0000 0.0000 0.0000 ( 55051 PWs)   bands (ev):

   -59.7215 -59.5163 -59.4978 -59.4702 -59.4513 -59.4288 -59.4247 -59.3997
   -59.3844 -59.3794 -53.0917 -53.0459 -52.9675 -52.9222 -51.4588 -44.9653
   -44.9587 -40.3354 -40.3219 -40.2347 -40.2334 -38.5229 -28.7774 -26.5098
   -26.4999 -26.4262 -26.4107 -26.3306 -26.3146 -26.2046 -26.1879 -26.1802
   -26.0610 -26.0397 -25.9990 -25.9904 -25.9749 -25.9427 -25.9318 -25.9164
   -25.8838 -25.8757 -25.6963 -25.6821 -25.6765 -25.6727 -25.6142 -25.6114
   -25.5909 -25.5864 -25.5276 -25.4622 -22.8840 -22.6700 -22.3702 -22.2783
   -22.0261 -21.8858 -21.8575 -21.7624 -21.6428 -21.5639 -21.5503 -21.3283
   -21.2264 -21.1634 -21.1019 -21.0517 -20.9885 -20.9358 -20.5096 -20.4333
   -20.3899 -18.9000 -18.6163 -18.5419 -18.5287 -18.3101 -18.3044 -18.2921
   -18.2804 -18.2694 -18.2336 -18.0593 -18.0470 -16.8748 -16.6616 -16.5355
     2.6450   3.4950   4.2052   4.4387   4.5715   4.7866   4.8139   4.8917
     4.9482   5.1809   5.2215   5.4726   5.5501   5.7625   5.9073   5.9715
     6.0373   6.1655   6.3106   6.3265   6.4377   6.5448   6.5771   6.6075
     6.6780   6.8175   6.8769   6.9744   7.0360   7.0421   7.0619   7.0985
     7.2099   7.4311   7.4413   7.5431   7.5535   7.6313   7.6486   7.6641
     7.8271   7.8696   8.0068   8.1166   8.1665   8.2426   8.2964   8.3605
     8.4354   8.5142   8.5853   8.5945   8.6052   8.7987   8.8060   8.8624
     8.8936   9.0142   9.1371   9.1664   9.3289   9.3702   9.5178   9.5322
     9.5973   9.6254   9.6405   9.6514   9.7204   9.8831  10.0008  10.0509
    10.1568  10.2093  10.2710  10.4035  10.4085  10.5311  10.5645

 ------ SPIN DOWN ----------


          k = 0.0000 0.0000 0.0000 ( 55051 PWs)   bands (ev):

   -59.7215 -59.5163 -59.4981 -59.4702 -59.4514 -59.4292 -59.4249 -59.3997
   -59.3847 -59.3795 -53.0918 -53.0460 -52.9676 -52.9223 -51.4588 -44.9654
   -44.9588 -40.3351 -40.3223 -40.2350 -40.2331 -38.5229 -28.7774 -26.5101
   -26.5002 -26.4264 -26.4109 -26.3306 -26.3150 -26.2048 -26.1883 -26.1804
   -26.0610 -26.0399 -25.9990 -25.9904 -25.9752 -25.9431 -25.9320 -25.9164
   -25.8843 -25.8759 -25.6964 -25.6824 -25.6768 -25.6730 -25.6145 -25.6117
   -25.5912 -25.5868 -25.5277 -25.4623 -22.8841 -22.6701 -22.3703 -22.2784
   -22.0261 -21.8859 -21.8576 -21.7625 -21.6428 -21.5639 -21.5504 -21.3284
   -21.2264 -21.1634 -21.1019 -21.0517 -20.9886 -20.9359 -20.5097 -20.4333
   -20.3899 -18.8994 -18.6169 -18.5415 -18.5280 -18.3102 -18.3046 -18.2920
   -18.2805 -18.2698 -18.2339 -18.0586 -18.0475 -16.8748 -16.6616 -16.5355
     2.6448   3.4948   4.2049   4.4386   4.5714   4.7864   4.8134   4.8914
     4.9481   5.1808   5.2211   5.4724   5.5499   5.7623   5.9072   5.9711
     6.0371   6.1653   6.3102   6.3264   6.4375   6.5447   6.5769   6.6072
     6.6777   6.8173   6.8769   6.9743   7.0358   7.0419   7.0617   7.0984
     7.2098   7.4307   7.4411   7.5429   7.5533   7.6309   7.6485   7.6640
     7.8269   7.8693   8.0066   8.1164   8.1663   8.2423   8.2961   8.3595
     8.4352   8.5135   8.5845   8.5938   8.6039   8.7987   8.8054   8.8623
     8.8933   9.0137   9.1368   9.1662   9.3287   9.3697   9.5175   9.5320
     9.5969   9.6245   9.6402   9.6512   9.7201   9.8828  10.0005  10.0506
    10.1564  10.2088  10.2709  10.4032  10.4079  10.5312  10.5639

     the Fermi energy is     8.5523 ev

!    total energy              =   -2941.58437037 Ry
     estimated scf accuracy    <       0.00060069 Ry
     smearing contrib. (-TS)   =      -0.10380394 Ry
     internal energy E=F+TS    =   -2941.48056643 Ry

     total magnetization       =    -0.01 Bohr mag/cell
     absolute magnetization    =     0.02 Bohr mag/cell

     convergence has been achieved in   5 iterations

     negative rho (up, down):  9.067E-01 9.067E-01

     Forces acting on atoms (cartesian axes, Ry/au):

     atom    1 type  1   force =     0.01015418   -0.01951662    0.01131740
     atom    2 type  1   force =    -0.12472211   -0.01553993   -0.00514285
     atom    3 type  1   force =    -0.12447269    0.01178561    0.00003812
     atom    4 type  1   force =     0.12486987   -0.00917945   -0.00491254
     atom    5 type  1   force =     0.12957907    0.00481661    0.00088266
     atom    6 type  2   force =     0.00411084   -0.01820392    0.00064216
     atom    7 type  2   force =     0.00305943    0.01758879   -0.00260861
     atom    8 type  3   force =    -0.12711138    0.01191235   -0.00571799
     atom    9 type  3   force =    -3.37066400   -0.85901281    0.00597969
     atom   10 type  3   force =    -0.02553591   -0.03011926   -0.05951405
     atom   11 type  3   force =    -0.02490681   -0.03579133    0.05789621
     atom   12 type  3   force =    -0.02323792    0.03336004   -0.05518043
     atom   13 type  3   force =    -0.02637142    0.02714814    0.06046725
     atom   14 type  3   force =     0.02170735   -0.02673852   -0.05651143
     atom   15 type  3   force =     0.02189738   -0.02882733    0.05447503
     atom   16 type  3   force =     0.02077431    0.03282892   -0.05225685
     atom   17 type  3   force =     0.02189767    0.02564791    0.05880933
     atom   18 type  4   force =     0.00360720    0.02901117   -0.01411793
     atom   19 type  4   force =    -0.14132702   -0.00422285   -0.11552009
     atom   20 type  4   force =    -0.14526965    0.00566013    0.11927161
     atom   21 type  4   force =     0.13749562   -0.00769868   -0.11196020
     atom   22 type  4   force =     0.14276144    0.00422361    0.11424138
     atom   23 type  5   force =     3.49170455    0.85086745   -0.00057787
     The non-local contrib.  to forces
     atom    1 type  1   force =     0.00608771    0.00565015    0.01668863
     atom    2 type  1   force =    -0.24842851   -0.16175649    0.01620827
     atom    3 type  1   force =    -0.24318023    0.15613117   -0.02944930
     atom    4 type  1   force =     0.25035697   -0.15653037    0.01643710
     atom    5 type  1   force =     0.24784685    0.15132214   -0.02880422
     atom    6 type  2   force =    -0.00541792   -0.06477362   -0.07663978
     atom    7 type  2   force =    -0.02066811    0.07716659    0.06007010
     atom    8 type  3   force =    -0.20140211   -0.00693755   -0.00404267
     atom    9 type  3   force =     1.38378543    0.21267171    0.00689559
     atom   10 type  3   force =    -0.22024098    0.00311159   -0.22156022
     atom   11 type  3   force =    -0.22851186    0.00518374    0.21113414
     atom   12 type  3   force =    -0.20822415   -0.02682350   -0.18098882
     atom   13 type  3   force =    -0.21734838   -0.00771651    0.21029365
     atom   14 type  3   force =     0.21168339    0.00416892   -0.21922215
     atom   15 type  3   force =     0.22492530    0.00792824    0.20824704
     atom   16 type  3   force =     0.21649192   -0.02665722   -0.18474864
     atom   17 type  3   force =     0.22101917   -0.00731849    0.21297072
     atom   18 type  4   force =    -0.01603056    0.06978569   -0.06341968
     atom   19 type  4   force =     0.07125009    0.00963480    0.06387353
     atom   20 type  4   force =     0.06727815   -0.01041955   -0.06132889
     atom   21 type  4   force =    -0.06746555    0.00860114    0.06691641
     atom   22 type  4   force =    -0.06265119   -0.00821993   -0.06018557
     atom   23 type  5   force =    -0.13944102   -0.02057899   -0.00143658
     The ionic contribution  to forces
     atom    1 type  1   force =    -0.33553323   -4.85006742   14.51942160
     atom    2 type  1   force =   -34.56892943   -6.23437486    0.77901209
     atom    3 type  1   force =   -34.56257521    6.25053396   -0.71233917
     atom    4 type  1   force =    34.38113279   -6.50170864    0.77758540
     atom    5 type  1   force =    34.30018873    6.67247798   -0.70974562
     atom    6 type  2   force =    -0.35265925   -3.82361985  -14.45696887
     atom    7 type  2   force =    -0.43741254    3.84747875   14.55117150
     atom    8 type  3   force =   -46.44378647    0.04271735   -0.06588326
     atom    9 type  3   force =    37.56449160   -1.92060524   -0.07620693
     atom   10 type  3   force =   -31.13443796   -2.14134479  -23.64339841
     atom   11 type  3   force =   -30.20284183   -0.88864111   22.64530826
     atom   12 type  3   force =   -30.32215454    0.85148954  -22.70352072
     atom   13 type  3   force =   -31.11476100    2.24250418   23.63603839
     atom   14 type  3   force =    31.04987072   -2.20698231  -23.72808898
     atom   15 type  3   force =    30.11927935   -0.95361691   22.72951284
     atom   16 type  3   force =    30.22365500    0.93883776  -22.81269630
     atom   17 type  3   force =    31.01469945    2.33120761   23.74657241
     atom   18 type  4   force =    -0.41004928    4.60386747  -14.43367255
     atom   19 type  4   force =   -31.17383704    0.94965674  -26.14456187
     atom   20 type  4   force =   -31.14517292   -0.96852261   26.12296503
     atom   21 type  4   force =    30.97399944    0.92373247  -26.50269681
     atom   22 type  4   force =    30.94673232   -0.99062713   26.48082563
     atom   23 type  5   force =    11.63010133    1.82560703    0.00136635
     The local contribution  to forces
     atom    1 type  1   force =     0.35150611    4.83043260  -14.53258008
     atom    2 type  1   force =    34.69808183    6.37979781   -0.80884739
     atom    3 type  1   force =    34.68647252   -6.39296730    0.73326010
     atom    4 type  1   force =   -34.50693769    6.66484065   -0.80813869
     atom    5 type  1   force =   -34.41801792   -6.83341746    0.73066095
     atom    6 type  2   force =     0.37697410    3.87820861   14.53094813
     atom    7 type  2   force =     0.47570249   -3.91772440  -14.62499546
     atom    8 type  3   force =    46.55399558   -0.02637029    0.05646275
     atom    9 type  3   force =   -42.43020354    0.83498454    0.06477811
     atom   10 type  3   force =    31.34219501    2.09600813   23.81996248
     atom   11 type  3   force =    30.42374189    0.84222883  -22.81264203
     atom   12 type  3   force =    30.52271624   -0.78000719   22.84115329
     atom   13 type  3   force =    31.31873218   -2.20171174  -23.79474051
     atom   14 type  3   force =   -31.25266390    2.16343796   23.90448466
     atom   15 type  3   force =   -30.33865383    0.91146227  -22.89623470
     atom   16 type  3   force =   -30.43303035   -0.86853713   22.95776625
     atom   17 type  3   force =   -31.22562895   -2.29232046  -23.91078419
     atom   18 type  4   force =     0.44403231   -4.64877280   14.47552445
     atom   19 type  4   force =    30.96239679   -0.96125036   25.96657444
     atom   20 type  4   force =    30.93515476    0.98406109  -25.94262800
     atom   21 type  4   force =   -30.76609034   -0.93756431   26.34313470
     atom   22 type  4   force =   -30.73910367    1.00175306  -26.32385265
     atom   23 type  5   force =    -8.00472450   -0.95518963   -0.00194117
     The core correction contribution to forces
     atom    1 type  1   force =     0.00074745    0.00538029   -0.00382156
     atom    2 type  1   force =    -0.01203033   -0.00101659    0.00051902
     atom    3 type  1   force =    -0.01231206    0.00166211   -0.00151011
     atom    4 type  1   force =     0.01138806   -0.00189129    0.00092659
     atom    5 type  1   force =     0.01135812    0.00184040   -0.00147840
     atom    6 type  2   force =     0.00049397    0.00342099    0.00351564
     atom    7 type  2   force =     0.00110564   -0.00370632   -0.00235074
     atom    8 type  3   force =    -0.02714346    0.00021845   -0.00074454
     atom    9 type  3   force =     0.10771151    0.01129152    0.00175842
     atom   10 type  3   force =    -0.02129974    0.00827484   -0.01743120
     atom   11 type  3   force =    -0.02295995    0.00916412    0.01783427
     atom   12 type  3   force =    -0.02202653   -0.01007463   -0.01507041
     atom   13 type  3   force =    -0.02231138   -0.00888149    0.01609659
     atom   14 type  3   force =     0.02261755    0.00906154   -0.01621633
     atom   15 type  3   force =     0.02456208    0.00982399    0.01693751
     atom   16 type  3   force =     0.02214337   -0.00998357   -0.01457435
     atom   17 type  3   force =     0.02245061   -0.00832432    0.01585486
     atom   18 type  4   force =     0.00103507   -0.00380355    0.00310502
     atom   19 type  4   force =    -0.01033411    0.00007625   -0.00909884
     atom   20 type  4   force =    -0.01022896    0.00016039    0.00908443
     atom   21 type  4   force =     0.01022601    0.00008115   -0.00899764
     atom   22 type  4   force =     0.01002668   -0.00004714    0.00871462
     atom   23 type  5   force =     0.00000000    0.00000000    0.00000000
     The Hubbard contrib.    to forces
     atom    1 type  1   force =     0.00000000    0.00000000    0.00000000
     atom    2 type  1   force =     0.00000000    0.00000000    0.00000000
     atom    3 type  1   force =     0.00000000    0.00000000    0.00000000
     atom    4 type  1   force =     0.00000000    0.00000000    0.00000000
     atom    5 type  1   force =     0.00000000    0.00000000    0.00000000
     atom    6 type  2   force =     0.00000000    0.00000000    0.00000000
     atom    7 type  2   force =     0.00000000    0.00000000    0.00000000
     atom    8 type  3   force =     0.00000000    0.00000000    0.00000000
     atom    9 type  3   force =     0.00000000    0.00000000    0.00000000
     atom   10 type  3   force =     0.00000000    0.00000000    0.00000000
     atom   11 type  3   force =     0.00000000    0.00000000    0.00000000
     atom   12 type  3   force =     0.00000000    0.00000000    0.00000000
     atom   13 type  3   force =     0.00000000    0.00000000    0.00000000
     atom   14 type  3   force =     0.00000000    0.00000000    0.00000000
     atom   15 type  3   force =     0.00000000    0.00000000    0.00000000
     atom   16 type  3   force =     0.00000000    0.00000000    0.00000000
     atom   17 type  3   force =     0.00000000    0.00000000    0.00000000
     atom   18 type  4   force =     0.00000000    0.00000000    0.00000000
     atom   19 type  4   force =     0.00000000    0.00000000    0.00000000
     atom   20 type  4   force =     0.00000000    0.00000000    0.00000000
     atom   21 type  4   force =     0.00000000    0.00000000    0.00000000
     atom   22 type  4   force =     0.00000000    0.00000000    0.00000000
     atom   23 type  5   force =     0.00000000    0.00000000    0.00000000
     The SCF correction term to forces
     atom    1 type  1   force =    -0.00000000   -0.00000000    0.00000000
     atom    2 type  1   force =     0.00000000    0.00000000    0.00000000
     atom    3 type  1   force =     0.00000000   -0.00000000    0.00000000
     atom    4 type  1   force =    -0.00000000   -0.00000000    0.00000000
     atom    5 type  1   force =    -0.00000000    0.00000000    0.00000000
     atom    6 type  2   force =    -0.00000000   -0.00000000   -0.00000000
     atom    7 type  2   force =    -0.00000000    0.00000000    0.00000000
     atom    8 type  3   force =    -0.00000000    0.00000000    0.00000000
     atom    9 type  3   force =     0.00000000    0.00000000    0.00000000
     atom   10 type  3   force =     0.00000000    0.00000000    0.00000000
     atom   11 type  3   force =     0.00000000   -0.00000000   -0.00000000
     atom   12 type  3   force =     0.00000000   -0.00000000    0.00000000
     atom   13 type  3   force =     0.00000000    0.00000000   -0.00000000
     atom   14 type  3   force =    -0.00931390    0.00367575    0.00188030
     atom   15 type  3   force =    -0.00772901   -0.00432454   -0.00463873
     atom   16 type  3   force =    -0.00799912   -0.00073054    0.00134513
     atom   17 type  3   force =    -0.01015610    0.00250396   -0.00645554
     atom   18 type  4   force =    -0.01489382    0.00803475    0.00369376
     atom   19 type  4   force =     0.00968377   -0.00223992    0.00704157
     atom   20 type  4   force =     0.00818584    0.00048118   -0.00947204
     atom   21 type  4   force =    -0.01268744   -0.00244876   -0.01096793
     atom   22 type  4   force =    -0.01175618    0.00146513    0.00808829
     atom   23 type  5   force =     0.00625525    0.00112942    0.00078246

     Total force =     3.614992     Total SCF correction =     0.039504

     Entering Dynamics:    iteration =     3
                           time      =   0.0006 pico-seconds


ATOMIC_POSITIONS (angstrom)
Hf            2.6699999570        2.8271230292        6.6039642186    0   0   0
Hf            1.2529906802        1.2862841814        5.0584662261    0   0   0
Hf            1.2554868986        7.3898042948        5.0880677674    0   0   0
Hf            4.0870092338        1.2862841814        5.0584662261    0   0   0
Hf            4.0845130154        7.3898042948        5.0880677674    0   0   0
Nb            2.6699999570        2.7969306055        3.5155832167    0   0   0
Nb            2.6699999570        5.8763786763        6.6349979432    0   0   0
Ta            1.2093730560        4.3409278516        5.0711258323    0   0   0
Ta            4.1306268580        4.3409278516        5.0711258323    0   0   0
Ta            1.3072526841        1.3141225894        2.0587791101    0   0   0
Ta            1.3027883142        1.3083911360        8.0945792024    0   0   0
Ta            1.3040096221        7.3758261241        2.0462371798    0   0   0
[...]
   -26.4162 -26.4071 -26.3266 -26.3115 -26.1997 -26.1891 -26.1782 -26.0501
   -26.0375 -25.9839 -25.9804 -25.9743 -25.9394 -25.9227 -25.9080 -25.8794
   -25.8595 -25.8577 -25.8234 -25.8148 -25.7921 -25.6792 -25.6778 -25.6670
   -25.6582 -25.6066 -25.6043 -25.5795 -25.5740 -22.9937 -22.7480 -22.4355
   -22.3828 -22.1813 -22.0113 -21.9217 -21.8176 -21.7317 -21.6592 -21.4909
   -21.2306 -21.2266 -21.1623 -21.1205 -21.0178 -20.9734 -20.4808 -20.4040
   -20.3397 -18.8990 -18.6272 -18.5421 -18.5318 -18.3156 -18.3037 -18.3017
   -18.2859 -18.2714 -18.2440 -18.0635 -18.0597 -16.8940 -16.6919 -16.5939
     2.7722   4.2043   4.2391   4.4615   4.6066   4.6525   4.8167   4.8192
     4.9507   5.0357   5.2305   5.4482   5.5351   5.7679   5.7881   5.9480
     5.9789   6.0630   6.3098   6.3599   6.4240   6.5395   6.5550   6.6091
     6.6306   6.8220   6.9004   6.9904   7.0046   7.0282   7.0313   7.0425
     7.2854   7.3067   7.4389   7.4417   7.4807   7.5596   7.5975   7.6508
     7.8380   7.8573   8.0056   8.1206   8.1462   8.2331   8.2759   8.3189
     8.4906   8.5557   8.5699   8.5801   8.6600   8.7829   8.8308   8.8933
     8.9283   9.0765   9.2168   9.2340   9.3184   9.3642   9.3797   9.5697
     9.6105   9.6221   9.6381   9.6498   9.7735   9.8902   9.9502  10.0772
    10.1909  10.2181  10.3387  10.3713  10.4125  10.4829  10.5433

     the Fermi energy is     8.5651 ev

!    total energy              =   -2941.41229081 Ry
     estimated scf accuracy    <       0.00019395 Ry
     smearing contrib. (-TS)   =      -0.09891039 Ry
     internal energy E=F+TS    =   -2941.31338042 Ry

     total magnetization       =    -0.00 Bohr mag/cell
     absolute magnetization    =     0.00 Bohr mag/cell

     convergence has been achieved in   5 iterations

     negative rho (up, down):  9.052E-01 9.052E-01

     Forces acting on atoms (cartesian axes, Ry/au):

     atom    1 type  1   force =    -0.00009744   -0.03016636    0.00615579
     atom    2 type  1   force =    -0.13000429   -0.00403938   -0.00499965
     atom    3 type  1   force =    -0.04766872    0.01899353    0.00151243
     atom    4 type  1   force =     0.13446738   -0.02394104   -0.00424112
     atom    5 type  1   force =    -3.85094441    0.16786034    0.01705197
     atom    6 type  2   force =    -0.00187445   -0.01975727    0.01072692
     atom    7 type  2   force =     0.00373268    0.00213604    0.01387084
     atom    8 type  3   force =    -0.11291397    0.00925762   -0.00380492
     atom    9 type  3   force =     0.11339348    0.01549099   -0.00219671
     atom   10 type  3   force =    -0.02688811   -0.03310542   -0.05506713
     atom   11 type  3   force =    -0.02466830   -0.03541016    0.05369225
     atom   12 type  3   force =    -0.02396854    0.03218958   -0.05210776
     atom   13 type  3   force =    -0.02517349    0.02477704    0.05870844
     atom   14 type  3   force =     0.02594445   -0.03425090   -0.05693308
     atom   15 type  3   force =     0.02428088   -0.03626288    0.05522668
     atom   16 type  3   force =     0.02481698    0.03638271   -0.04780864
     atom   17 type  3   force =     0.02533440    0.02921675    0.05356944
     atom   18 type  4   force =     0.00269102    0.01708313   -0.02773191
     atom   19 type  4   force =    -0.13370241   -0.00023786   -0.11395929
     atom   20 type  4   force =    -0.13563652    0.01160306    0.11555324
     atom   21 type  4   force =     0.13650025   -0.00061070   -0.11396928
     atom   22 type  4   force =     0.13732458    0.01169592    0.11572037
     atom   23 type  5   force =     3.88505457   -0.15890476   -0.01896889
     The non-local contrib.  to forces
     atom    1 type  1   force =     0.00075885   -0.01715892    0.02862993
     atom    2 type  1   force =    -0.23067923   -0.16089791    0.01465408
     atom    3 type  1   force =    -0.14737429    0.15116098   -0.02741317
     atom    4 type  1   force =     0.23333237   -0.15497737    0.01507183
     atom    5 type  1   force =     1.45283404    0.07373036   -0.03909284
     atom    6 type  2   force =    -0.00145655   -0.04822014   -0.05662818
     atom    7 type  2   force =    -0.00436159    0.03778859    0.08904400
     atom    8 type  3   force =    -0.26160561    0.00687887   -0.00449686
     atom    9 type  3   force =     0.26226962    0.00868374   -0.00434395
     atom   10 type  3   force =    -0.21859044    0.00061561   -0.20731725
     atom   11 type  3   force =    -0.22685492    0.00518120    0.19656232
     atom   12 type  3   force =    -0.20779479   -0.02653719   -0.18245591
     atom   13 type  3   force =    -0.21676480   -0.01067900    0.21138064
     atom   14 type  3   force =     0.22183363    0.00358854   -0.21387889
     atom   15 type  3   force =     0.23026904    0.00892153    0.20218870
     atom   16 type  3   force =     0.21143681   -0.02611366   -0.17800698
     atom   17 type  3   force =     0.22069231   -0.01008848    0.20595573
     atom   18 type  4   force =     0.00130938    0.03439916   -0.08709315
     atom   19 type  4   force =     0.06332120    0.01158217    0.07014722
     atom   20 type  4   force =     0.06129917   -0.00715154   -0.06825039
     atom   21 type  4   force =    -0.06943997    0.01312005    0.06884483
     atom   22 type  4   force =    -0.06648481   -0.00790593   -0.06464140
     atom   23 type  5   force =    -0.19133636    0.01154796    0.00260168
     The ionic contribution  to forces
     atom    1 type  1   force =    -0.09705665   -4.52468710   14.35944344
     atom    2 type  1   force =   -34.59162181   -5.97656889    0.77810612
     atom    3 type  1   force =   -34.69178214    6.11760627   -0.71191364
     atom    4 type  1   force =    34.26788579   -5.42298398    0.77249813
     atom    5 type  1   force =    25.55552930    6.50715594   -0.65810525
     atom    6 type  2   force =    -0.10406820   -3.46970036  -14.28732906
     atom    7 type  2   force =    -0.41973111    3.23499525   14.55299897
     atom    8 type  3   force =   -46.32660300   -0.06001142   -0.06784048
     atom    9 type  3   force =    46.09406989   -0.46102656   -0.06969135
     atom   10 type  3   force =   -31.13642915   -2.00384503  -23.64809314
     atom   11 type  3   force =   -30.20500598   -0.75066749   22.65096298
     atom   12 type  3   force =   -30.35293002    0.77933547  -22.76648971
     atom   13 type  3   force =   -31.14494097    2.16886857   23.69889222
     atom   14 type  3   force =    31.02501314   -1.89711159  -23.76903893
     atom   15 type  3   force =    30.09357390   -0.64269087   22.77368093
     atom   16 type  3   force =    30.10971470    0.77505617  -23.16204973
     atom   17 type  3   force =    30.89286009    2.16310441   24.10680918
     atom   18 type  4   force =    -0.38470553    4.03241305  -14.43199115
     atom   19 type  4   force =   -31.12176751    0.90331550  -26.03462417
     atom   20 type  4   force =   -31.09377275   -1.01697216   26.01454584
     atom   21 type  4   force =    31.04645963    0.83353554  -26.12327832
     atom   22 type  4   force =    31.01730974   -1.08984548   26.10590328
     atom   23 type  5   force =    11.56799865   -0.19927526   -0.08339616
     The local contribution  to forces
     atom    1 type  1   force =     0.10134455    4.51183379  -14.38696096
     atom    2 type  1   force =    34.70757710    6.13212384   -0.80690488
     atom    3 type  1   force =    34.81250534   -6.25376227    0.73309738
     atom    4 type  1   force =   -34.38071556    5.54655586   -0.79988029
     atom    5 type  1   force =   -31.06582185   -6.39772274    0.70797434
     atom    6 type  2   force =     0.10966390    3.49285970   14.34642736
     atom    7 type  2   force =     0.43189551   -3.26662927  -14.63814793
     atom    8 type  3   force =    46.51190466    0.06533028    0.06228094
     atom    9 type  3   force =   -46.27534172    0.47324248    0.06535981
     atom   10 type  3   force =    31.35113822    1.95476848   23.81757844
     atom   11 type  3   force =    30.43671148    0.70355851  -22.80967622
     atom   12 type  3   force =    30.56116908   -0.70723119   22.91459084
     atom   13 type  3   force =    31.36443679   -2.12820445  -23.86724627
     atom   14 type  3   force =   -31.23833706    1.84266481   23.94366775
     atom   15 type  3   force =   -30.32206851    0.58988766  -22.93788433
     atom   16 type  3   force =   -30.31604247   -0.69709212   23.31229796
     atom   17 type  3   force =   -31.11146829   -2.11414960  -24.27688883
     atom   18 type  4   force =     0.39151629   -4.03957410   14.48616423
     atom   19 type  4   force =    30.93355594   -0.91274285   25.86069669
     atom   20 type  4   force =    30.91274207    1.03674685  -25.84037214
     atom   21 type  4   force =   -30.84626038   -0.84612417   25.95078656
     atom   22 type  4   force =   -30.82651805    1.10712210  -25.93497268
     atom   23 type  5   force =    -7.49334799    0.02873058    0.06004235
     The core correction contribution to forces
     atom    1 type  1   force =     0.00027889    0.00105354    0.00032775
     atom    2 type  1   force =    -0.00908787   -0.00237047    0.00075637
     atom    3 type  1   force =    -0.00748207    0.00288387   -0.00183528
     atom    4 type  1   force =     0.00842687    0.00049642    0.00073707
     atom    5 type  1   force =     0.19251091   -0.01387085   -0.00367891
     atom    6 type  2   force =     0.00005272    0.00223311    0.00223393
     atom    7 type  2   force =     0.00021129   -0.00134665   -0.00409249
     atom    8 type  3   force =    -0.03172682    0.00065995   -0.00019921
     atom    9 type  3   force =     0.03130534    0.00065008   -0.00025089
     atom   10 type  3   force =    -0.02211568    0.00841964   -0.01591701
     atom   11 type  3   force =    -0.02374451    0.00883474    0.01642123
     atom   12 type  3   force =    -0.02213360   -0.00943137   -0.01520703
     atom   13 type  3   force =    -0.02250351   -0.00844210    0.01599570
     atom   14 type  3   force =     0.02240128    0.00870184   -0.01616675
     atom   15 type  3   force =     0.02411815    0.00926360    0.01673028
     atom   16 type  3   force =     0.02214268   -0.00908166   -0.01504124
     atom   17 type  3   force =     0.02234368   -0.00794916    0.01583673
     atom   18 type  4   force =    -0.00004826   -0.00140824    0.00468902
     atom   19 type  4   force =    -0.00987034   -0.00009882   -0.00949996
     atom   20 type  4   force =    -0.00978153   -0.00001235    0.00943242
     atom   21 type  4   force =     0.01030629   -0.00020355   -0.00943580
     atom   22 type  4   force =     0.01015713   -0.00002782    0.00927711
     atom   23 type  5   force =     0.00000000    0.00000000    0.00000000
     The Hubbard contrib.    to forces
     atom    1 type  1   force =     0.00000000    0.00000000    0.00000000
     atom    2 type  1   force =     0.00000000    0.00000000    0.00000000
     atom    3 type  1   force =     0.00000000    0.00000000    0.00000000
     atom    4 type  1   force =     0.00000000    0.00000000    0.00000000
     atom    5 type  1   force =     0.00000000    0.00000000    0.00000000
     atom    6 type  2   force =     0.00000000    0.00000000    0.00000000
     atom    7 type  2   force =     0.00000000    0.00000000    0.00000000
     atom    8 type  3   force =     0.00000000    0.00000000    0.00000000
     atom    9 type  3   force =     0.00000000    0.00000000    0.00000000
     atom   10 type  3   force =     0.00000000    0.00000000    0.00000000
     atom   11 type  3   force =     0.00000000    0.00000000    0.00000000
     atom   12 type  3   force =     0.00000000    0.00000000    0.00000000
     atom   13 type  3   force =     0.00000000    0.00000000    0.00000000
     atom   14 type  3   force =     0.00000000    0.00000000    0.00000000
     atom   15 type  3   force =     0.00000000    0.00000000    0.00000000
     atom   16 type  3   force =     0.00000000    0.00000000    0.00000000
     atom   17 type  3   force =     0.00000000    0.00000000    0.00000000
     atom   18 type  4   force =     0.00000000    0.00000000    0.00000000
     atom   19 type  4   force =     0.00000000    0.00000000    0.00000000
     atom   20 type  4   force =     0.00000000    0.00000000    0.00000000
     atom   21 type  4   force =     0.00000000    0.00000000    0.00000000
     atom   22 type  4   force =     0.00000000    0.00000000    0.00000000
     atom   23 type  5   force =     0.00000000    0.00000000    0.00000000
     The SCF correction term to forces
     atom    1 type  1   force =    -0.00000000   -0.00000000    0.00000000
     atom    2 type  1   force =    -0.00000000    0.00000000    0.00000000
     atom    3 type  1   force =    -0.00000000    0.00000000    0.00000000
     atom    4 type  1   force =     0.00000000    0.00000000    0.00000000
     atom    5 type  1   force =     0.00000000   -0.00000000    0.00000000
     atom    6 type  2   force =    -0.00000000    0.00000000    0.00000000
     atom    7 type  2   force =    -0.00000000   -0.00000000    0.00000000
     atom    8 type  3   force =    -0.00000000   -0.00000000    0.00000000
     atom    9 type  3   force =     0.00000000   -0.00000000    0.00000000
     atom   10 type  3   force =    -0.00000000    0.00000000   -0.00000000
     atom   11 type  3   force =    -0.00000000   -0.00000000   -0.00000000
     atom   12 type  3   force =    -0.00000000   -0.00000000   -0.00000000
     atom   13 type  3   force =    -0.00000000    0.00000000   -0.00000000
     atom   14 type  3   force =    -0.00460806    0.00794239   -0.00212883
     atom   15 type  3   force =    -0.00125322   -0.00160790   -0.00010149
     atom   16 type  3   force =    -0.00207624   -0.00634913   -0.00562123
     atom   17 type  3   force =     0.00126510   -0.00166354    0.00124406
     atom   18 type  4   force =    -0.00502237   -0.00870985   -0.00011344
     atom   19 type  4   force =     0.00141679   -0.00225696   -0.00129165
     atom   20 type  4   force =    -0.00576500   -0.00097085   -0.00041506
     atom   21 type  4   force =    -0.00420683   -0.00090167   -0.00149912
     atom   22 type  4   force =     0.00321907    0.00238994   -0.00045852
     atom   23 type  5   force =     0.00209876    0.00012885    0.00117066

     Total force =     3.907136     Total SCF correction =     0.019032

     Entering Dynamics:    iteration =    15
                           time      =   0.0030 pico-seconds


ATOMIC_POSITIONS (angstrom)
Hf            2.6699999570        2.8271230292        6.6039642186    0   0   0
Hf            1.2529906802        1.2862841814        5.0584662261    0   0   0
Hf            1.2554868986        7.3898042948        5.0880677674    0   0   0
Hf            4.0870092338        1.2862841814        5.0584662261    0   0   0
Hf            4.0845130154        7.3898042948        5.0880677674    0   0   0
Nb            2.6699999570        2.7969306055        3.5155832167    0   0   0
Nb            2.6699999570        5.8763786763        6.6349979432    0   0   0
Ta            1.2093730560        4.3409278516        5.0711258323    0   0   0
Ta            4.1306268580        4.3409278516        5.0711258323    0   0   0
Ta            1.3072526841        1.3141225894        2.0587791101    0   0   0
Ta            1.3027883142        1.3083911360        8.0945792024    0   0   0
Ta            1.3040096221        7.3758261241        2.0462371798    0   0   0
Ta            1.3077107984        7.3650829484        8.0860022208    0   0   0
Ta            4.0328810522        1.3139409095        2.0583994054
Ta            4.0373477096        1.3081799716        8.0949378233
Ta            4.0361055051        7.3760539435        2.0458959980
Ta            4.0324088672        7.3652734238        8.0863695600
Zr            2.6699957018        5.8665608654        3.5272679223
Zr            1.2421043774        4.3219996612        1.9985330201
Zr            1.2386060972        4.3541901294        8.1512400956
Zr            4.0978530878        4.3219839981        1.9985682869
Zr            4.1013693037        4.3541723550        8.1512009664
H             5.0611793977        7.6329655064        5.0835548882


     kinetic energy (Ekin) =          16.73437258 Ry
     temperature           =      176143.23050682 K 
     Ekin + Etot (const)   =       -2924.67791823 Ry

     The maximum number of steps has been reached.

     End of molecular dynamics calculation

     diffusion coefficients :
     atom     1   D =       0.00000000 cm^2/s
     atom     2   D =       0.00000000 cm^2/s
     atom     3   D =       0.00000000 cm^2/s
     atom     4   D =       0.00000000 cm^2/s
     atom     5   D =       0.00000000 cm^2/s
     atom     6   D =       0.00000000 cm^2/s
     atom     7   D =       0.00000000 cm^2/s
     atom     8   D =       0.00000000 cm^2/s
     atom     9   D =       0.00000000 cm^2/s
     atom    10   D =       0.00000000 cm^2/s
     atom    11   D =       0.00000000 cm^2/s
     atom    12   D =       0.00000000 cm^2/s
     atom    13   D =       0.00000000 cm^2/s
     atom    14   D =       0.00000000 cm^2/s
     atom    15   D =       0.00000000 cm^2/s
     atom    16   D =       0.00000000 cm^2/s
     atom    17   D =       0.00000000 cm^2/s
     atom    18   D =       0.00000000 cm^2/s
     atom    19   D =       0.00000003 cm^2/s
     atom    20   D =       0.00000003 cm^2/s
     atom    21   D =       0.00000003 cm^2/s
     atom    22   D =       0.00000003 cm^2/s
     atom    23   D =       0.05408740 cm^2/s

     < D > =       0.00540875 cm^2/s

     Writing all to output data dir outdir/pwscf.save/

     init_run     :     34.79s CPU     35.66s WALL (       1 calls)
     electrons    :   4335.08s CPU   4400.38s WALL (      15 calls)
     update_pot   :     38.51s CPU     38.68s WALL (      14 calls)
     forces       :    280.07s CPU    284.56s WALL (      15 calls)

     Called by init_run:
     wfcinit      :     28.36s CPU     28.69s WALL (       1 calls)
     potinit      :      1.21s CPU      1.25s WALL (       1 calls)
     hinit0       :      2.18s CPU      2.25s WALL (       1 calls)

     Called by electrons:
     c_bands      :   3582.06s CPU   3606.41s WALL (      81 calls)
     sum_band     :    536.15s CPU    558.66s WALL (      81 calls)
     v_of_rho     :     25.39s CPU     26.24s WALL (      96 calls)
     newd         :    226.82s CPU    247.20s WALL (      96 calls)
     mix_rho      :      1.94s CPU      1.99s WALL (      81 calls)

     Called by c_bands:
     init_us_2    :      5.19s CPU      5.22s WALL (     356 calls)
     init_us_2:cp :      5.18s CPU      5.22s WALL (     356 calls)
     regterg      :   3556.39s CPU   3580.58s WALL (     162 calls)

     Called by *egterg:
     rdiaghg      :     61.80s CPU     62.49s WALL (    1413 calls)
     h_psi        :   1454.56s CPU   1471.14s WALL (    1443 calls)
     s_psi        :    524.43s CPU    525.37s WALL (    1443 calls)
     g_psi        :      1.09s CPU      1.10s WALL (    1279 calls)

     Called by h_psi:
     h_psi:calbec :    627.82s CPU    629.17s WALL (    1443 calls)
     vloc_psi     :    295.77s CPU    309.90s WALL (    1443 calls)
     add_vuspsi   :    528.62s CPU    529.72s WALL (    1443 calls)

     General routines
     calbec       :   1019.04s CPU   1021.24s WALL (    1725 calls)
     fft          :     23.13s CPU     24.20s WALL (    1679 calls)
     ffts         :      0.52s CPU      0.57s WALL (      81 calls)
     fftw         :    298.39s CPU    312.67s WALL (   89116 calls)

     Parallel routines

     PWSCF        :      1h18m CPU      1h19m WALL


   This run was terminated on:  19:48:57   6Jun2023            

=------------------------------------------------------------------------------=
   JOB DONE.
=------------------------------------------------------------------------------=
