
     Program PWSCF v.7.2 starts on 10Jun2023 at  5: 4:24 

     This program is part of the open-source Quantum ESPRESSO suite
     for quantum simulation of materials; please cite
         "P. Giannozzi et al., J. Phys.:Condens. Matter 21 395502 (2009);
         "P. Giannozzi et al., J. Phys.:Condens. Matter 29 465901 (2017);
         "P. Giannozzi et al., J. Chem. Phys. 152 154105 (2020);
          URL http://www.quantum-espresso.org", 
     in publications or presentations arising from this work. More details at
     http://www.quantum-espresso.org/quote

     Parallel version (MPI), running on    12 processors

     MPI processes distributed on     1 nodes
     76247 MiB available memory on the printing compute node when the environment starts

     Reading input from md_Hf5Nb2Ta10Zr5H_15steps_1000eV_incident45_polar45_hwthread.in
Warning: card &CELL ignored
Warning: card / ignored

     Current dimensions of program PWSCF are:
     Max number of different atomic species (ntypx) = 10
     Max number of k-points (npk) =  40000
     Max angular momentum in pseudopotentials (lmaxx) =  4

     File outdir/pwscf.update deleted, as requested

     File outdir/pwscf.md deleted, as requested

     gamma-point specific algorithms are used

     R & G space division:  proc/nbgrp/npool/nimage =      12
     Subspace diagonalization in iterative solution of the eigenvalue problem:
     one sub-group per band group will be used
     custom distributed-memory algorithm (size of sub-group:  2*  2 procs)


     Parallelization info
     --------------------
     sticks:   dense  smooth     PW     G-vecs:    dense   smooth      PW
     Min        1118    1118    279                99774    99774   12468
     Max        1120    1120    280                99784    99784   12476
     Sum       13435   13435   3359              1197347  1197347  149669

     Using Slab Decomposition



     bravais-lattice index     =            0
     lattice parameter (alat)  =      21.4295  a.u.
     unit-cell volume          =    6741.9400 (a.u.)^3
     number of atoms/cell      =           23
     number of atomic types    =            5
     number of electrons       =       277.00
     number of Kohn-Sham states=          167
     kinetic-energy cutoff     =     120.0000  Ry
     charge density cutoff     =     480.0000  Ry
     scf convergence threshold =      1.0E-03
     mixing beta               =       0.7000
     number of iterations used =            8  TF        mixing
     energy convergence thresh.=      0.0E+00
     force convergence thresh. =      0.0E+00
     Exchange-correlation=  SLA  PW   PBX  PBC
                           (   1   4   3   4   0   0   0)
     nstep                     =           15


     celldm(1)=  21.429494  celldm(2)=   0.000000  celldm(3)=   0.000000
     celldm(4)=   0.000000  celldm(5)=   0.000000  celldm(6)=   0.000000

     crystal axes: (cart. coord. in units of alat)
               a(1) = (   1.000000   0.000000   0.000000 )  
               a(2) = (   0.000000   0.765432   0.000000 )  
               a(3) = (   0.000000   0.000000   0.895040 )  

     reciprocal axes: (cart. coord. in units 2 pi/alat)
               b(1) = (  1.000000  0.000000  0.000000 )  
               b(2) = (  0.000000  1.306452  0.000000 )  
               b(3) = (  0.000000  0.000000  1.117268 )  


     PseudoPot. # 1 for Hf read from file:
     q-e/pseudo/hf_pbe_v1.uspp.F.UPF
     MD5 check sum: 8ee9378dfe14276e333edf04c5e4aa26
     Pseudo is Ultrasoft + core correction, Zval = 12.0
     Generated by new atomic code, or converted to UPF format
     Using radial grid of  921 points,  8 beta functions with: 
                l(1) =   0
                l(2) =   0
                l(3) =   0
                l(4) =   1
                l(5) =   1
                l(6) =   2
                l(7) =   2
                l(8) =   3
     Q(r) pseudized with  6 coefficients,  rinner =    1.200   1.200   1.200
                                                       1.200   1.200   1.200
                                                       1.200

     PseudoPot. # 2 for Nb read from file:
     q-e/pseudo/nb_pbe_v1.uspp.F.UPF
     MD5 check sum: 573aab8a2fa660278ed4a62cd769473f
     Pseudo is Ultrasoft + core correction, Zval = 13.0
     Generated by new atomic code, or converted to UPF format
     Using radial grid of  887 points,  6 beta functions with: 
                l(1) =   0
                l(2) =   0
                l(3) =   1
                l(4) =   1
                l(5) =   2
                l(6) =   2
     Q(r) pseudized with  6 coefficients,  rinner =    1.000   1.000   1.000
                                                       1.000   1.000

     PseudoPot. # 3 for Ta read from file:
     q-e/pseudo/ta_pbe_v1.uspp.F.UPF
     MD5 check sum: f8bbe9446314a3b8ea5d9f3e3836c939
     Pseudo is Ultrasoft + core correction, Zval = 13.0
     Generated by new atomic code, or converted to UPF format
     Using radial grid of  921 points,  7 beta functions with: 
                l(1) =   0
                l(2) =   0
                l(3) =   1
                l(4) =   1
                l(5) =   2
                l(6) =   2
                l(7) =   3
     Q(r) pseudized with  6 coefficients,  rinner =    1.300   1.300   1.300
                                                       1.300   1.300   1.300
                                                       1.300

     PseudoPot. # 4 for Zr read from file:
     q-e/pseudo/zr_pbe_v1.uspp.F.UPF
     MD5 check sum: 5db81b1e868ab7776c4564c113de050b
     Pseudo is Ultrasoft + core correction, Zval = 12.0
     Generated by new atomic code, or converted to UPF format
     Using radial grid of  887 points,  6 beta functions with: 
                l(1) =   0
                l(2) =   0
                l(3) =   1
                l(4) =   1
                l(5) =   2
                l(6) =   2
     Q(r) pseudized with  6 coefficients,  rinner =    1.200   1.200   1.200
                                                       1.200   1.200

     PseudoPot. # 5 for H  read from file:
     q-e/pseudo/h_pbe_v1.4.uspp.F.UPF
     MD5 check sum: 761ae9a214b05c3daf00ab9f6b793d6f
     Pseudo is Ultrasoft, Zval =  1.0
     Generated by new atomic code, or converted to UPF format
     Using radial grid of  615 points,  2 beta functions with: 
                l(1) =   0
                l(2) =   0
     Q(r) pseudized with  8 coefficients,  rinner =    0.700

     atomic species   valence    mass     pseudopotential
        Hf            12.00   178.49000     Hf( 1.00)
        Nb            13.00    92.90637     Nb( 1.00)
        Ta            13.00   180.94788     Ta( 1.00)
        Zr            12.00    91.22400     Zr( 1.00)
        H              1.00     2.01400     H ( 1.00)

     Starting magnetic structure 
     atomic species   magnetization
        Hf           0.000
        Nb           0.000
        Ta           0.000
        Zr           0.000
        H            0.000

     No symmetry found



   Cartesian axes

     site n.     atom                  positions (alat units)
         1           Hf  tau(   1) = (   0.2354497   0.2493054   0.5823602  )
         2           Hf  tau(   2) = (   0.1104930   0.1134289   0.4460729  )
         3           Hf  tau(   3) = (   0.1107131   0.6516582   0.4486832  )
         4           Hf  tau(   4) = (   0.3604065   0.1134289   0.4460729  )
         5           Hf  tau(   5) = (   0.3601863   0.6516582   0.4486832  )
         6           Nb  tau(   6) = (   0.2354497   0.2466429   0.3100162  )
         7           Nb  tau(   7) = (   0.2354497   0.5181992   0.5850968  )
         8           Ta  tau(   8) = (   0.1066467   0.3827979   0.4471892  )
         9           Ta  tau(   9) = (   0.3642528   0.3827979   0.4471892  )
        10           Ta  tau(  10) = (   0.1152780   0.1158838   0.1815502  )
        11           Ta  tau(  11) = (   0.1148843   0.1153784   0.7138077  )
        12           Ta  tau(  12) = (   0.1149920   0.6504256   0.1804442  )
        13           Ta  tau(  13) = (   0.1153184   0.6494782   0.7130514  )
        14           Ta  tau(  14) = (   0.3556215   0.1158838   0.1815502  )
        15           Ta  tau(  15) = (   0.3560151   0.1153784   0.7138077  )
        16           Ta  tau(  16) = (   0.3559074   0.6504256   0.1804442  )
        17           Ta  tau(  17) = (   0.3555811   0.6494782   0.7130514  )
        18           Zr  tau(  18) = (   0.2354497   0.5173092   0.3110568  )
        19           Zr  tau(  19) = (   0.1096856   0.3811356   0.1763668  )
        20           Zr  tau(  20) = (   0.1093814   0.3839615   0.7186733  )
        21           Zr  tau(  21) = (   0.3612139   0.3811356   0.1763668  )
        22           Zr  tau(  22) = (   0.3615180   0.3839615   0.7186733  )
        23           H   tau(  23) = (   0.5513181   0.5149912   0.5795573  )

     number of k points=     1  Gaussian smearing, width (Ry)=  0.0220
                       cart. coord. in units 2pi/alat
        k(    1) = (   0.0000000   0.0000000   0.0000000), wk =   1.0000000

     Dense  grid:   598674 G-vectors     FFT dimensions: ( 150, 120, 135)

     Estimated max dynamical RAM per process >     492.22 MB

     Estimated total dynamical RAM >       5.77 GB

     Check: negative core charge=   -0.000002
     Generating pointlists ...
     new r_m :   0.0920 (alat units)  1.9717 (a.u.) for type    1
     new r_m :   0.0904 (alat units)  1.9374 (a.u.) for type    2
     new r_m :   0.0904 (alat units)  1.9374 (a.u.) for type    3
     new r_m :   0.0916 (alat units)  1.9625 (a.u.) for type    4
     new r_m :   0.1091 (alat units)  2.3386 (a.u.) for type    5

     Initial potential from superposition of free atoms

     starting charge     266.9726, renormalised to     277.0000

     negative rho (up, down):  9.211E-01 9.211E-01
     Starting wfcs are  287 randomized atomic wfcs

     total cpu time spent up to now is       42.3 secs

     Self-consistent Calculation

     iteration #  1     ecut=   120.00 Ry     beta= 0.70
     Davidson diagonalization with overlap
     ethr =  1.00E-02,  avg # of iterations =  2.0

     negative rho (up, down):  1.008E+00 1.008E+00

     total cpu time spent up to now is      110.2 secs

     total energy              =   -2927.96823333 Ry
     estimated scf accuracy    <     266.20974901 Ry

     total magnetization       =    -0.00 Bohr mag/cell
     absolute magnetization    =     0.07 Bohr mag/cell

     iteration #  2     ecut=   120.00 Ry     beta= 0.70
     Davidson diagonalization with overlap
     ethr =  1.00E-02,  avg # of iterations =  5.0

     negative rho (up, down):  9.854E-01 9.856E-01

     total cpu time spent up to now is      182.9 secs

     total energy              =   -2942.13135572 Ry
     estimated scf accuracy    <      23.55790130 Ry

     total magnetization       =     0.01 Bohr mag/cell
     absolute magnetization    =     0.15 Bohr mag/cell

     iteration #  3     ecut=   120.00 Ry     beta= 0.70
     Davidson diagonalization with overlap
     ethr =  8.50E-03,  avg # of iterations =  2.0

     negative rho (up, down):  1.027E+00 1.025E+00

     total cpu time spent up to now is      238.9 secs

     total energy              =   -2942.56757731 Ry
     estimated scf accuracy    <      10.14141225 Ry

     total magnetization       =    -0.00 Bohr mag/cell
     absolute magnetization    =     0.17 Bohr mag/cell

     iteration #  4     ecut=   120.00 Ry     beta= 0.70
     Davidson diagonalization with overlap
     ethr =  3.66E-03,  avg # of iterations =  3.0

     negative rho (up, down):  1.047E+00 1.045E+00

     total cpu time spent up to now is      294.6 secs

     total energy              =   -2942.83341133 Ry
     estimated scf accuracy    <       2.87061579 Ry

     total magnetization       =     0.01 Bohr mag/cell
     absolute magnetization    =     0.20 Bohr mag/cell

     iteration #  5     ecut=   120.00 Ry     beta= 0.70
     Davidson diagonalization with overlap
     ethr =  1.04E-03,  avg # of iterations =  8.0

     negative rho (up, down):  1.028E+00 1.028E+00

     total cpu time spent up to now is      358.8 secs

     total energy              =   -2942.98548547 Ry
     estimated scf accuracy    <       1.08563282 Ry

     total magnetization       =     0.05 Bohr mag/cell
     absolute magnetization    =     0.16 Bohr mag/cell

     iteration #  6     ecut=   120.00 Ry     beta= 0.70
     Davidson diagonalization with overlap
     ethr =  3.92E-04,  avg # of iterations =  2.0

     negative rho (up, down):  1.026E+00 1.026E+00

     total cpu time spent up to now is      414.1 secs

     total energy              =   -2943.04459159 Ry
     estimated scf accuracy    <       0.91845229 Ry

     total magnetization       =     0.04 Bohr mag/cell
     absolute magnetization    =     0.11 Bohr mag/cell

     iteration #  7     ecut=   120.00 Ry     beta= 0.70
     Davidson diagonalization with overlap
     ethr =  3.32E-04,  avg # of iterations =  1.5

     negative rho (up, down):  1.009E+00 1.009E+00

     total cpu time spent up to now is      463.2 secs

     total energy              =   -2943.01251733 Ry
     estimated scf accuracy    <       0.31169899 Ry

     total magnetization       =     0.04 Bohr mag/cell
     absolute magnetization    =     0.11 Bohr mag/cell

     iteration #  8     ecut=   120.00 Ry     beta= 0.70
     Davidson diagonalization with overlap
     ethr =  1.13E-04,  avg # of iterations =  8.0

     negative rho (up, down):  9.855E-01 9.856E-01

     total cpu time spent up to now is      520.6 secs

     total energy              =   -2943.01712995 Ry
     estimated scf accuracy    <       0.16474629 Ry

     total magnetization       =     0.05 Bohr mag/cell
     absolute magnetization    =     0.09 Bohr mag/cell

     iteration #  9     ecut=   120.00 Ry     beta= 0.70
     Davidson diagonalization with overlap
     ethr =  5.95E-05,  avg # of iterations =  4.0

     negative rho (up, down):  9.646E-01 9.646E-01

     total cpu time spent up to now is      572.4 secs

     total energy              =   -2943.00835633 Ry
     estimated scf accuracy    <       0.06942652 Ry

     total magnetization       =     0.04 Bohr mag/cell
     absolute magnetization    =     0.07 Bohr mag/cell

     iteration # 10     ecut=   120.00 Ry     beta= 0.70
     Davidson diagonalization with overlap
     ethr =  2.51E-05,  avg # of iterations = 15.5

     negative rho (up, down):  9.365E-01 9.367E-01

     total cpu time spent up to now is      632.7 secs

     total energy              =   -2942.99787628 Ry
     estimated scf accuracy    <       0.04612457 Ry

     total magnetization       =     0.03 Bohr mag/cell
     absolute magnetization    =     0.06 Bohr mag/cell

     iteration # 11     ecut=   120.00 Ry     beta= 0.70
     Davidson diagonalization with overlap
     ethr =  1.67E-05,  avg # of iterations =  4.0

     negative rho (up, down):  9.177E-01 9.177E-01

     total cpu time spent up to now is      688.4 secs

     total energy              =   -2942.99561148 Ry
     estimated scf accuracy    <       0.02708252 Ry

     total magnetization       =     0.02 Bohr mag/cell
     absolute magnetization    =     0.05 Bohr mag/cell

     iteration # 12     ecut=   120.00 Ry     beta= 0.70
     Davidson diagonalization with overlap
     ethr =  9.78E-06,  avg # of iterations =  6.0

     negative rho (up, down):  9.101E-01 9.101E-01

     total cpu time spent up to now is      745.4 secs

     total energy              =   -2943.00039648 Ry
     estimated scf accuracy    <       0.01022789 Ry

     total magnetization       =     0.01 Bohr mag/cell
     absolute magnetization    =     0.03 Bohr mag/cell

     iteration # 13     ecut=   120.00 Ry     beta= 0.70
     Davidson diagonalization with overlap
     ethr =  3.69E-06,  avg # of iterations =  7.0

     negative rho (up, down):  9.084E-01 9.084E-01

     total cpu time spent up to now is      801.6 secs

     total energy              =   -2943.00342877 Ry
     estimated scf accuracy    <       0.00265945 Ry

     total magnetization       =     0.01 Bohr mag/cell
     absolute magnetization    =     0.02 Bohr mag/cell

     iteration # 14     ecut=   120.00 Ry     beta= 0.70
     Davidson diagonalization with overlap
     c_bands:  1 eigenvalues not converged
     ethr =  9.60E-07,  avg # of iterations = 14.0

     negative rho (up, down):  9.082E-01 9.082E-01

     total cpu time spent up to now is      865.0 secs

     total energy              =   -2943.00429429 Ry
     estimated scf accuracy    <       0.00107030 Ry

     total magnetization       =     0.01 Bohr mag/cell
     absolute magnetization    =     0.02 Bohr mag/cell

     iteration # 15     ecut=   120.00 Ry     beta= 0.70
     Davidson diagonalization with overlap
     ethr =  3.86E-07,  avg # of iterations = 12.0

     negative rho (up, down):  9.082E-01 9.082E-01

     Magnetic moment per site  (integrated on atomic sphere of radius R)
     atom   1 (R=0.092)  charge=  9.4644    0.0001
     atom   2 (R=0.092)  charge=  9.0590   -0.0000
     atom   3 (R=0.092)  charge=  9.0593    0.0002
     atom   4 (R=0.092)  charge=  9.0551    0.0001
     atom   5 (R=0.092)  charge=  9.0559   -0.0001
     atom   6 (R=0.090)  charge= 10.3489    0.0000
     atom   7 (R=0.090)  charge= 10.3527   -0.0000
     atom   8 (R=0.090)  charge=  9.8051    0.0003
     atom   9 (R=0.090)  charge=  9.7999   -0.0000
     atom  10 (R=0.090)  charge=  9.7392    0.0001
     atom  11 (R=0.090)  charge=  9.7407    0.0007
     atom  12 (R=0.090)  charge=  9.7398    0.0003
     atom  13 (R=0.090)  charge=  9.7468   -0.0003
     atom  14 (R=0.090)  charge=  9.7420    0.0001
     atom  15 (R=0.090)  charge=  9.7416   -0.0001
     atom  16 (R=0.090)  charge=  9.7398    0.0003
     atom  17 (R=0.090)  charge=  9.7407   -0.0002
     atom  18 (R=0.092)  charge=  9.4540   -0.0001
     atom  19 (R=0.092)  charge=  8.9952   -0.0000
     atom  20 (R=0.092)  charge=  8.9932    0.0001
     atom  21 (R=0.092)  charge=  8.9923    0.0003
     atom  22 (R=0.092)  charge=  8.9888   -0.0001
     atom  23 (R=0.109)  charge=  1.2477    0.0000

     total cpu time spent up to now is      920.8 secs

     End of self-consistent calculation

 ------ SPIN UP ------------


          k = 0.0000 0.0000 0.0000 ( 74835 PWs)   bands (ev):

   -62.8343 -62.7898 -62.7670 -62.7462 -62.7212 -62.7133 -62.6785 -62.6685
   -62.6248 -62.5869 -56.4188 -56.3650 -56.2937 -56.2395 -54.7248 -48.3076
   -48.3043 -43.6812 -43.6596 -43.5832 -43.5565 -41.8359 -29.8223 -29.7932
   -29.7270 -29.7080 -29.6373 -29.5980 -29.5029 -29.4793 -29.4676 -29.3806
   -29.3477 -29.3016 -29.2919 -29.2811 -29.2538 -29.2360 -29.2083 -29.1919
   -29.1876 -29.1715 -29.1453 -29.1175 -28.9967 -28.9844 -28.9601 -28.9507
   -28.9180 -28.8925 -28.8786 -28.8637 -26.2051 -25.9947 -25.6884 -25.5978
   -25.3498 -25.2227 -25.1958 -25.0969 -24.9664 -24.8876 -24.8735 -24.6495
   -24.5491 -24.4961 -24.4288 -24.4013 -24.3155 -24.2800 -23.7869 -23.7254
   -23.6532 -22.2220 -21.9834 -21.8686 -21.8515 -21.6718 -21.6375 -21.6298
   -21.6111 -21.6020 -21.5638 -21.4023 -21.3951 -20.1809 -19.9786 -19.8499
    -0.5261   0.9074   1.1039   1.1502   1.3316   1.3964   1.4965   1.6488
     1.7020   1.8165   1.8795   2.0495   2.1717   2.4691   2.6203   2.6788
     2.7401   2.8725   3.0330   3.0910   3.1731   3.2364   3.2597   3.3467
     3.3772   3.5106   3.5447   3.6739   3.6941   3.7317   3.7531   3.7772
     3.9213   4.0557   4.1129   4.1808   4.2339   4.2757   4.3304   4.3703
     4.4612   4.5608   4.6208   4.6731   4.8568   4.8915   5.0179   5.0233
     5.0397   5.1249   5.2287   5.2790   5.3109   5.4279   5.5550   5.6024
     5.6350   5.6708   5.8237   5.9017   6.0504   6.0687   6.1075   6.1675
     6.1790   6.2626   6.3361   6.3705   6.4535   6.5065   6.5874   6.6891
     6.7289   6.7807   6.9257   7.0181   7.1164   7.1740   7.2293

 ------ SPIN DOWN ----------


          k = 0.0000 0.0000 0.0000 ( 74835 PWs)   bands (ev):

   -62.8344 -62.7897 -62.7670 -62.7460 -62.7213 -62.7132 -62.6784 -62.6684
   -62.6248 -62.5867 -56.4188 -56.3650 -56.2937 -56.2395 -54.7248 -48.3077
   -48.3042 -43.6812 -43.6593 -43.5831 -43.5563 -41.8361 -29.8223 -29.7930
   -29.7270 -29.7078 -29.6374 -29.5978 -29.5028 -29.4792 -29.4674 -29.3808
   -29.3476 -29.3016 -29.2918 -29.2811 -29.2538 -29.2360 -29.2080 -29.1919
   -29.1874 -29.1713 -29.1451 -29.1174 -28.9969 -28.9845 -28.9599 -28.9505
   -28.9179 -28.8922 -28.8785 -28.8635 -26.2050 -25.9947 -25.6884 -25.5978
   -25.3497 -25.2226 -25.1957 -25.0968 -24.9664 -24.8876 -24.8736 -24.6495
   -24.5491 -24.4961 -24.4288 -24.4013 -24.3154 -24.2800 -23.7869 -23.7254
   -23.6532 -22.2218 -21.9835 -21.8683 -21.8514 -21.6718 -21.6373 -21.6295
   -21.6109 -21.6019 -21.5638 -21.4023 -21.3949 -20.1811 -19.9787 -19.8500
    -0.5260   0.9076   1.1039   1.1502   1.3317   1.3967   1.4966   1.6488
     1.7020   1.8166   1.8797   2.0497   2.1717   2.4691   2.6203   2.6789
     2.7402   2.8727   3.0332   3.0911   3.1733   3.2365   3.2598   3.3469
     3.3772   3.5107   3.5448   3.6740   3.6941   3.7318   3.7532   3.7773
     3.9214   4.0557   4.1131   4.1809   4.2339   4.2758   4.3305   4.3704
     4.4614   4.5608   4.6209   4.6732   4.8569   4.8917   5.0186   5.0239
     5.0401   5.1251   5.2292   5.2793   5.3112   5.4283   5.5550   5.6027
     5.6351   5.6712   5.8237   5.9018   6.0507   6.0692   6.1076   6.1681
     6.1793   6.2628   6.3366   6.3706   6.4536   6.5067   6.5875   6.6894
     6.7293   6.7810   6.9263   7.0184   7.1166   7.1743   7.2383

     the Fermi energy is     5.2184 ev

!    total energy              =   -2943.00440268 Ry
     estimated scf accuracy    <       0.00051757 Ry
     smearing contrib. (-TS)   =      -0.09590014 Ry
     internal energy E=F+TS    =   -2942.90850254 Ry

     total magnetization       =     0.01 Bohr mag/cell
     absolute magnetization    =     0.01 Bohr mag/cell

     convergence has been achieved in  15 iterations

     negative rho (up, down):  9.082E-01 9.082E-01

     Forces acting on atoms (cartesian axes, Ry/au):

     atom    1 type  1   force =    -0.00368040   -0.02550005    0.00326084
     atom    2 type  1   force =    -0.11259689   -0.01372428    0.00162319
     atom    3 type  1   force =    -0.11180429    0.01115417    0.00572257
     atom    4 type  1   force =     0.11459239   -0.01384346   -0.00042467
     atom    5 type  1   force =     0.12758398    0.00365985    0.01011733
     atom    6 type  2   force =    -0.00271649   -0.01186699    0.01125999
     atom    7 type  2   force =    -0.02191827    0.00898762   -0.01626483
     atom    8 type  3   force =    -0.10328086    0.00209279   -0.00603014
     atom    9 type  3   force =     0.12487135    0.01156183    0.00767099
     atom   10 type  3   force =    -0.02127370   -0.03291308   -0.06029907
     atom   11 type  3   force =    -0.01652245   -0.03784263    0.05445288
     atom   12 type  3   force =    -0.01847597    0.03606171   -0.05441903
     atom   13 type  3   force =    -0.01978716    0.03117028    0.05688913
     atom   14 type  3   force =     0.02019930   -0.03106152   -0.05845594
     atom   15 type  3   force =     0.01519427   -0.03635937    0.05377792
     atom   16 type  3   force =     0.01838507    0.03669302   -0.05173116
     atom   17 type  3   force =     0.03518588    0.03757913    0.05164581
     atom   18 type  4   force =    -0.00048296    0.02405748   -0.00112517
     atom   19 type  4   force =    -0.12807424   -0.00436068   -0.11617796
     atom   20 type  4   force =    -0.12950189    0.00574346    0.11365734
     atom   21 type  4   force =     0.12725073   -0.00528082   -0.11560533
     atom   22 type  4   force =     0.15773605    0.00807707    0.10838344
     atom   23 type  5   force =    -0.05088344   -0.00408553    0.00207187
     The non-local contrib.  to forces
     atom    1 type  1   force =    -0.00219620   -0.01486202    0.02597659
     atom    2 type  1   force =    -0.24600609   -0.16137725    0.01612936
     atom    3 type  1   force =    -0.23805126    0.15550638   -0.02085759
     atom    4 type  1   force =     0.24869894   -0.15553557    0.02447880
     atom    5 type  1   force =     0.25639749    0.13766401    0.00117909
     atom    6 type  2   force =    -0.00248076   -0.04097998   -0.05842335
     atom    7 type  2   force =    -0.02987344    0.06033022    0.05224013
     atom    8 type  3   force =    -0.26458042    0.00669578    0.00119040
     atom    9 type  3   force =     0.27827914    0.01834007    0.02756024
     atom   10 type  3   force =    -0.20784754    0.00316850   -0.20090441
     atom   11 type  3   force =    -0.20928987    0.00075976    0.19184657
     atom   12 type  3   force =    -0.20157109   -0.01752067   -0.17788329
     atom   13 type  3   force =    -0.21131496   -0.00525854    0.20007058
     atom   14 type  3   force =     0.20126184    0.00325128   -0.21379032
     atom   15 type  3   force =     0.22316765    0.00828756    0.18688568
     atom   16 type  3   force =     0.19694018   -0.01662442   -0.18664280
     atom   17 type  3   force =     0.25892592   -0.03545231    0.15366054
     atom   18 type  4   force =    -0.00270355    0.04540869   -0.05956867
     atom   19 type  4   force =     0.05884176    0.00743341    0.07441279
     atom   20 type  4   force =     0.05037950   -0.01991512   -0.06408114
     atom   21 type  4   force =    -0.05667525    0.01343983    0.07485502
     atom   22 type  4   force =    -0.06193960   -0.00002262   -0.08574768
     atom   23 type  5   force =    -0.01369713   -0.00141523    0.00003700
     The ionic contribution  to forces
     atom    1 type  1   force =    -0.19984074   -4.65221513   13.71512131
     atom    2 type  1   force =   -47.05988591   -6.09451130    0.74143390
     atom    3 type  1   force =   -47.05017526    6.12939222   -0.77338900
     atom    4 type  1   force =    46.84529869   -6.07116980    0.67853817
     atom    5 type  1   force =    46.47874990    6.39487174   -1.03964036
     atom    6 type  2   force =    -0.12275679   -3.56018108  -13.66909125
     atom    7 type  2   force =    -0.48202451    3.55450336   13.62426174
     atom    8 type  3   force =   -60.39965903    0.02821564   -0.12606257
     atom    9 type  3   force =    59.76990932   -0.26952363   -0.43728668
     atom   10 type  3   force =   -43.36787686   -2.07225066  -22.61629667
     atom   11 type  3   force =   -42.48293329   -0.82479072   21.64868429
     atom   12 type  3   force =   -42.57141249    0.80227238  -21.67708117
     atom   13 type  3   force =   -43.39922493    2.20706627   22.64538721
     atom   14 type  3   force =    43.24361198   -2.06779354  -22.63638155
     atom   15 type  3   force =    42.24658893   -0.80301145   21.71461870
     atom   16 type  3   force =    42.40169493    0.83608890  -21.72152506
     atom   17 type  3   force =    42.78276504    2.47514484   22.92405211
     atom   18 type  4   force =    -0.18177802    4.32611248  -13.70420694
     atom   19 type  4   force =   -42.95255191    0.93567032  -25.08782012
     atom   20 type  4   force =   -42.99396954   -0.99081138   25.10578339
     atom   21 type  4   force =    42.80088231    0.90395431  -25.12709032
     atom   22 type  4   force =    42.43069089   -1.24475061   25.38738707
     atom   23 type  5   force =     4.26389728    0.05771683    0.43060380
     The local contribution  to forces
     atom    1 type  1   force =     0.19928192    4.63600998  -13.73487067
     atom    2 type  1   force =    47.21421096    6.24788758   -0.74348642
     atom    3 type  1   force =    47.19717567   -6.27993375    0.81226104
     atom    4 type  1   force =   -46.99919678    6.21917904   -0.69618399
     atom    5 type  1   force =   -46.62437021   -6.53829646    1.05648035
     atom    6 type  2   force =     0.12617431    3.59090391   13.75630068
     atom    7 type  2   force =     0.48884177   -3.59815322  -13.69223740
     atom    8 type  3   force =    60.60819377   -0.03372564    0.12741665
     atom    9 type  3   force =   -59.96615853    0.26340139    0.42464423
     atom   10 type  3   force =    43.58579021    2.02650105   22.77758211
     atom   11 type  3   force =    42.71008372    0.76933819  -21.80982916
     atom   12 type  3   force =    42.78734945   -0.74332129   21.82210384
     atom   13 type  3   force =    43.62146791   -2.15018657  -22.81248088
     atom   14 type  3   force =   -43.44849835    2.01972313   22.81217146
     atom   15 type  3   force =   -42.49014782    0.74663308  -21.86791326
     atom   16 type  3   force =   -42.60571393   -0.77379907   21.87771933
     atom   17 type  3   force =   -43.04007486   -2.38842646  -23.04636897
     atom   18 type  4   force =     0.18764257   -4.34496220   13.77324283
     atom   19 type  4   force =    42.77789307   -0.94507635   24.91588916
     atom   20 type  4   force =    42.82681666    1.01344979  -24.94705014
     atom   21 type  4   force =   -42.62529042   -0.91910991   24.95491766
     atom   22 type  4   force =   -42.22307022    1.24942632  -25.21301483
     atom   23 type  5   force =    -4.30249184   -0.06075276   -0.42785374
     The core correction contribution to forces
     atom    1 type  1   force =     0.00016716    0.00055103   -0.00094218
     atom    2 type  1   force =    -0.01255991   -0.00199658    0.00049183
     atom    3 type  1   force =    -0.01276441    0.00230414   -0.00134154
     atom    4 type  1   force =     0.01284764   -0.00132549    0.00272894
     atom    5 type  1   force =     0.01002466    0.00475580   -0.00094499
     atom    6 type  2   force =     0.00008950    0.00188890    0.00237494
     atom    7 type  2   force =     0.00122120   -0.00315763   -0.00207889
     atom    8 type  3   force =    -0.03369201    0.00085705    0.00003315
     atom    9 type  3   force =     0.03121429   -0.00097396    0.00106877
     atom   10 type  3   force =    -0.02202242    0.00985755   -0.01634159
     atom   11 type  3   force =    -0.02283090    0.00921964    0.01716270
     atom   12 type  3   force =    -0.02167956   -0.00966602   -0.01634616
     atom   13 type  3   force =    -0.02250131   -0.00983897    0.01617583
     atom   14 type  3   force =     0.02102453    0.01052050   -0.01627397
     atom   15 type  3   force =     0.02346236    0.00984483    0.01469359
     atom   16 type  3   force =     0.02181838   -0.01103079   -0.01640585
     atom   17 type  3   force =     0.02303297   -0.00685109    0.01380893
     atom   18 type  4   force =     0.00012593   -0.00242888    0.00303907
     atom   19 type  4   force =    -0.00967589    0.00011927   -0.00954423
     atom   20 type  4   force =    -0.00928896    0.00075280    0.00905272
     atom   21 type  4   force =     0.00960539   -0.00018353   -0.00963087
     atom   22 type  4   force =     0.01030276   -0.00003707    0.00988563
     atom   23 type  5   force =     0.00000000    0.00000000    0.00000000
     The Hubbard contrib.    to forces
     atom    1 type  1   force =     0.00000000    0.00000000    0.00000000
     atom    2 type  1   force =     0.00000000    0.00000000    0.00000000
     atom    3 type  1   force =     0.00000000    0.00000000    0.00000000
     atom    4 type  1   force =     0.00000000    0.00000000    0.00000000
     atom    5 type  1   force =     0.00000000    0.00000000    0.00000000
     atom    6 type  2   force =     0.00000000    0.00000000    0.00000000
     atom    7 type  2   force =     0.00000000    0.00000000    0.00000000
     atom    8 type  3   force =     0.00000000    0.00000000    0.00000000
     atom    9 type  3   force =     0.00000000    0.00000000    0.00000000
     atom   10 type  3   force =     0.00000000    0.00000000    0.00000000
     atom   11 type  3   force =     0.00000000    0.00000000    0.00000000
     atom   12 type  3   force =     0.00000000    0.00000000    0.00000000
     atom   13 type  3   force =     0.00000000    0.00000000    0.00000000
     atom   14 type  3   force =     0.00000000    0.00000000    0.00000000
     atom   15 type  3   force =     0.00000000    0.00000000    0.00000000
     atom   16 type  3   force =     0.00000000    0.00000000    0.00000000
     atom   17 type  3   force =     0.00000000    0.00000000    0.00000000
     atom   18 type  4   force =     0.00000000    0.00000000    0.00000000
     atom   19 type  4   force =     0.00000000    0.00000000    0.00000000
     atom   20 type  4   force =     0.00000000    0.00000000    0.00000000
     atom   21 type  4   force =     0.00000000    0.00000000    0.00000000
     atom   22 type  4   force =     0.00000000    0.00000000    0.00000000
     atom   23 type  5   force =     0.00000000    0.00000000    0.00000000
     The SCF correction term to forces
     atom    1 type  1   force =    -0.00093275    0.00494545   -0.00128944
     atom    2 type  1   force =    -0.00819615   -0.00379738   -0.01221071
     atom    3 type  1   force =    -0.00782924    0.00381452   -0.01021557
     atom    4 type  1   force =     0.00710370   -0.00506229   -0.00925183
     atom    5 type  1   force =     0.00694194    0.00459412   -0.00622198
     atom    6 type  2   force =    -0.00358295   -0.00356938   -0.01916626
     atom    7 type  2   force =     0.00007652   -0.00460576    0.00228436
     atom    8 type  3   force =    -0.01338337   -0.00002069   -0.00787298
     atom    9 type  3   force =     0.01178693    0.00024732   -0.00758079
     atom   10 type  3   force =    -0.00915731   -0.00026017   -0.00360374
     atom   11 type  3   force =    -0.01139232    0.00755985    0.00732326
     atom   12 type  3   force =    -0.01100249    0.00422667   -0.00447747
     atom   13 type  3   force =    -0.00805407   -0.01068256    0.00847115
     atom   14 type  3   force =     0.00295909    0.00316646   -0.00344678
     atom   15 type  3   force =     0.01228294    0.00181595    0.00622798
     atom   16 type  3   force =     0.00380531    0.00198774   -0.00414200
     atom   17 type  3   force =     0.01069661   -0.00690651    0.00722798
     atom   18 type  4   force =    -0.00361010   -0.00014327   -0.01289667
     atom   19 type  4   force =    -0.00242147   -0.00257799   -0.00838079
     atom   20 type  4   force =    -0.00327975    0.00219673    0.01068730
     atom   21 type  4   force =    -0.00111151   -0.00345217   -0.00792204
     atom   22 type  4   force =     0.00191201    0.00339040    0.01060802
     atom   23 type  5   force =     0.00156805    0.00029498    0.00001959

     Total force =     0.500578     Total SCF correction =     0.058166
     SCF correction compared to forces is large: reduce conv_thr to get better values

     Molecular Dynamics Calculation

     Starting temperature  =   300.00 K

     temperature is set once at start

     mass Hf               =   178.49
     mass Nb               =    92.91
     mass Ta               =   180.95
     mass Zr               =    91.22
     mass H                =     2.01
     Time step             =     4.20 a.u.,  0.2032 femto-seconds

     Entering Dynamics:    iteration =     1
                           time      =   0.0002 pico-seconds


ATOMIC_POSITIONS (angstrom)
Hf            2.6701337010        2.8270276463        6.6038696609
Hf            1.2531212995        1.2861891364        5.0583716214
Hf            1.2556175406        7.3897099635        5.0879732803
Hf            4.0871463711        1.2861891329        5.0583715626
Hf            4.0846505254        7.3897097485        5.0879734064
Nb            2.6701336569        2.7968353001        3.5154891860
Nb            2.6701325985        5.8762845204        6.6349023954
Ta            1.2095039828        4.3408332595        5.0710310104
Ta            4.1307642415        4.3408335275        5.0710313981
Ta            1.3073859317        1.3140270067        2.0586827523
Ta            1.3029216963        1.3082954138        8.0944860921
Ta            1.3041429489        7.3757324934        2.0461409884
Ta            1.3078440881        7.3649891792        8.0859091795
Ta            4.0328816512        1.3140270591        2.0586828045
Ta            4.0373458794        1.3082954557        8.0944860730
Ta            4.0361246618        7.3757325112        2.0461410645
Ta            4.0324239610        7.3649893606        8.0859090311
Zr            2.6701337795        5.8661925426        3.5272892159
Zr            1.2439612792        4.3219830684        1.9998988271
Zr            1.2405119928        4.3540289556        8.1496672781
Zr            4.0963062878        4.3219830168        1.9998988592
Zr            4.0997572054        4.3540290866        8.1496669821
H             6.0295861186        5.9971399192        6.7293354197


     kinetic energy (Ekin) =          18.36481730 Ry
     temperature           =       87865.91878145 K 
     Ekin + Etot (const)   =       -2924.63958538 Ry

     Linear momentum :   -0.0000000000    0.0000000000    0.0000000000

     File outdir/pwscf.msd.dat deleted, as requested

     Writing config-only to output data dir outdir/pwscf.save/
     NEW-OLD atomic charge density approx. for the potential

     Check: negative core charge=   -0.000002

     negative rho (up, down):  9.082E-01 9.082E-01
     Generating pointlists ...
     new r_m :   0.1009 (alat units)  2.1631 (a.u.) for type    5

     total cpu time spent up to now is      953.3 secs

     Self-consistent Calculation

     iteration #  1     ecut=   120.00 Ry     beta= 0.70
     Davidson diagonalization with overlap
     c_bands:  2 eigenvalues not converged
     c_bands:  2 eigenvalues not converged
     ethr =  1.00E-06,  avg # of iterations = 20.0

     negative rho (up, down):  9.080E-01 9.080E-01

     total cpu time spent up to now is     1066.5 secs

     total energy              =   -2943.02076567 Ry
     estimated scf accuracy    <       0.06628603 Ry

     total magnetization       =     0.01 Bohr mag/cell
     absolute magnetization    =     0.01 Bohr mag/cell

     iteration #  2     ecut=   120.00 Ry     beta= 0.70
     Davidson diagonalization with overlap
     ethr =  2.39E-05,  avg # of iterations =  2.0

     negative rho (up, down):  9.081E-01 9.081E-01

     total cpu time spent up to now is     1118.0 secs

     total energy              =   -2943.02483005 Ry
     estimated scf accuracy    <       0.04703255 Ry

     total magnetization       =     0.01 Bohr mag/cell
     absolute magnetization    =     0.01 Bohr mag/cell

     iteration #  3     ecut=   120.00 Ry     beta= 0.70
     Davidson diagonalization with overlap
     ethr =  1.70E-05,  avg # of iterations =  1.0

     negative rho (up, down):  9.082E-01 9.082E-01

     total cpu time spent up to now is     1163.5 secs

     total energy              =   -2943.02729358 Ry
     estimated scf accuracy    <       0.00224073 Ry

     total magnetization       =     0.00 Bohr mag/cell
     absolute magnetization    =     0.01 Bohr mag/cell

     iteration #  4     ecut=   120.00 Ry     beta= 0.70
     Davidson diagonalization with overlap
     ethr =  8.09E-07,  avg # of iterations =  2.0

     negative rho (up, down):  9.082E-01 9.082E-01

     total cpu time spent up to now is     1217.5 secs

     total energy              =   -2943.02731345 Ry
     estimated scf accuracy    <       0.00112194 Ry

     total magnetization       =     0.00 Bohr mag/cell
     absolute magnetization    =     0.01 Bohr mag/cell

     iteration #  5     ecut=   120.00 Ry     beta= 0.70
     Davidson diagonalization with overlap
     ethr =  4.05E-07,  avg # of iterations =  2.0

     negative rho (up, down):  9.082E-01 9.082E-01

     Magnetic moment per site  (integrated on atomic sphere of radius R)
     atom   1 (R=0.092)  charge=  9.4645    0.0000
     atom   2 (R=0.092)  charge=  9.0585    0.0000
     atom   3 (R=0.092)  charge=  9.0584    0.0001
     atom   4 (R=0.092)  charge=  9.0548    0.0000
     atom   5 (R=0.092)  charge=  9.0571    0.0000
     atom   6 (R=0.090)  charge= 10.3453    0.0000
     atom   7 (R=0.090)  charge= 10.3532    0.0000
     atom   8 (R=0.090)  charge=  9.8015    0.0000
     atom   9 (R=0.090)  charge=  9.8021   -0.0000
     atom  10 (R=0.090)  charge=  9.7437    0.0000
     atom  11 (R=0.090)  charge=  9.7339    0.0004
     atom  12 (R=0.090)  charge=  9.7430    0.0002
     atom  13 (R=0.090)  charge=  9.7413   -0.0000
     atom  14 (R=0.090)  charge=  9.7453    0.0001
     atom  15 (R=0.090)  charge=  9.7359   -0.0000
     atom  16 (R=0.090)  charge=  9.7405    0.0002
     atom  17 (R=0.090)  charge=  9.7347    0.0000
     atom  18 (R=0.092)  charge=  9.4513   -0.0000
     atom  19 (R=0.092)  charge=  8.9982    0.0001
     atom  20 (R=0.092)  charge=  8.9949    0.0001
     atom  21 (R=0.092)  charge=  8.9950    0.0001
     atom  22 (R=0.092)  charge=  8.9891   -0.0000
     atom  23 (R=0.101)  charge=  1.2004    0.0000

     total cpu time spent up to now is     1268.2 secs

     End of self-consistent calculation

 ------ SPIN UP ------------


          k = 0.0000 0.0000 0.0000 ( 74835 PWs)   bands (ev):

   -62.8026 -62.7589 -62.7209 -62.7160 -62.6820 -62.6684 -62.6379 -62.6258
   -62.5770 -62.5490 -56.3795 -56.3256 -56.2536 -56.1993 -54.6848 -48.2758
   -48.2594 -43.6457 -43.6259 -43.5512 -43.5229 -41.7859 -29.7783 -29.7595
   -29.6803 -29.6749 -29.5951 -29.5651 -29.4632 -29.4377 -29.4265 -29.3506
   -29.3153 -29.2592 -29.2555 -29.2393 -29.2136 -29.1895 -29.1673 -29.1508
   -29.1487 -29.1255 -29.1069 -29.0785 -28.9534 -28.9372 -28.9277 -28.9170
   -28.8684 -28.8591 -28.8309 -28.8282 -26.1643 -25.9548 -25.6477 -25.5584
   -25.3086 -25.1861 -25.1578 -25.0592 -24.9257 -24.8483 -24.8341 -24.6100
   -24.5111 -24.4554 -24.3900 -24.3677 -24.2737 -24.2415 -23.7478 -23.6860
   -23.6112 -22.1849 -21.9461 -21.8346 -21.8164 -21.6402 -21.6034 -21.5967
   -21.5765 -21.5664 -21.5296 -21.3643 -21.3603 -20.1315 -19.9314 -19.8023
    -0.5038   0.9290   1.1373   1.1479   1.3473   1.3999   1.5295   1.6871
     1.7236   1.8079   1.9171   2.0611   2.1715   2.5075   2.6374   2.7196
     2.7761   2.8687   3.0720   3.1285   3.1652   3.2744   3.2996   3.3827
     3.3989   3.5479   3.5816   3.7116   3.7333   3.7693   3.7948   3.8110
     3.9621   4.0913   4.1460   4.2172   4.2654   4.3194   4.3700   4.4057
     4.4945   4.5957   4.6614   4.7084   4.8919   4.9409   5.0557   5.0619
     5.0788   5.1674   5.2677   5.3128   5.3543   5.4932   5.5935   5.6400
     5.6693   5.7025   5.8595   5.9445   6.0950   6.1077   6.1414   6.1932
     6.2192   6.3003   6.3733   6.3986   6.5102   6.5374   6.6095   6.7311
     6.7749   6.8179   7.0028   7.0482   7.1672   7.2286   7.2729

 ------ SPIN DOWN ----------


          k = 0.0000 0.0000 0.0000 ( 74835 PWs)   bands (ev):

   -62.8026 -62.7588 -62.7209 -62.7159 -62.6819 -62.6683 -62.6378 -62.6257
   -62.5770 -62.5490 -56.3795 -56.3255 -56.2536 -56.1992 -54.6848 -48.2758
   -48.2594 -43.6457 -43.6257 -43.5512 -43.5227 -41.7859 -29.7783 -29.7594
   -29.6802 -29.6748 -29.5950 -29.5650 -29.4632 -29.4376 -29.4264 -29.3506
   -29.3152 -29.2591 -29.2554 -29.2393 -29.2135 -29.1895 -29.1672 -29.1506
   -29.1487 -29.1254 -29.1069 -29.0785 -28.9534 -28.9372 -28.9276 -28.9169
   -28.8682 -28.8589 -28.8308 -28.8281 -26.1642 -25.9548 -25.6476 -25.5584
   -25.3086 -25.1861 -25.1578 -25.0591 -24.9257 -24.8482 -24.8341 -24.6099
   -24.5110 -24.4554 -24.3900 -24.3677 -24.2737 -24.2415 -23.7477 -23.6860
   -23.6112 -22.1848 -21.9461 -21.8345 -21.8163 -21.6402 -21.6034 -21.5966
   -21.5764 -21.5663 -21.5296 -21.3642 -21.3602 -20.1315 -19.9314 -19.8023
    -0.5037   0.9291   1.1373   1.1480   1.3473   1.4001   1.5296   1.6871
     1.7237   1.8080   1.9172   2.0612   2.1716   2.5075   2.6374   2.7197
     2.7762   2.8689   3.0722   3.1286   3.1652   3.2744   3.2997   3.3828
     3.3991   3.5479   3.5817   3.7117   3.7333   3.7694   3.7949   3.8111
     3.9622   4.0914   4.1462   4.2172   4.2655   4.3195   4.3701   4.4058
     4.4947   4.5957   4.6615   4.7086   4.8921   4.9410   5.0562   5.0623
     5.0791   5.1676   5.2682   5.3130   5.3547   5.4935   5.5936   5.6402
     5.6695   5.7028   5.8595   5.9446   6.0952   6.1080   6.1415   6.1936
     6.2194   6.3004   6.3738   6.3987   6.5103   6.5375   6.6096   6.7313
     6.7753   6.8180   7.0029   7.0483   7.1672   7.2287   7.2733

     the Fermi energy is     5.2596 ev

!    total energy              =   -2943.02725349 Ry
     estimated scf accuracy    <       0.00033327 Ry
     smearing contrib. (-TS)   =      -0.09529957 Ry
     internal energy E=F+TS    =   -2942.93195393 Ry

     total magnetization       =     0.00 Bohr mag/cell
     absolute magnetization    =     0.01 Bohr mag/cell

     convergence has been achieved in   5 iterations

     negative rho (up, down):  9.082E-01 9.082E-01

     Forces acting on atoms (cartesian axes, Ry/au):

     atom    1 type  1   force =    -0.00504768   -0.02467508    0.00386906
     atom    2 type  1   force =    -0.11692927   -0.01508202   -0.00374351
     atom    3 type  1   force =    -0.11520530    0.01325543    0.00048895
     atom    4 type  1   force =     0.11862922   -0.01552278   -0.00452736
     atom    5 type  1   force =     0.12827374    0.00756999    0.00822565
     atom    6 type  2   force =    -0.00060125   -0.01248098    0.01113543
     atom    7 type  2   force =    -0.02217483    0.00963557   -0.01427219
     atom    8 type  3   force =    -0.10451604    0.00156200   -0.00596483
     atom    9 type  3   force =     0.11581748    0.00540603    0.00189269
     atom   10 type  3   force =    -0.02190000   -0.03420498   -0.06022509
     atom   11 type  3   force =    -0.01726901   -0.03668144    0.05736993
     atom   12 type  3   force =    -0.01882753    0.03737746   -0.05461433
     atom   13 type  3   force =    -0.02106397    0.02740404    0.05902642
     atom   14 type  3   force =     0.02012308   -0.03160261   -0.05820928
     atom   15 type  3   force =     0.01872624   -0.03522068    0.05798392
     atom   16 type  3   force =     0.01814570    0.03830557   -0.05218364
     atom   17 type  3   force =     0.04805517    0.03357355    0.05195769
     atom   18 type  4   force =    -0.00054664    0.02542796   -0.00410618
     atom   19 type  4   force =    -0.12765901   -0.00514235   -0.11858780
     atom   20 type  4   force =    -0.12623560    0.00588786    0.11778734
     atom   21 type  4   force =     0.12703329   -0.00576363   -0.11739318
     atom   22 type  4   force =     0.15477000    0.00994073    0.11420035
     atom   23 type  5   force =    -0.05159781    0.00103034    0.00988998
     The non-local contrib.  to forces
     atom    1 type  1   force =    -0.00320509   -0.01384878    0.02653284
     atom    2 type  1   force =    -0.24674305   -0.16251581    0.01323231
     atom    3 type  1   force =    -0.23870744    0.15606198   -0.02248400
     atom    4 type  1   force =     0.24747123   -0.15537651    0.02230173
     atom    5 type  1   force =     0.25596198    0.13390057    0.00629501
     atom    6 type  2   force =    -0.00375368   -0.03954566   -0.05795591
     atom    7 type  2   force =    -0.03233989    0.06098173    0.05237946
     atom    8 type  3   force =    -0.26582626    0.00792275    0.00103969
     atom    9 type  3   force =     0.28490997    0.02291296    0.03107219
     atom   10 type  3   force =    -0.20675870    0.00254021   -0.20048585
     atom   11 type  3   force =    -0.21015818    0.00183514    0.19123493
     atom   12 type  3   force =    -0.20108104   -0.01629013   -0.17765751
     atom   13 type  3   force =    -0.20957569   -0.00724827    0.19932756
     atom   14 type  3   force =     0.19960257    0.00312856   -0.21254452
     atom   15 type  3   force =     0.22691017    0.01144199    0.18641879
     atom   16 type  3   force =     0.19537779   -0.01514456   -0.18654979
     atom   17 type  3   force =     0.24614969   -0.03453359    0.15131960
     atom   18 type  4   force =    -0.00296892    0.04629570   -0.06422790
     atom   19 type  4   force =     0.05858828    0.00662188    0.07301160
     atom   20 type  4   force =     0.04815382   -0.01892934   -0.06120781
     atom   21 type  4   force =    -0.05767421    0.01342057    0.07290621
     atom   22 type  4   force =    -0.06463220    0.00210713   -0.08112734
     atom   23 type  5   force =    -0.01684288    0.00035099    0.00213529
     The ionic contribution  to forces
     atom    1 type  1   force =    -0.20716306   -4.65642027   13.70494370
     atom    2 type  1   force =   -47.07464457   -6.08914968    0.73656281
     atom    3 type  1   force =   -47.07694895    6.12953694   -0.78317671
     atom    4 type  1   force =    46.85255928   -6.04658692    0.66266263
     atom    5 type  1   force =    46.45347765    6.41687069   -1.13395760
     atom    6 type  2   force =    -0.12208309   -3.55749772  -13.66933598
     atom    7 type  2   force =    -0.56764713    3.53069149   13.59879983
     atom    8 type  3   force =   -60.42203057    0.02352169   -0.13291424
     atom    9 type  3   force =    59.83164170   -0.29641027   -0.46875529
     atom   10 type  3   force =   -43.37723729   -2.06945027  -22.61197181
     atom   11 type  3   force =   -42.50220627   -0.81807390   21.64769173
     atom   12 type  3   force =   -42.58394869    0.80162878  -21.67183954
     atom   13 type  3   force =   -43.43720630    2.21059792   22.64749625
     atom   14 type  3   force =    43.24823810   -2.06103793  -22.62778269
     atom   15 type  3   force =    42.24222015   -0.77081226   21.71732942
     atom   16 type  3   force =    42.40675963    0.83442948  -21.70802087
     atom   17 type  3   force =    42.64790584    2.56854731   23.01424932
     atom   18 type  4   force =    -0.18561365    4.31873109  -13.71297645
     atom   19 type  4   force =   -42.96269487    0.93406655  -25.08210957
     atom   20 type  4   force =   -43.02115682   -0.99839172   25.10462734
     atom   21 type  4   force =    42.81049184    0.90007406  -25.11010225
     atom   22 type  4   force =    42.40459957   -1.33435292   25.40824041
     atom   23 type  5   force =     4.64268751    0.02948784    0.47033956
     The local contribution  to forces
     atom    1 type  1   force =     0.19890312    4.64287642  -13.72335648
     atom    2 type  1   force =    47.21250997    6.23762346   -0.75861248
     atom    3 type  1   force =    47.20781806   -6.27063496    0.80136059
     atom    4 type  1   force =   -46.99672232    6.18532471   -0.69779286
     atom    5 type  1   force =   -46.59683460   -6.53982169    1.13065039
     atom    6 type  2   force =     0.11976569    3.57576002   13.72004222
     atom    7 type  2   force =     0.56941289   -3.57857347  -13.65871304
     atom    8 type  3   force =    60.60913273   -0.03382549    0.12248145
     atom    9 type  3   force =   -60.04571024    0.27315093    0.43136707
     atom   10 type  3   force =    43.58087216    2.01855302   22.76334044
     atom   11 type  3   force =    42.71464391    0.77445574  -21.79440670
     atom   12 type  3   force =    42.78471601   -0.73268623   21.80579082
     atom   13 type  3   force =    43.64501586   -2.16590424  -22.79686725
     atom   14 type  3   force =   -43.45138750    2.00979147   22.79267586
     atom   15 type  3   force =   -42.47922083    0.71494310  -21.85513205
     atom   16 type  3   force =   -42.60964985   -0.76253892   21.85225617
     atom   17 type  3   force =   -42.87083384   -2.49254640  -23.12014214
     atom   18 type  4   force =     0.18202099   -4.33156112   13.75360707
     atom   19 type  4   force =    42.78139700   -0.94700820   24.89247540
     atom   20 type  4   force =    42.85325586    1.01951415  -24.92766553
     atom   21 type  4   force =   -42.63780680   -0.92060728   24.92035863
     atom   22 type  4   force =   -42.20607846    1.33960918  -25.21225358
     atom   23 type  5   force =    -4.67916657   -0.02711946   -0.46137463
     The core correction contribution to forces
     atom    1 type  1   force =     0.00007000    0.00088896   -0.00109913
     atom    2 type  1   force =    -0.01251353   -0.00207279    0.00063290
     atom    3 type  1   force =    -0.01258614    0.00211087   -0.00128663
     atom    4 type  1   force =     0.01286777   -0.00107279    0.00252270
     atom    5 type  1   force =     0.01009387    0.00392680   -0.00103231
     atom    6 type  2   force =     0.00015946    0.00182072    0.00231094
     atom    7 type  2   force =     0.00150047   -0.00320370   -0.00210525
     atom    8 type  3   force =    -0.03355993    0.00106212    0.00023796
     atom    9 type  3   force =     0.03260752   -0.00031592    0.00169890
     atom   10 type  3   force =    -0.02205328    0.00993027   -0.01626487
     atom   11 type  3   force =    -0.02271393    0.00920476    0.01691105
     atom   12 type  3   force =    -0.02140975   -0.00969012   -0.01639929
     atom   13 type  3   force =    -0.02192969   -0.01004769    0.01596964
     atom   14 type  3   force =     0.02073817    0.01061843   -0.01617784
     atom   15 type  3   force =     0.02380541    0.00956077    0.01531766
     atom   16 type  3   force =     0.02135531   -0.01072281   -0.01646068
     atom   17 type  3   force =     0.02123729   -0.00552491    0.01476120
     atom   18 type  4   force =     0.00008672   -0.00245970    0.00309480
     atom   19 type  4   force =    -0.00971187    0.00014250   -0.00960266
     atom   20 type  4   force =    -0.00918004    0.00070704    0.00899053
     atom   21 type  4   force =     0.00961411   -0.00022504   -0.00965993
     atom   22 type  4   force =     0.01034354   -0.00013558    0.00971622
     atom   23 type  5   force =     0.00000000    0.00000000    0.00000000
     The Hubbard contrib.    to forces
     atom    1 type  1   force =     0.00000000    0.00000000    0.00000000
     atom    2 type  1   force =     0.00000000    0.00000000    0.00000000
     atom    3 type  1   force =     0.00000000    0.00000000    0.00000000
     atom    4 type  1   force =     0.00000000    0.00000000    0.00000000
     atom    5 type  1   force =     0.00000000    0.00000000    0.00000000
     atom    6 type  2   force =     0.00000000    0.00000000    0.00000000
     atom    7 type  2   force =     0.00000000    0.00000000    0.00000000
     atom    8 type  3   force =     0.00000000    0.00000000    0.00000000
     atom    9 type  3   force =     0.00000000    0.00000000    0.00000000
     atom   10 type  3   force =     0.00000000    0.00000000    0.00000000
     atom   11 type  3   force =     0.00000000    0.00000000    0.00000000
     atom   12 type  3   force =     0.00000000    0.00000000    0.00000000
     atom   13 type  3   force =     0.00000000    0.00000000    0.00000000
     atom   14 type  3   force =     0.00000000    0.00000000    0.00000000
     atom   15 type  3   force =     0.00000000    0.00000000    0.00000000
     atom   16 type  3   force =     0.00000000    0.00000000    0.00000000
     atom   17 type  3   force =     0.00000000    0.00000000    0.00000000
     atom   18 type  4   force =     0.00000000    0.00000000    0.00000000
     atom   19 type  4   force =     0.00000000    0.00000000    0.00000000
     atom   20 type  4   force =     0.00000000    0.00000000    0.00000000
     atom   21 type  4   force =     0.00000000    0.00000000    0.00000000
     atom   22 type  4   force =     0.00000000    0.00000000    0.00000000
     atom   23 type  5   force =     0.00000000    0.00000000    0.00000000
     The SCF correction term to forces
     atom    1 type  1   force =     0.00559073    0.00189242   -0.00363026
     atom    2 type  1   force =     0.00370529    0.00109662    0.00396257
     atom    3 type  1   force =     0.00446256   -0.00375558    0.00559733
     atom    4 type  1   force =     0.00169663    0.00225256    0.00530005
     atom    5 type  1   force =     0.00481821   -0.00724254    0.00579177
     atom    6 type  2   force =     0.00455376    0.00704549    0.01559578
     atom    7 type  2   force =     0.00614220   -0.00019666   -0.00511156
     atom    8 type  3   force =     0.00701138    0.00294475    0.00271193
     atom    9 type  3   force =     0.01161191    0.00613215    0.00603144
     atom   10 type  3   force =     0.00252050    0.00428562    0.00467861
     atom   11 type  3   force =     0.00240884   -0.00403936   -0.00453946
     atom   12 type  3   force =     0.00213931   -0.00552101    0.00501281
     atom   13 type  3   force =     0.00187521    0.00007014   -0.00737816
     atom   14 type  3   force =     0.00217512    0.00596068    0.00514153
     atom   15 type  3   force =     0.00425472   -0.00029046   -0.00642828
     atom   16 type  3   force =     0.00354621   -0.00765379    0.00611315
     atom   17 type  3   force =     0.00283957   -0.00230503   -0.00870868
     atom   18 type  4   force =     0.00517160   -0.00551419    0.01591792
     atom   19 type  4   force =     0.00400583    0.00109873    0.00715904
     atom   20 type  4   force =     0.00193496    0.00305155   -0.00743558
     atom   21 type  4   force =     0.00165174    0.00163788    0.00862578
     atom   22 type  4   force =     0.00978094    0.00277675   -0.01085374
     atom   23 type  5   force =     0.00096751   -0.00162521   -0.00168862

     Total force =     0.505103     Total SCF correction =     0.047191

     Entering Dynamics:    iteration =     2
                           time      =   0.0004 pico-seconds


ATOMIC_POSITIONS (angstrom)
Hf            2.6702671555        2.8269308476        6.6037753251
Hf            1.2532452094        1.2860932259        5.0582768019
Hf            1.2557415722        7.3896163928        5.0878788212
Hf            4.0872903152        1.2860931938        5.0582766394
Hf            4.0847953956        7.3896156366        5.0878795173
Nb            2.6702672905        2.7967386189        3.5153963829
Nb            2.6702627956        5.8761914267        6.6348052743
Ta            1.2096289940        4.3407387559        5.0709358508
Ta            4.1309081803        4.3407395094        5.0709370710
Ta            1.3075179397        1.3139294879        2.0585829859
Ta            1.3030541009        1.3081976154        8.0943962290
Ta            1.3042752100        7.3756409782        2.0460417059
Ta            1.3079761855        7.3648969611        8.0858194790
Ta            4.0330172114        1.3139297400        2.0585832043
Ta            4.0374812190        1.3081977820        8.0943962255
Ta            4.0362600588        7.3756410664        2.0460419956
Ta            4.0325615263        7.3648976731        8.0858187822
Zr            2.6702675407        5.8661020965        3.5271940405
Zr            1.2440736073        4.3218875950        1.9997843405
Zr            1.2406244005        4.3539352878        8.1495922308
Zr            4.0964615425        4.3218874220        1.9997845389
Zr            4.0999172854        4.3539360048        8.1495912360
H             5.8069626491        6.1542851277        6.8865413373


     kinetic energy (Ekin) =          18.38770539 Ry
     temperature           =       87975.42613811 K 
     Ekin + Etot (const)   =       -2924.63954811 Ry

     Linear momentum :   -0.0000000000    0.0000000000    0.0000000000

     Writing config-only to output data dir outdir/pwscf.save/
     NEW-OLD atomic charge density approx. for the potential

     Check: negative core charge=   -0.000002

     negative rho (up, down):  9.082E-01 9.082E-01
     Generating pointlists ...
     new r_m :   0.0895 (alat units)  1.9177 (a.u.) for type    3
     new r_m :   0.0895 (alat units)  1.9177 (a.u.) for type    5

     total cpu time spent up to now is     1299.9 secs

     Self-consistent Calculation

     iteration #  1     ecut=   120.00 Ry     beta= 0.70
     Davidson diagonalization with overlap
     c_bands:  1 eigenvalues not converged
     c_bands:  1 eigenvalues not converged
     ethr =  1.00E-06,  avg # of iterations = 20.0

     negative rho (up, down):  9.083E-01 9.083E-01

     total cpu time spent up to now is     1408.0 secs

     total energy              =   -2943.05013352 Ry
     estimated scf accuracy    <       0.04421763 Ry

     total magnetization       =     0.00 Bohr mag/cell
     absolute magnetization    =     0.01 Bohr mag/cell

     iteration #  2     ecut=   120.00 Ry     beta= 0.70
     Davidson diagonalization with overlap
     ethr =  1.60E-05,  avg # of iterations =  2.0

     negative rho (up, down):  9.083E-01 9.083E-01

     total cpu time spent up to now is     1459.8 secs

     total energy              =   -2943.05272579 Ry
     estimated scf accuracy    <       0.02784170 Ry

     total magnetization       =     0.00 Bohr mag/cell
     absolute magnetization    =     0.01 Bohr mag/cell

     iteration #  3     ecut=   120.00 Ry     beta= 0.70
     Davidson diagonalization with overlap
     ethr =  1.01E-05,  avg # of iterations =  1.0

     negative rho (up, down):  9.083E-01 9.083E-01

     total cpu time spent up to now is     1505.2 secs

     total energy              =   -2943.05414343 Ry
     estimated scf accuracy    <       0.00185635 Ry

     total magnetization       =     0.00 Bohr mag/cell
     absolute magnetization    =     0.00 Bohr mag/cell

     iteration #  4     ecut=   120.00 Ry     beta= 0.70
     Davidson diagonalization with overlap
     ethr =  6.70E-07,  avg # of iterations =  2.0

     negative rho (up, down):  9.082E-01 9.082E-01

     Magnetic moment per site  (integrated on atomic sphere of radius R)
     atom   1 (R=0.092)  charge=  9.4648    0.0000
     atom   2 (R=0.092)  charge=  9.0597    0.0000
     atom   3 (R=0.092)  charge=  9.0596    0.0000
     atom   4 (R=0.092)  charge=  9.0559   -0.0000
     atom   5 (R=0.092)  charge=  9.0607    0.0000
     atom   6 (R=0.090)  charge= 10.3474    0.0000
     atom   7 (R=0.090)  charge= 10.3557    0.0000
     atom   8 (R=0.089)  charge=  9.7278    0.0000
     atom   9 (R=0.089)  charge=  9.7387   -0.0000
     atom  10 (R=0.089)  charge=  9.6683    0.0000
     atom  11 (R=0.089)  charge=  9.6634    0.0003
     atom  12 (R=0.089)  charge=  9.6684    0.0002
     atom  13 (R=0.089)  charge=  9.6703    0.0000
     atom  14 (R=0.089)  charge=  9.6711    0.0001
     atom  15 (R=0.089)  charge=  9.6681    0.0000
     atom  16 (R=0.089)  charge=  9.6674    0.0001
     atom  17 (R=0.089)  charge=  9.6650    0.0001
     atom  18 (R=0.092)  charge=  9.4541    0.0000
     atom  19 (R=0.092)  charge=  8.9963    0.0001
     atom  20 (R=0.092)  charge=  8.9943    0.0001
     atom  21 (R=0.092)  charge=  8.9945    0.0001
     atom  22 (R=0.092)  charge=  8.9921   -0.0000
     atom  23 (R=0.089)  charge=  1.1126    0.0000

     total cpu time spent up to now is     1557.5 secs

     End of self-consistent calculation

 ------ SPIN UP ------------


          k = 0.0000 0.0000 0.0000 ( 74835 PWs)   bands (ev):

   -62.7864 -62.7405 -62.7168 -62.6974 -62.6634 -62.6585 -62.6183 -62.6154
   -62.5760 -62.5505 -56.3750 -56.3226 -56.2484 -56.1967 -54.6649 -48.2754
   -48.2666 -43.6376 -43.6142 -43.5418 -43.5110 -41.7921 -29.7657 -29.7432
   -29.6694 -29.6578 -29.5834 -29.5503 -29.4611 -29.4237 -29.4130 -29.3453
   -29.2992 -29.2539 -29.2413 -29.2302 -29.1999 -29.1839 -29.1615 -29.1489
   -29.1350 -29.1170 -29.1080 -29.0822 -28.9423 -28.9242 -28.9103 -28.9000
   -28.8577 -28.8414 -28.8172 -28.8130 -26.1600 -25.9517 -25.6449 -25.5563
   -25.3030 -25.1864 -25.1546 -25.0574 -24.9217 -24.8462 -24.8318 -24.6083
   -24.5117 -24.4581 -24.3877 -24.3700 -24.2721 -24.2435 -23.7327 -23.6702
   -23.5933 -22.1751 -21.9376 -21.8250 -21.8062 -21.6368 -21.5945 -21.5869
   -21.5664 -21.5553 -21.5190 -21.3550 -21.3488 -20.1365 -19.9358 -19.8042
    -0.5281   0.8443   1.0659   1.1492   1.2870   1.3982   1.5316   1.6859
     1.7059   1.7793   1.9210   2.0467   2.1520   2.5100   2.6231   2.7263
     2.7759   2.8481   3.0769   3.1303   3.1535   3.2833   3.3058   3.3950
     3.4036   3.5494   3.5869   3.7159   3.7346   3.7799   3.8054   3.8141
     3.9707   4.0966   4.1497   4.2211   4.2640   4.3305   4.3762   4.4079
     4.4986   4.5983   4.6703   4.7138   4.8942   4.9537   5.0661   5.0702
     5.0900   5.1803   5.2750   5.3131   5.3673   5.5309   5.6025   5.6481
     5.6748   5.7104   5.8604   5.9557   6.1088   6.1161   6.1458   6.1780
     6.2260   6.3013   6.3792   6.3969   6.5324   6.5380   6.5968   6.7323
     6.7907   6.8208   7.0288   7.0509   7.1696   7.2474   7.2876

 ------ SPIN DOWN ----------


          k = 0.0000 0.0000 0.0000 ( 74835 PWs)   bands (ev):

   -62.7864 -62.7404 -62.7167 -62.6973 -62.6633 -62.6585 -62.6182 -62.6153
   -62.5760 -62.5505 -56.3750 -56.3226 -56.2483 -56.1967 -54.6648 -48.2754
   -48.2666 -43.6376 -43.6141 -43.5417 -43.5108 -41.7921 -29.7656 -29.7431
   -29.6693 -29.6577 -29.5833 -29.5502 -29.4611 -29.4236 -29.4129 -29.3453
   -29.2992 -29.2538 -29.2413 -29.2301 -29.1998 -29.1839 -29.1615 -29.1490
   -29.1349 -29.1170 -29.1080 -29.0822 -28.9422 -28.9241 -28.9102 -28.8999
   -28.8575 -28.8413 -28.8171 -28.8129 -26.1600 -25.9517 -25.6448 -25.5563
   -25.3030 -25.1864 -25.1545 -25.0574 -24.9217 -24.8462 -24.8317 -24.6083
   -24.5117 -24.4581 -24.3876 -24.3700 -24.2721 -24.2435 -23.7327 -23.6701
   -23.5932 -22.1750 -21.9376 -21.8249 -21.8061 -21.6368 -21.5944 -21.5868
   -21.5663 -21.5552 -21.5189 -21.3550 -21.3486 -20.1365 -19.9358 -19.8042
    -0.5281   0.8444   1.0660   1.1492   1.2870   1.3983   1.5317   1.6859
     1.7060   1.7794   1.9211   2.0468   2.1521   2.5100   2.6231   2.7264
     2.7760   2.8482   3.0770   3.1303   3.1535   3.2834   3.3059   3.3951
     3.4037   3.5495   3.5869   3.7160   3.7346   3.7800   3.8055   3.8141
     3.9708   4.0967   4.1498   4.2211   4.2641   4.3306   4.3763   4.4079
     4.4987   4.5984   4.6703   4.7139   4.8943   4.9538   5.0665   5.0705
     5.0903   5.1805   5.2753   5.3132   5.3677   5.5311   5.6026   5.6483
     5.6750   5.7107   5.8605   5.9558   6.1089   6.1163   6.1459   6.1783
     6.2261   6.3014   6.3796   6.3970   6.5325   6.5381   6.5969   6.7324
     6.7910   6.8210   7.0289   7.0511   7.1697   7.2476   7.2877

     the Fermi energy is     5.2701 ev

!    total energy              =   -2943.05398351 Ry
     estimated scf accuracy    <       0.00060253 Ry
     smearing contrib. (-TS)   =      -0.09451673 Ry
     internal energy E=F+TS    =   -2942.95946678 Ry

     total magnetization       =     0.00 Bohr mag/cell
     absolute magnetization    =     0.00 Bohr mag/cell

     convergence has been achieved in   4 iterations

     negative rho (up, down):  9.082E-01 9.082E-01

     Forces acting on atoms (cartesian axes, Ry/au):

     atom    1 type  1   force =    -0.00158659   -0.02426573   -0.00092675
     atom    2 type  1   force =    -0.11364792   -0.01381778    0.00008627
     atom    3 type  1   force =    -0.11064029    0.01140778    0.00423173
     atom    4 type  1   force =     0.11710916   -0.01271765    0.00068710
     atom    5 type  1   force =     0.12270387    0.00586694    0.01497766
     atom    6 type  2   force =     0.00039786   -0.01163576    0.01229140
     atom    7 type  2   force =    -0.02278526    0.01161027   -0.01461151
     atom    8 type  3   force =    -0.10154133    0.00224967   -0.00523196
     atom    9 type  3   force =     0.10280271   -0.00108722   -0.00522866
     atom   10 type  3   force =    -0.02250123   -0.03276166   -0.05939799
     atom   11 type  3   force =    -0.01606507   -0.03870208    0.05386390
     atom   12 type  3   force =    -0.01853984    0.03532326   -0.05402999
     atom   13 type  3   force =    -0.02205737    0.02627489    0.05295071
     atom   14 type  3   force =     0.01888934   -0.02944577   -0.05727643
     atom   15 type  3   force =     0.01896178   -0.03378991    0.05477269
     atom   16 type  3   force =     0.01703475    0.03620355   -0.05223793
     atom   17 type  3   force =     0.05923927    0.02734277    0.04493933
     atom   18 type  4   force =     0.00030946    0.02453221   -0.00068639
     atom   19 type  4   force =    -0.12728843   -0.00481776   -0.11671334
     atom   20 type  4   force =    -0.12444926    0.00686563    0.11405908
     atom   21 type  4   force =     0.12575381   -0.00449871   -0.11471603
     atom   22 type  4   force =     0.15086319    0.01291114    0.11270324
     atom   23 type  5   force =    -0.05296260    0.00695189    0.01549388
     The non-local contrib.  to forces
     atom    1 type  1   force =    -0.00077295   -0.01214197    0.02483467
     atom    2 type  1   force =    -0.24422732   -0.16290993    0.01476150
     atom    3 type  1   force =    -0.23592510    0.15529828   -0.02067954
     atom    4 type  1   force =     0.24680409   -0.15342424    0.02412159
     atom    5 type  1   force =     0.25791379    0.12776128    0.01498087
     atom    6 type  2   force =    -0.00503322   -0.03657026   -0.05564263
     atom    7 type  2   force =    -0.03290949    0.05987984    0.05054022
     atom    8 type  3   force =    -0.26116870    0.00918813    0.00166751
     atom    9 type  3   force =     0.28576982    0.02450695    0.03078235
     atom   10 type  3   force =    -0.20726487    0.00335546   -0.19949342
     atom   11 type  3   force =    -0.21041001    0.00199266    0.18859763
     atom   12 type  3   force =    -0.20087951   -0.01782287   -0.17654532
     atom   13 type  3   force =    -0.20413316   -0.00818233    0.19659169
     atom   14 type  3   force =     0.20156440    0.00510237   -0.20918357
     atom   15 type  3   force =     0.23133072    0.01383205    0.18349127
     atom   16 type  3   force =     0.19818370   -0.01723895   -0.18469742
     atom   17 type  3   force =     0.21873353   -0.02533010    0.15717095
     atom   18 type  4   force =     0.00016210    0.04389488   -0.05969296
     atom   19 type  4   force =     0.06122155    0.00705506    0.07618160
     atom   20 type  4   force =     0.04799164   -0.01650609   -0.06343375
     atom   21 type  4   force =    -0.05757713    0.01429405    0.07498492
     atom   22 type  4   force =    -0.06333654    0.00500488   -0.08036180
     atom   23 type  5   force =    -0.02159468    0.00370056    0.00575890
     The ionic contribution  to forces
     atom    1 type  1   force =    -0.21044686   -4.65732367   13.69368098
     atom    2 type  1   force =   -47.08855882   -6.08307010    0.73104270
     atom    3 type  1   force =   -47.10307561    6.12938073   -0.79482618
     atom    4 type  1   force =    46.86157543   -6.02081280    0.64540698
     atom    5 type  1   force =    46.44669095    6.42607735   -1.23851000
     atom    6 type  2   force =    -0.11971150   -3.55343772  -13.66843432
     atom    7 type  2   force =    -0.65821124    3.49505720   13.56172536
     atom    8 type  3   force =   -60.44049645    0.01851177   -0.14024524
     atom    9 type  3   force =    59.90554814   -0.30735551   -0.48444193
     atom   10 type  3   force =   -43.38607338   -2.06628214  -22.60699039
     atom   11 type  3   force =   -42.52243038   -0.80948092   21.64648483
     atom   12 type  3   force =   -42.59602090    0.80079940  -21.66543401
     atom   13 type  3   force =   -43.48069494    2.21456852   22.64986432
     atom   14 type  3   force =    43.25344854   -2.05383367  -22.61747126
     atom   15 type  3   force =    42.23863681   -0.72875822   21.71940951
     atom   16 type  3   force =    42.41316711    0.83195519  -21.68970039
     atom   17 type  3   force =    42.45823193    2.69889651   23.14031690
     atom   18 type  4   force =    -0.18527230    4.31050697  -13.71937188
     atom   19 type  4   force =   -42.97169207    0.93231287  -25.07545616
     atom   20 type  4   force =   -43.04789716   -1.00760168   25.10280589
     atom   21 type  4   force =    42.82036976    0.89645544  -25.09095045
     atom   22 type  4   force =    42.39686877   -1.43380846   25.41576196
     atom   23 type  5   force =     5.01604417   -0.03275702    0.48533280
     The local contribution  to forces
     atom    1 type  1   force =     0.21946663    4.64559907  -13.72124945
     atom    2 type  1   force =    47.24115695    6.23524954   -0.73895126
     atom    3 type  1   force =    47.25104887   -6.27567367    0.82821494
     atom    4 type  1   force =   -47.00339843    6.16516140   -0.66179726
     atom    5 type  1   force =   -46.59757588   -6.54985455    1.24974207
     atom    6 type  2   force =     0.13680872    3.58425962   13.74921610
     atom    7 type  2   force =     0.68002929   -3.54080513  -13.62507004
     atom    8 type  3   force =    60.64838756   -0.02728793    0.13847597
     atom    9 type  3   force =   -60.13679942    0.27484935    0.44670105
     atom   10 type  3   force =    43.60291785    2.02612500   22.77133091
     atom   11 type  3   force =    42.75302114    0.76085569  -21.80897740
     atom   12 type  3   force =    42.81044553   -0.74451971   21.81216415
     atom   13 type  3   force =    43.69743301   -2.17206642  -22.82020719
     atom   14 type  3   force =   -43.45171600    2.01499841   22.79051506
     atom   15 type  3   force =   -42.46976023    0.66773526  -21.87318320
     atom   16 type  3   force =   -42.61119596   -0.77529373   21.84309121
     atom   17 type  3   force =   -42.61344692   -2.64881250  -23.28542028
     atom   18 type  4   force =     0.19608265   -4.33369767   13.78771215
     atom   19 type  4   force =    42.80481006   -0.94401186   24.90021718
     atom   20 type  4   force =    42.89557085    1.03066690  -24.94329823
     atom   21 type  4   force =   -42.64373609   -0.91445785   24.91939719
     atom   22 type  4   force =   -42.19412334    1.44578298  -25.23815692
     atom   23 type  5   force =    -5.05088669    0.03926132   -0.47165601
     The core correction contribution to forces
     atom    1 type  1   force =    -0.00001549    0.00120572   -0.00129362
     atom    2 type  1   force =    -0.01246203   -0.00225694    0.00073017
     atom    3 type  1   force =    -0.01249531    0.00208956   -0.00143218
     atom    4 type  1   force =     0.01298877   -0.00088095    0.00203438
     atom    5 type  1   force =     0.01076655    0.00299757   -0.00101220
     atom    6 type  2   force =     0.00028146    0.00171313    0.00226812
     atom    7 type  2   force =     0.00171577   -0.00314781   -0.00202424
     atom    8 type  3   force =    -0.03333340    0.00118294    0.00023482
     atom    9 type  3   force =     0.03359882    0.00022135    0.00181406
     atom   10 type  3   force =    -0.02230101    0.00999203   -0.01625947
     atom   11 type  3   force =    -0.02284939    0.00927329    0.01667507
     atom   12 type  3   force =    -0.02136883   -0.00962625   -0.01660054
     atom   13 type  3   force =    -0.02116397   -0.01035427    0.01577493
     atom   14 type  3   force =     0.02074340    0.01064225   -0.01610907
     atom   15 type  3   force =     0.02420452    0.00919913    0.01605423
     atom   16 type  3   force =     0.02117553   -0.01027197   -0.01654916
     atom   17 type  3   force =     0.01828934   -0.00406743    0.01678521
     atom   18 type  4   force =     0.00004025   -0.00241833    0.00306373
     atom   19 type  4   force =    -0.00977670    0.00013443   -0.00968580
     atom   20 type  4   force =    -0.00909404    0.00060466    0.00898570
     atom   21 type  4   force =     0.00960842   -0.00027171   -0.00966624
     atom   22 type  4   force =     0.01032120   -0.00023405    0.00954975
     atom   23 type  5   force =     0.00000000    0.00000000    0.00000000
     The Hubbard contrib.    to forces
     atom    1 type  1   force =     0.00000000    0.00000000    0.00000000
     atom    2 type  1   force =     0.00000000    0.00000000    0.00000000
     atom    3 type  1   force =     0.00000000    0.00000000    0.00000000
     atom    4 type  1   force =     0.00000000    0.00000000    0.00000000
     atom    5 type  1   force =     0.00000000    0.00000000    0.00000000
     atom    6 type  2   force =     0.00000000    0.00000000    0.00000000
     atom    7 type  2   force =     0.00000000    0.00000000    0.00000000
     atom    8 type  3   force =     0.00000000    0.00000000    0.00000000
     atom    9 type  3   force =     0.00000000    0.00000000    0.00000000
     atom   10 type  3   force =     0.00000000    0.00000000    0.00000000
     atom   11 type  3   force =     0.00000000    0.00000000    0.00000000
     atom   12 type  3   force =     0.00000000    0.00000000    0.00000000
     atom   13 type  3   force =     0.00000000    0.00000000    0.00000000
     atom   14 type  3   force =     0.00000000    0.00000000    0.00000000
     atom   15 type  3   force =     0.00000000    0.00000000    0.00000000
     atom   16 type  3   force =     0.00000000    0.00000000    0.00000000
     atom   17 type  3   force =     0.00000000    0.00000000    0.00000000
     atom   18 type  4   force =     0.00000000    0.00000000    0.00000000
     atom   19 type  4   force =     0.00000000    0.00000000    0.00000000
     atom   20 type  4   force =     0.00000000    0.00000000    0.00000000
     atom   21 type  4   force =     0.00000000    0.00000000    0.00000000
     atom   22 type  4   force =     0.00000000    0.00000000    0.00000000
     atom   23 type  5   force =     0.00000000    0.00000000    0.00000000
     The SCF correction term to forces
     atom    1 type  1   force =    -0.00884930   -0.00165794    0.00342372
     atom    2 type  1   force =    -0.00858807   -0.00088340   -0.00717380
     atom    3 type  1   force =    -0.00922452    0.00025982   -0.00672226
     atom    4 type  1   force =     0.00010793   -0.00281413   -0.00875554
     atom    5 type  1   force =     0.00587709   -0.00116777   -0.00990003
     atom    6 type  2   force =    -0.01097897   -0.00765359   -0.01479283
     atom    7 type  2   force =    -0.01244096    0.00057311    0.00054024
     atom    8 type  3   force =    -0.01396171    0.00060171   -0.00504197
     atom    9 type  3   force =     0.01565398    0.00663758    0.00023886
     atom   10 type  3   force =    -0.00881120   -0.00600507   -0.00766257
     atom   11 type  3   force =    -0.01242781   -0.00139587    0.01140682
     atom   12 type  3   force =    -0.00974750    0.00643964   -0.00729122
     atom   13 type  3   force =    -0.01252969    0.00225632    0.01125001
     atom   14 type  3   force =    -0.00418238   -0.00640820   -0.00470455
     atom   15 type  3   force =    -0.00448142    0.00414880    0.00932393
     atom   16 type  3   force =    -0.00332700    0.00699995   -0.00405913
     atom   17 type  3   force =    -0.02159998    0.00660323    0.01640960
     atom   18 type  4   force =    -0.00973462    0.00619328   -0.01207438
     atom   19 type  4   force =    -0.01088264   -0.00036132   -0.00764711
     atom   20 type  4   force =    -0.01005193   -0.00035123    0.00932252
     atom   21 type  4   force =    -0.00194252   -0.00057170   -0.00815841
     atom   22 type  4   force =     0.00210173   -0.00388728    0.00623329
     atom   23 type  5   force =     0.00444323   -0.00330604   -0.00361877

     Total force =     0.491887     Total SCF correction =     0.066677
     SCF correction compared to forces is large: reduce conv_thr to get better values

     Entering Dynamics:    iteration =     3
                           time      =   0.0006 pico-seconds


ATOMIC_POSITIONS (angstrom)
Hf            2.6704005188        2.8268326565        6.6036809362
Hf            1.2533625983        1.2859965226        5.0581819873
Hf            1.2558592553        7.3895234767        5.0877846050
Hf            4.0874409790        1.2859965249        5.0581817555
Hf            4.0849473065        7.3895218613        5.0877864877
[...]
   -29.6352 -29.5511 -29.5265 -29.5131 -29.4145 -29.3944 -29.3807 -29.2812
   -29.2699 -29.2139 -29.1960 -29.1780 -29.1387 -29.1334 -29.1173 -29.1017
   -29.0859 -29.0383 -29.0367 -28.9289 -28.8868 -28.8765 -28.8676 -28.8236
   -28.8178 -28.7897 -28.6887 -28.6637 -26.1264 -25.9191 -25.6116 -25.5314
   -25.2766 -25.1509 -25.1175 -25.0169 -24.8916 -24.8214 -24.8034 -24.5870
   -24.4693 -24.3997 -24.3443 -24.3121 -24.2391 -24.1949 -23.6855 -23.6268
   -23.5491 -22.1456 -21.8973 -21.7990 -21.7774 -21.5956 -21.5652 -21.5436
   -21.5292 -21.5149 -21.4821 -21.3275 -21.3233 -20.1004 -19.9055 -19.7702
    -0.5352   0.4879   1.1175   1.2001   1.2786   1.4675   1.5912   1.6852
     1.7466   1.8136   1.9547   2.0532   2.1863   2.5173   2.6089   2.7218
     2.7492   2.8250   3.0501   3.1400   3.2027   3.3262   3.3337   3.4049
     3.4362   3.5989   3.6398   3.7589   3.7821   3.8079   3.8366   3.9235
     4.0408   4.1225   4.1773   4.2490   4.2728   4.3841   4.4173   4.4369
     4.5287   4.6364   4.7026   4.7401   4.9233   4.9611   5.0894   5.1009
     5.1283   5.1784   5.2581   5.3259   5.4073   5.5832   5.6171   5.6819
     5.6937   5.7231   5.8975   5.9983   6.0535   6.1419   6.1610   6.1896
     6.2765   6.3337   6.3988   6.4360   6.5179   6.5767   6.6123   6.7738
     6.7926   6.8587   7.0619   7.1033   7.2129   7.2665   7.3312

     the Fermi energy is     5.2886 ev

!    total energy              =   -2943.03900205 Ry
     estimated scf accuracy    <       0.00091130 Ry
     smearing contrib. (-TS)   =      -0.09340715 Ry
     internal energy E=F+TS    =   -2942.94559490 Ry

     total magnetization       =     0.00 Bohr mag/cell
     absolute magnetization    =     0.00 Bohr mag/cell

     convergence has been achieved in   5 iterations

     negative rho (up, down):  9.083E-01 9.083E-01

     Forces acting on atoms (cartesian axes, Ry/au):

     atom    1 type  1   force =     0.00188692   -0.02400375    0.00801549
     atom    2 type  1   force =    -0.11358690   -0.01346580    0.00366397
     atom    3 type  1   force =    -0.11202382    0.01177399    0.00549524
     atom    4 type  1   force =     0.12041178   -0.01373668    0.00372936
     atom    5 type  1   force =     0.11639464    0.00828967    0.01296626
     atom    6 type  2   force =     0.00196319   -0.00974915    0.01338035
     atom    7 type  2   force =    -0.01435929    0.01178343   -0.00944295
     atom    8 type  3   force =    -0.10221462    0.00619977   -0.00456346
     atom    9 type  3   force =     0.09769196   -0.00811311   -0.01641756
     atom   10 type  3   force =    -0.02523292   -0.03196753   -0.06156280
     atom   11 type  3   force =    -0.01864787   -0.04399285    0.05174466
     atom   12 type  3   force =    -0.01946953    0.03461746   -0.05560769
     atom   13 type  3   force =    -0.04792870    0.02159405    0.04367171
     atom   14 type  3   force =     0.02095735   -0.02925786   -0.05884934
     atom   15 type  3   force =     0.01836809   -0.01719853    0.04987011
     atom   16 type  3   force =     0.01852246    0.03573176   -0.05559144
     atom   17 type  3   force =    -0.11396423    0.10732865    0.13259827
     atom   18 type  4   force =    -0.00145357    0.02434887   -0.00014129
     atom   19 type  4   force =    -0.12690570   -0.00512256   -0.11750822
     atom   20 type  4   force =    -0.12291907    0.00649110    0.11440992
     atom   21 type  4   force =     0.12601189   -0.00514133   -0.11450920
     atom   22 type  4   force =     0.13913416    0.01308089    0.11054403
     atom   23 type  5   force =     0.15736378   -0.07949049   -0.05589541
     The non-local contrib.  to forces
     atom    1 type  1   force =    -0.00032773   -0.01044135    0.02528869
     atom    2 type  1   force =    -0.23797900   -0.16552614    0.01735266
     atom    3 type  1   force =    -0.23575203    0.16056859   -0.02854574
     atom    4 type  1   force =     0.24047354   -0.15906311    0.01924148
     atom    5 type  1   force =     0.26456285    0.14103028    0.00236024
     atom    6 type  2   force =    -0.00689572   -0.03905914   -0.06316581
     atom    7 type  2   force =    -0.02875133    0.06311780    0.05629073
     atom    8 type  3   force =    -0.25823579    0.00923386   -0.00274132
     atom    9 type  3   force =     0.26778348   -0.00226312   -0.01071256
     atom   10 type  3   force =    -0.21100169   -0.00067561   -0.20211715
     atom   11 type  3   force =    -0.22363958    0.00618016    0.18588202
     atom   12 type  3   force =    -0.19578305   -0.01645927   -0.18090085
     atom   13 type  3   force =    -0.16119751    0.00229245    0.20949527
     atom   14 type  3   force =     0.20317713    0.00464927   -0.20290155
     atom   15 type  3   force =     0.24023618    0.01792613    0.18846846
     atom   16 type  3   force =     0.20148985   -0.01794075   -0.17676281
     atom   17 type  3   force =    -0.01784006    0.08278834    0.25878209
     atom   18 type  4   force =     0.00577870    0.04134624   -0.05613495
     atom   19 type  4   force =     0.06328787    0.00642212    0.07734154
     atom   20 type  4   force =     0.04784373   -0.00809134   -0.06412287
     atom   21 type  4   force =    -0.05912358    0.01231021    0.07441816
     atom   22 type  4   force =    -0.05918382    0.00455068   -0.07184027
     atom   23 type  5   force =    -0.08183849    0.02620931    0.02554446
     The ionic contribution  to forces
     atom    1 type  1   force =    -0.15575030   -4.53271100   13.62496967
     atom    2 type  1   force =   -47.10080934   -6.04152179    0.69598287
     atom    3 type  1   force =   -47.11395271    6.08474685   -0.85156097
     atom    4 type  1   force =    46.91537475   -5.95821581    0.58921662
     atom    5 type  1   force =    46.70456371    6.16237968   -1.22267739
     atom    6 type  2   force =    -0.08503748   -3.48964974  -13.62460139
     atom    7 type  2   force =    -0.47364172    3.26188730   13.31779927
     atom    8 type  3   force =   -60.40114590    0.02260786   -0.15067370
     atom    9 type  3   force =    60.15695665   -0.11207059   -0.31588738
     atom   10 type  3   force =   -43.40045842   -2.02682882  -22.53199384
     atom   11 type  3   force =   -42.63335989   -0.67485096   21.58584351
     atom   12 type  3   force =   -42.62499904    0.77334246  -21.56401332
     atom   13 type  3   force =   -43.84912535    2.13335980   22.54518477
     atom   14 type  3   force =    43.26886801   -1.99536001  -22.49609597
     atom   15 type  3   force =    42.29573518   -0.30293393   21.59452574
     atom   16 type  3   force =    42.44254970    0.78495340  -21.48024258
     atom   17 type  3   force =    40.28084692    2.93689149   23.36837405
     atom   18 type  4   force =    -0.11738318    4.25646706  -13.63980913
     atom   19 type  4   force =   -42.96336843    0.92325855  -24.98196304
     atom   20 type  4   force =   -43.05939589   -1.04717097   25.01048748
     atom   21 type  4   force =    42.83693021    0.88802443  -24.94429430
     atom   22 type  4   force =    42.59190089   -1.44467865   25.08911242
     atom   23 type  5   force =     6.48470164   -0.60192662    0.38231661
     The local contribution  to forces
     atom    1 type  1   force =     0.18682346    4.51628698  -13.62623268
     atom    2 type  1   force =    47.25308295    6.19469608   -0.69212354
     atom    3 type  1   force =    47.26537290   -6.23739492    0.90781932
     atom    4 type  1   force =   -47.03096677    6.10772125   -0.58786955
     atom    5 type  1   force =   -46.84970098   -6.30012791    1.24594708
     atom    6 type  2   force =     0.12920646    3.52218264   13.71908536
     atom    7 type  2   force =     0.50483659   -3.31709248  -13.37703888
     atom    8 type  3   force =    60.61346786   -0.02422672    0.16912048
     atom    9 type  3   force =   -60.33810489    0.10757124    0.32836659
     atom   10 type  3   force =    43.62467140    1.98901828   22.68851786
     atom   11 type  3   force =    42.88383320    0.60862542  -21.74002950
     atom   12 type  3   force =    42.83612802   -0.71686247   21.70597245
     atom   13 type  3   force =    43.98471447   -2.09999449  -22.73516296
     atom   14 type  3   force =   -43.44680868    1.96212565   22.65827162
     atom   15 type  3   force =   -42.52637581    0.27825939  -21.75690890
     atom   16 type  3   force =   -42.62304020   -0.72712109   21.62339894
     atom   17 type  3   force =   -40.35232505   -2.91791603  -23.53302916
     atom   18 type  4   force =     0.14064648   -4.27671414   13.71423323
     atom   19 type  4   force =    42.80168627   -0.93436352   24.79479496
     atom   20 type  4   force =    42.91675264    1.06439742  -24.84524198
     atom   21 type  4   force =   -42.63811639   -0.90797895   24.76942418
     atom   22 type  4   force =   -42.38300701    1.44257264  -24.92560272
     atom   23 type  5   force =    -6.23943213    0.49512498   -0.46338852
     The core correction contribution to forces
     atom    1 type  1   force =    -0.00029910    0.00113589   -0.00211275
     atom    2 type  1   force =    -0.01232489   -0.00252868    0.00016518
     atom    3 type  1   force =    -0.01247086    0.00323266   -0.00254793
     atom    4 type  1   force =     0.01219314   -0.00113003   -0.00012461
     atom    5 type  1   force =     0.01351623    0.00139478   -0.00046558
     atom    6 type  2   force =     0.00046794    0.00191136    0.00275086
     atom    7 type  2   force =     0.00121183   -0.00341650   -0.00233998
     atom    8 type  3   force =    -0.03310054    0.00121205   -0.00023830
     atom    9 type  3   force =     0.03320371   -0.00072247   -0.00202628
     atom   10 type  3   force =    -0.02213564    0.01002835   -0.01641670
     atom   11 type  3   force =    -0.02479624    0.00932091    0.01576401
     atom   12 type  3   force =    -0.02143699   -0.00978750   -0.01687468
     atom   13 type  3   force =    -0.01735536   -0.01110592    0.01769711
     atom   14 type  3   force =     0.02109540    0.00985363   -0.01649267
     atom   15 type  3   force =     0.02491561    0.00912524    0.01636966
     atom   16 type  3   force =     0.02148701   -0.01050203   -0.01631246
     atom   17 type  3   force =     0.00220023    0.00397266    0.02642773
     atom   18 type  4   force =    -0.00014535   -0.00230340    0.00288546
     atom   19 type  4   force =    -0.00981144    0.00018847   -0.00979188
     atom   20 type  4   force =    -0.00902808    0.00019542    0.00906263
     atom   21 type  4   force =     0.00977100   -0.00020835   -0.00961798
     atom   22 type  4   force =     0.01048637   -0.00023166    0.00931461
     atom   23 type  5   force =     0.00000000    0.00000000    0.00000000
     The Hubbard contrib.    to forces
     atom    1 type  1   force =     0.00000000    0.00000000    0.00000000
     atom    2 type  1   force =     0.00000000    0.00000000    0.00000000
     atom    3 type  1   force =     0.00000000    0.00000000    0.00000000
     atom    4 type  1   force =     0.00000000    0.00000000    0.00000000
     atom    5 type  1   force =     0.00000000    0.00000000    0.00000000
     atom    6 type  2   force =     0.00000000    0.00000000    0.00000000
     atom    7 type  2   force =     0.00000000    0.00000000    0.00000000
     atom    8 type  3   force =     0.00000000    0.00000000    0.00000000
     atom    9 type  3   force =     0.00000000    0.00000000    0.00000000
     atom   10 type  3   force =     0.00000000    0.00000000    0.00000000
     atom   11 type  3   force =     0.00000000    0.00000000    0.00000000
     atom   12 type  3   force =     0.00000000    0.00000000    0.00000000
     atom   13 type  3   force =     0.00000000    0.00000000    0.00000000
     atom   14 type  3   force =     0.00000000    0.00000000    0.00000000
     atom   15 type  3   force =     0.00000000    0.00000000    0.00000000
     atom   16 type  3   force =     0.00000000    0.00000000    0.00000000
     atom   17 type  3   force =     0.00000000    0.00000000    0.00000000
     atom   18 type  4   force =     0.00000000    0.00000000    0.00000000
     atom   19 type  4   force =     0.00000000    0.00000000    0.00000000
     atom   20 type  4   force =     0.00000000    0.00000000    0.00000000
     atom   21 type  4   force =     0.00000000    0.00000000    0.00000000
     atom   22 type  4   force =     0.00000000    0.00000000    0.00000000
     atom   23 type  5   force =     0.00000000    0.00000000    0.00000000
     The SCF correction term to forces
     atom    1 type  1   force =    -0.02553891    0.00168928   -0.01265726
     atom    2 type  1   force =    -0.01253612    0.00137827   -0.01647303
     atom    3 type  1   force =    -0.01220062    0.00058436   -0.01842927
     atom    4 type  1   force =    -0.01364239   -0.00308542   -0.01549442
     atom    5 type  1   force =    -0.01352667    0.00357637   -0.01095792
     atom    6 type  2   force =    -0.03275751   -0.00517073   -0.01944850
     atom    7 type  2   force =    -0.01499417    0.00725086   -0.00291392
     atom    8 type  3   force =    -0.02017975   -0.00266373   -0.01879045
     atom    9 type  3   force =    -0.01912650   -0.00066463   -0.01491776
     atom   10 type  3   force =    -0.01328808   -0.00354618    0.00168720
     atom   11 type  3   force =    -0.01766487    0.00669516    0.00552479
     atom   12 type  3   force =    -0.01035796    0.00434780    0.00144888
     atom   13 type  3   force =    -0.00194445   -0.00299424    0.00769770
     atom   14 type  3   force =    -0.02235401   -0.01056284   -0.00039061
     atom   15 type  3   force =    -0.01312256   -0.01961181    0.00865532
     atom   16 type  3   force =    -0.02094340    0.00630579   -0.00443237
     atom   17 type  3   force =    -0.02382577    0.00155574    0.01328374
     atom   18 type  4   force =    -0.02732973    0.00551665   -0.02007572
     atom   19 type  4   force =    -0.01567946   -0.00066463    0.00335037
     atom   20 type  4   force =    -0.01607096   -0.00287588    0.00546483
     atom   21 type  4   force =    -0.02042885    0.00267488   -0.00319909
     atom   22 type  4   force =    -0.01804178    0.01083142    0.01080016
     atom   23 type  5   force =    -0.00304674    0.00106539    0.00087222

     Total force =     0.551562     Total SCF correction =     0.107765
     SCF correction compared to forces is large: reduce conv_thr to get better values

     Entering Dynamics:    iteration =    15
                           time      =   0.0030 pico-seconds


ATOMIC_POSITIONS (angstrom)
Hf            2.6719828006        2.8255537101        6.6025520160
Hf            1.2542530246        1.2847800394        5.0570375641
Hf            1.2567619326        7.3884591457        5.0866538632
Hf            4.0897748495        1.2847696835        5.0570292256
Hf            4.0872933431        7.3884376167        5.0867185929
Nb            2.6720373346        2.7953714782        3.5143418853
Nb            2.6718484502        5.8751714604        6.6334837290
Ta            1.2107290503        4.3395264104        5.0696616474
Ta            4.1332852924        4.3394848967        5.0696422911
Ta            1.3091171033        1.3124882828        2.0569835468
Ta            1.3046738137        1.3067351216        8.0935060917
Ta            1.3059004630        7.3746307390        2.0444705872
Ta            1.3096516065        7.3638374279        8.0849299603
Ta            4.0348859075        1.3125053535        2.0569932890
Ta            4.0393444574        1.3067436202        8.0935176314
Ta            4.0381099039        7.3746453938        2.0444795938
Ta            4.0035402804        7.3801810172        8.0997830889
Zr            2.6719958103        5.8652003041        3.5259175698
Zr            1.2442335059        4.3205992543        1.9970991489
Zr            1.2408184731        4.3527790220        8.1498138805
Zr            4.0997688804        4.3205995562        1.9971125895
Zr            4.1033979582        4.3528461187        8.1497983919
H             5.6847845724        6.7297974031        7.6005332369


     kinetic energy (Ekin) =          18.26124748 Ry
     temperature           =       87370.39204049 K 
     Ekin + Etot (const)   =       -2924.77775458 Ry

     Linear momentum :    0.0000000000   -0.0000000000    0.0000000000

     The maximum number of steps has been reached.

     End of molecular dynamics calculation

     diffusion coefficients :
     atom     1   D =       0.00000005 cm^2/s
     atom     2   D =       0.00000003 cm^2/s
     atom     3   D =       0.00000003 cm^2/s
     atom     4   D =       0.00000007 cm^2/s
     atom     5   D =       0.00000006 cm^2/s
     atom     6   D =       0.00000004 cm^2/s
     atom     7   D =       0.00000004 cm^2/s
     atom     8   D =       0.00000003 cm^2/s
     atom     9   D =       0.00000006 cm^2/s
     atom    10   D =       0.00000005 cm^2/s
     atom    11   D =       0.00000004 cm^2/s
     atom    12   D =       0.00000004 cm^2/s
     atom    13   D =       0.00000004 cm^2/s
     atom    14   D =       0.00000006 cm^2/s
     atom    15   D =       0.00000005 cm^2/s
     atom    16   D =       0.00000005 cm^2/s
     atom    17   D =       0.00000680 cm^2/s
     atom    18   D =       0.00000004 cm^2/s
     atom    19   D =       0.00000006 cm^2/s
     atom    20   D =       0.00000001 cm^2/s
     atom    21   D =       0.00000013 cm^2/s
     atom    22   D =       0.00000009 cm^2/s
     atom    23   D =       0.01187156 cm^2/s

     < D > =       0.00051650 cm^2/s

     Writing all to output data dir outdir/pwscf.save/

     init_run     :     40.96s CPU     41.60s WALL (       1 calls)
     electrons    :   5460.67s CPU   5543.04s WALL (      15 calls)
     update_pot   :     49.87s CPU     50.07s WALL (      14 calls)
     forces       :    370.56s CPU    375.73s WALL (      15 calls)

     Called by init_run:
     wfcinit      :     30.94s CPU     31.21s WALL (       1 calls)
     potinit      :      2.53s CPU      2.57s WALL (       1 calls)
     hinit0       :      3.50s CPU      3.54s WALL (       1 calls)

     Called by electrons:
     c_bands      :   4429.36s CPU   4458.61s WALL (      84 calls)
     sum_band     :    741.72s CPU    771.02s WALL (      84 calls)
     v_of_rho     :     31.76s CPU     32.87s WALL (      99 calls)
     newd         :    304.81s CPU    330.80s WALL (      99 calls)
     mix_rho      :      2.58s CPU      2.66s WALL (      84 calls)

     Called by c_bands:
     init_us_2    :      6.75s CPU      6.80s WALL (     368 calls)
     init_us_2:cp :      6.75s CPU      6.80s WALL (     368 calls)
     regterg      :   4394.61s CPU   4423.68s WALL (     168 calls)

     Called by *egterg:
     rdiaghg      :     60.10s CPU     60.75s WALL (    1305 calls)
     h_psi        :   1809.40s CPU   1830.20s WALL (    1335 calls)
     s_psi        :    630.60s CPU    631.41s WALL (    1335 calls)
     g_psi        :      1.42s CPU      1.43s WALL (    1165 calls)

     Called by h_psi:
     h_psi:calbec :    809.26s CPU    810.76s WALL (    1335 calls)
     vloc_psi     :    365.28s CPU    383.65s WALL (    1335 calls)
     add_vuspsi   :    631.98s CPU    632.91s WALL (    1335 calls)

     General routines
     calbec       :   1331.02s CPU   1333.33s WALL (    1623 calls)
     fft          :     24.60s CPU     26.04s WALL (    1724 calls)
     ffts         :      0.69s CPU      0.77s WALL (      84 calls)
     fftw         :    359.29s CPU    377.51s WALL (   89808 calls)

     Parallel routines

     PWSCF        :      1h39m CPU      1h41m WALL


   This run was terminated on:   6:45:24  10Jun2023            

=------------------------------------------------------------------------------=
   JOB DONE.
=------------------------------------------------------------------------------=
