
     Program PWSCF v.7.2 starts on 10Jun2023 at  4:47:30 

     This program is part of the open-source Quantum ESPRESSO suite
     for quantum simulation of materials; please cite
         "P. Giannozzi et al., J. Phys.:Condens. Matter 21 395502 (2009);
         "P. Giannozzi et al., J. Phys.:Condens. Matter 29 465901 (2017);
         "P. Giannozzi et al., J. Chem. Phys. 152 154105 (2020);
          URL http://www.quantum-espresso.org", 
     in publications or presentations arising from this work. More details at
     http://www.quantum-espresso.org/quote

     Parallel version (MPI), running on    12 processors

     MPI processes distributed on     1 nodes
     76467 MiB available memory on the printing compute node when the environment starts

     Reading input from md_Hf5Nb2Ta10Zr5H_15steps_1000eV_incident45_polar45_12cores.in
Warning: card &CELL ignored
Warning: card / ignored

     Current dimensions of program PWSCF are:
     Max number of different atomic species (ntypx) = 10
     Max number of k-points (npk) =  40000
     Max angular momentum in pseudopotentials (lmaxx) =  4

     gamma-point specific algorithms are used

     R & G space division:  proc/nbgrp/npool/nimage =      12
     Subspace diagonalization in iterative solution of the eigenvalue problem:
     one sub-group per band group will be used
     custom distributed-memory algorithm (size of sub-group:  2*  2 procs)


     Parallelization info
     --------------------
     sticks:   dense  smooth     PW     G-vecs:    dense   smooth      PW
     Min        1118    1118    279                99774    99774   12468
     Max        1120    1120    280                99784    99784   12476
     Sum       13435   13435   3359              1197347  1197347  149669

     Using Slab Decomposition



     bravais-lattice index     =            0
     lattice parameter (alat)  =      21.4295  a.u.
     unit-cell volume          =    6741.9400 (a.u.)^3
     number of atoms/cell      =           23
     number of atomic types    =            5
     number of electrons       =       277.00
     number of Kohn-Sham states=          167
     kinetic-energy cutoff     =     120.0000  Ry
     charge density cutoff     =     480.0000  Ry
     scf convergence threshold =      1.0E-03
     mixing beta               =       0.7000
     number of iterations used =            8  TF        mixing
     energy convergence thresh.=      0.0E+00
     force convergence thresh. =      0.0E+00
     Exchange-correlation=  SLA  PW   PBX  PBC
                           (   1   4   3   4   0   0   0)
     nstep                     =           15


     celldm(1)=  21.429494  celldm(2)=   0.000000  celldm(3)=   0.000000
     celldm(4)=   0.000000  celldm(5)=   0.000000  celldm(6)=   0.000000

     crystal axes: (cart. coord. in units of alat)
               a(1) = (   1.000000   0.000000   0.000000 )  
               a(2) = (   0.000000   0.765432   0.000000 )  
               a(3) = (   0.000000   0.000000   0.895040 )  

     reciprocal axes: (cart. coord. in units 2 pi/alat)
               b(1) = (  1.000000  0.000000  0.000000 )  
               b(2) = (  0.000000  1.306452  0.000000 )  
               b(3) = (  0.000000  0.000000  1.117268 )  


     PseudoPot. # 1 for Hf read from file:
     q-e/pseudo/hf_pbe_v1.uspp.F.UPF
     MD5 check sum: 8ee9378dfe14276e333edf04c5e4aa26
     Pseudo is Ultrasoft + core correction, Zval = 12.0
     Generated by new atomic code, or converted to UPF format
     Using radial grid of  921 points,  8 beta functions with: 
                l(1) =   0
                l(2) =   0
                l(3) =   0
                l(4) =   1
                l(5) =   1
                l(6) =   2
                l(7) =   2
                l(8) =   3
     Q(r) pseudized with  6 coefficients,  rinner =    1.200   1.200   1.200
                                                       1.200   1.200   1.200
                                                       1.200

     PseudoPot. # 2 for Nb read from file:
     q-e/pseudo/nb_pbe_v1.uspp.F.UPF
     MD5 check sum: 573aab8a2fa660278ed4a62cd769473f
     Pseudo is Ultrasoft + core correction, Zval = 13.0
     Generated by new atomic code, or converted to UPF format
     Using radial grid of  887 points,  6 beta functions with: 
                l(1) =   0
                l(2) =   0
                l(3) =   1
                l(4) =   1
                l(5) =   2
                l(6) =   2
     Q(r) pseudized with  6 coefficients,  rinner =    1.000   1.000   1.000
                                                       1.000   1.000

     PseudoPot. # 3 for Ta read from file:
     q-e/pseudo/ta_pbe_v1.uspp.F.UPF
     MD5 check sum: f8bbe9446314a3b8ea5d9f3e3836c939
     Pseudo is Ultrasoft + core correction, Zval = 13.0
     Generated by new atomic code, or converted to UPF format
     Using radial grid of  921 points,  7 beta functions with: 
                l(1) =   0
                l(2) =   0
                l(3) =   1
                l(4) =   1
                l(5) =   2
                l(6) =   2
                l(7) =   3
     Q(r) pseudized with  6 coefficients,  rinner =    1.300   1.300   1.300
                                                       1.300   1.300   1.300
                                                       1.300

     PseudoPot. # 4 for Zr read from file:
     q-e/pseudo/zr_pbe_v1.uspp.F.UPF
     MD5 check sum: 5db81b1e868ab7776c4564c113de050b
     Pseudo is Ultrasoft + core correction, Zval = 12.0
     Generated by new atomic code, or converted to UPF format
     Using radial grid of  887 points,  6 beta functions with: 
                l(1) =   0
                l(2) =   0
                l(3) =   1
                l(4) =   1
                l(5) =   2
                l(6) =   2
     Q(r) pseudized with  6 coefficients,  rinner =    1.200   1.200   1.200
                                                       1.200   1.200

     PseudoPot. # 5 for H  read from file:
     q-e/pseudo/h_pbe_v1.4.uspp.F.UPF
     MD5 check sum: 761ae9a214b05c3daf00ab9f6b793d6f
     Pseudo is Ultrasoft, Zval =  1.0
     Generated by new atomic code, or converted to UPF format
     Using radial grid of  615 points,  2 beta functions with: 
                l(1) =   0
                l(2) =   0
     Q(r) pseudized with  8 coefficients,  rinner =    0.700

     atomic species   valence    mass     pseudopotential
        Hf            12.00   178.49000     Hf( 1.00)
        Nb            13.00    92.90637     Nb( 1.00)
        Ta            13.00   180.94788     Ta( 1.00)
        Zr            12.00    91.22400     Zr( 1.00)
        H              1.00     2.01400     H ( 1.00)

     Starting magnetic structure 
     atomic species   magnetization
        Hf           0.000
        Nb           0.000
        Ta           0.000
        Zr           0.000
        H            0.000

     No symmetry found



   Cartesian axes

     site n.     atom                  positions (alat units)
         1           Hf  tau(   1) = (   0.2354497   0.2493054   0.5823602  )
         2           Hf  tau(   2) = (   0.1104930   0.1134289   0.4460729  )
         3           Hf  tau(   3) = (   0.1107131   0.6516582   0.4486832  )
         4           Hf  tau(   4) = (   0.3604065   0.1134289   0.4460729  )
         5           Hf  tau(   5) = (   0.3601863   0.6516582   0.4486832  )
         6           Nb  tau(   6) = (   0.2354497   0.2466429   0.3100162  )
         7           Nb  tau(   7) = (   0.2354497   0.5181992   0.5850968  )
         8           Ta  tau(   8) = (   0.1066467   0.3827979   0.4471892  )
         9           Ta  tau(   9) = (   0.3642528   0.3827979   0.4471892  )
        10           Ta  tau(  10) = (   0.1152780   0.1158838   0.1815502  )
        11           Ta  tau(  11) = (   0.1148843   0.1153784   0.7138077  )
        12           Ta  tau(  12) = (   0.1149920   0.6504256   0.1804442  )
        13           Ta  tau(  13) = (   0.1153184   0.6494782   0.7130514  )
        14           Ta  tau(  14) = (   0.3556215   0.1158838   0.1815502  )
        15           Ta  tau(  15) = (   0.3560151   0.1153784   0.7138077  )
        16           Ta  tau(  16) = (   0.3559074   0.6504256   0.1804442  )
        17           Ta  tau(  17) = (   0.3555811   0.6494782   0.7130514  )
        18           Zr  tau(  18) = (   0.2354497   0.5173092   0.3110568  )
        19           Zr  tau(  19) = (   0.1096856   0.3811356   0.1763668  )
        20           Zr  tau(  20) = (   0.1093814   0.3839615   0.7186733  )
        21           Zr  tau(  21) = (   0.3612139   0.3811356   0.1763668  )
        22           Zr  tau(  22) = (   0.3615180   0.3839615   0.7186733  )
        23           H   tau(  23) = (   0.5513181   0.5149912   0.5795573  )

     number of k points=     1  Gaussian smearing, width (Ry)=  0.0220
                       cart. coord. in units 2pi/alat
        k(    1) = (   0.0000000   0.0000000   0.0000000), wk =   1.0000000

     Dense  grid:   598674 G-vectors     FFT dimensions: ( 150, 120, 135)

     Estimated max dynamical RAM per process >     492.22 MB

     Estimated total dynamical RAM >       5.77 GB

     Check: negative core charge=   -0.000002
     Generating pointlists ...
     new r_m :   0.0920 (alat units)  1.9717 (a.u.) for type    1
     new r_m :   0.0904 (alat units)  1.9374 (a.u.) for type    2
     new r_m :   0.0904 (alat units)  1.9374 (a.u.) for type    3
     new r_m :   0.0916 (alat units)  1.9625 (a.u.) for type    4
     new r_m :   0.1091 (alat units)  2.3386 (a.u.) for type    5

     Initial potential from superposition of free atoms

     starting charge     266.9726, renormalised to     277.0000

     negative rho (up, down):  9.211E-01 9.211E-01
     Starting wfcs are  287 randomized atomic wfcs

     total cpu time spent up to now is       35.3 secs

     Self-consistent Calculation

     iteration #  1     ecut=   120.00 Ry     beta= 0.70
     Davidson diagonalization with overlap
     ethr =  1.00E-02,  avg # of iterations =  2.0

     negative rho (up, down):  1.008E+00 1.008E+00

     total cpu time spent up to now is       95.2 secs

     total energy              =   -2927.96823333 Ry
     estimated scf accuracy    <     266.20974901 Ry

     total magnetization       =    -0.00 Bohr mag/cell
     absolute magnetization    =     0.07 Bohr mag/cell

     iteration #  2     ecut=   120.00 Ry     beta= 0.70
     Davidson diagonalization with overlap
     ethr =  1.00E-02,  avg # of iterations =  5.0

     negative rho (up, down):  9.854E-01 9.856E-01

     total cpu time spent up to now is      161.4 secs

     total energy              =   -2942.13135572 Ry
     estimated scf accuracy    <      23.55790130 Ry

     total magnetization       =     0.01 Bohr mag/cell
     absolute magnetization    =     0.15 Bohr mag/cell

     iteration #  3     ecut=   120.00 Ry     beta= 0.70
     Davidson diagonalization with overlap
     ethr =  8.50E-03,  avg # of iterations =  2.0

     negative rho (up, down):  1.027E+00 1.025E+00

     total cpu time spent up to now is      219.5 secs

     total energy              =   -2942.56757731 Ry
     estimated scf accuracy    <      10.14141225 Ry

     total magnetization       =    -0.00 Bohr mag/cell
     absolute magnetization    =     0.17 Bohr mag/cell

     iteration #  4     ecut=   120.00 Ry     beta= 0.70
     Davidson diagonalization with overlap
     ethr =  3.66E-03,  avg # of iterations =  3.0

     negative rho (up, down):  1.047E+00 1.045E+00

     total cpu time spent up to now is      275.2 secs

     total energy              =   -2942.83341133 Ry
     estimated scf accuracy    <       2.87061579 Ry

     total magnetization       =     0.01 Bohr mag/cell
     absolute magnetization    =     0.20 Bohr mag/cell

     iteration #  5     ecut=   120.00 Ry     beta= 0.70
     Davidson diagonalization with overlap
     ethr =  1.04E-03,  avg # of iterations =  8.0

     negative rho (up, down):  1.028E+00 1.028E+00

     total cpu time spent up to now is      336.9 secs

     total energy              =   -2942.98548547 Ry
     estimated scf accuracy    <       1.08563282 Ry

     total magnetization       =     0.05 Bohr mag/cell
     absolute magnetization    =     0.16 Bohr mag/cell

     iteration #  6     ecut=   120.00 Ry     beta= 0.70
     Davidson diagonalization with overlap
     ethr =  3.92E-04,  avg # of iterations =  2.0

     negative rho (up, down):  1.026E+00 1.026E+00

     total cpu time spent up to now is      388.8 secs

     total energy              =   -2943.04459159 Ry
     estimated scf accuracy    <       0.91845229 Ry

     total magnetization       =     0.04 Bohr mag/cell
     absolute magnetization    =     0.11 Bohr mag/cell

     iteration #  7     ecut=   120.00 Ry     beta= 0.70
     Davidson diagonalization with overlap
     ethr =  3.32E-04,  avg # of iterations =  1.5

     negative rho (up, down):  1.009E+00 1.009E+00

     total cpu time spent up to now is      437.7 secs

     total energy              =   -2943.01251733 Ry
     estimated scf accuracy    <       0.31169899 Ry

     total magnetization       =     0.04 Bohr mag/cell
     absolute magnetization    =     0.11 Bohr mag/cell

     iteration #  8     ecut=   120.00 Ry     beta= 0.70
     Davidson diagonalization with overlap
     ethr =  1.13E-04,  avg # of iterations =  8.0

     negative rho (up, down):  9.855E-01 9.856E-01

     total cpu time spent up to now is      492.9 secs

     total energy              =   -2943.01712995 Ry
     estimated scf accuracy    <       0.16474629 Ry

     total magnetization       =     0.05 Bohr mag/cell
     absolute magnetization    =     0.09 Bohr mag/cell

     iteration #  9     ecut=   120.00 Ry     beta= 0.70
     Davidson diagonalization with overlap
     ethr =  5.95E-05,  avg # of iterations =  4.0

     negative rho (up, down):  9.646E-01 9.646E-01

     total cpu time spent up to now is      542.9 secs

     total energy              =   -2943.00835633 Ry
     estimated scf accuracy    <       0.06942652 Ry

     total magnetization       =     0.04 Bohr mag/cell
     absolute magnetization    =     0.07 Bohr mag/cell

     iteration # 10     ecut=   120.00 Ry     beta= 0.70
     Davidson diagonalization with overlap
     ethr =  2.51E-05,  avg # of iterations = 15.5

     negative rho (up, down):  9.365E-01 9.367E-01

     total cpu time spent up to now is      601.1 secs

     total energy              =   -2942.99787628 Ry
     estimated scf accuracy    <       0.04612457 Ry

     total magnetization       =     0.03 Bohr mag/cell
     absolute magnetization    =     0.06 Bohr mag/cell

     iteration # 11     ecut=   120.00 Ry     beta= 0.70
     Davidson diagonalization with overlap
     ethr =  1.67E-05,  avg # of iterations =  4.0

     negative rho (up, down):  9.177E-01 9.177E-01

     total cpu time spent up to now is      654.6 secs

     total energy              =   -2942.99561148 Ry
     estimated scf accuracy    <       0.02708252 Ry

     total magnetization       =     0.02 Bohr mag/cell
     absolute magnetization    =     0.05 Bohr mag/cell

     iteration # 12     ecut=   120.00 Ry     beta= 0.70
     Davidson diagonalization with overlap
     ethr =  9.78E-06,  avg # of iterations =  6.0

     negative rho (up, down):  9.101E-01 9.101E-01

     total cpu time spent up to now is      709.9 secs

     total energy              =   -2943.00039648 Ry
     estimated scf accuracy    <       0.01022789 Ry

     total magnetization       =     0.01 Bohr mag/cell
     absolute magnetization    =     0.03 Bohr mag/cell

     iteration # 13     ecut=   120.00 Ry     beta= 0.70
     Davidson diagonalization with overlap
     ethr =  3.69E-06,  avg # of iterations =  7.0

     negative rho (up, down):  9.084E-01 9.084E-01

     total cpu time spent up to now is      770.9 secs

     total energy              =   -2943.00342877 Ry
     estimated scf accuracy    <       0.00265945 Ry

     total magnetization       =     0.01 Bohr mag/cell
     absolute magnetization    =     0.02 Bohr mag/cell

     iteration # 14     ecut=   120.00 Ry     beta= 0.70
     Davidson diagonalization with overlap
     c_bands:  1 eigenvalues not converged
     ethr =  9.60E-07,  avg # of iterations = 14.0

     negative rho (up, down):  9.082E-01 9.082E-01

     total cpu time spent up to now is      841.6 secs

     total energy              =   -2943.00429429 Ry
     estimated scf accuracy    <       0.00107030 Ry

     total magnetization       =     0.01 Bohr mag/cell
     absolute magnetization    =     0.02 Bohr mag/cell

     iteration # 15     ecut=   120.00 Ry     beta= 0.70
     Davidson diagonalization with overlap
     ethr =  3.86E-07,  avg # of iterations = 12.0

     negative rho (up, down):  9.082E-01 9.082E-01

     Magnetic moment per site  (integrated on atomic sphere of radius R)
     atom   1 (R=0.092)  charge=  9.4644  magn=  0.0001
     atom   2 (R=0.092)  charge=  9.0590  magn= -0.0000
     atom   3 (R=0.092)  charge=  9.0593  magn=  0.0002
     atom   4 (R=0.092)  charge=  9.0551  magn=  0.0001
     atom   5 (R=0.092)  charge=  9.0559  magn= -0.0001
     atom   6 (R=0.090)  charge= 10.3489  magn=  0.0000
     atom   7 (R=0.090)  charge= 10.3527  magn= -0.0000
     atom   8 (R=0.090)  charge=  9.8051  magn=  0.0003
     atom   9 (R=0.090)  charge=  9.7999  magn= -0.0000
     atom  10 (R=0.090)  charge=  9.7392  magn=  0.0001
     atom  11 (R=0.090)  charge=  9.7407  magn=  0.0007
     atom  12 (R=0.090)  charge=  9.7398  magn=  0.0003
     atom  13 (R=0.090)  charge=  9.7468  magn= -0.0003
     atom  14 (R=0.090)  charge=  9.7420  magn=  0.0001
     atom  15 (R=0.090)  charge=  9.7416  magn= -0.0001
     atom  16 (R=0.090)  charge=  9.7398  magn=  0.0003
     atom  17 (R=0.090)  charge=  9.7407  magn= -0.0002
     atom  18 (R=0.092)  charge=  9.4540  magn= -0.0001
     atom  19 (R=0.092)  charge=  8.9952  magn= -0.0000
     atom  20 (R=0.092)  charge=  8.9932  magn=  0.0001
     atom  21 (R=0.092)  charge=  8.9923  magn=  0.0003
     atom  22 (R=0.092)  charge=  8.9888  magn= -0.0001
     atom  23 (R=0.109)  charge=  1.2477  magn=  0.0000

     total cpu time spent up to now is      908.2 secs

     End of self-consistent calculation

 ------ SPIN UP ------------


          k = 0.0000 0.0000 0.0000 ( 74835 PWs)   bands (ev):

   -62.8343 -62.7898 -62.7670 -62.7462 -62.7212 -62.7133 -62.6785 -62.6685
   -62.6248 -62.5869 -56.4188 -56.3650 -56.2937 -56.2395 -54.7248 -48.3076
   -48.3043 -43.6812 -43.6596 -43.5832 -43.5565 -41.8359 -29.8223 -29.7932
   -29.7270 -29.7080 -29.6373 -29.5980 -29.5029 -29.4793 -29.4676 -29.3806
   -29.3477 -29.3016 -29.2919 -29.2811 -29.2538 -29.2360 -29.2083 -29.1919
   -29.1876 -29.1715 -29.1453 -29.1175 -28.9967 -28.9844 -28.9601 -28.9507
   -28.9180 -28.8925 -28.8786 -28.8637 -26.2051 -25.9947 -25.6884 -25.5978
   -25.3498 -25.2227 -25.1958 -25.0969 -24.9664 -24.8876 -24.8735 -24.6495
   -24.5491 -24.4961 -24.4288 -24.4013 -24.3155 -24.2800 -23.7869 -23.7254
   -23.6532 -22.2220 -21.9834 -21.8686 -21.8515 -21.6718 -21.6375 -21.6298
   -21.6111 -21.6020 -21.5638 -21.4023 -21.3951 -20.1809 -19.9786 -19.8499
    -0.5261   0.9074   1.1039   1.1502   1.3316   1.3964   1.4965   1.6488
     1.7020   1.8165   1.8795   2.0495   2.1717   2.4691   2.6203   2.6788
     2.7401   2.8725   3.0330   3.0910   3.1731   3.2364   3.2597   3.3467
     3.3772   3.5106   3.5447   3.6739   3.6941   3.7317   3.7531   3.7772
     3.9213   4.0557   4.1129   4.1808   4.2339   4.2757   4.3304   4.3703
     4.4612   4.5608   4.6208   4.6731   4.8568   4.8915   5.0179   5.0233
     5.0397   5.1249   5.2287   5.2790   5.3109   5.4279   5.5550   5.6024
     5.6350   5.6708   5.8237   5.9017   6.0504   6.0687   6.1075   6.1675
     6.1790   6.2626   6.3361   6.3705   6.4535   6.5065   6.5874   6.6891
     6.7289   6.7807   6.9257   7.0181   7.1164   7.1740   7.2293

 ------ SPIN DOWN ----------


          k = 0.0000 0.0000 0.0000 ( 74835 PWs)   bands (ev):

   -62.8344 -62.7897 -62.7670 -62.7460 -62.7213 -62.7132 -62.6784 -62.6684
   -62.6248 -62.5867 -56.4188 -56.3650 -56.2937 -56.2395 -54.7248 -48.3077
   -48.3042 -43.6812 -43.6593 -43.5831 -43.5563 -41.8361 -29.8223 -29.7930
   -29.7270 -29.7078 -29.6374 -29.5978 -29.5028 -29.4792 -29.4674 -29.3808
   -29.3476 -29.3016 -29.2918 -29.2811 -29.2538 -29.2360 -29.2080 -29.1919
   -29.1874 -29.1713 -29.1451 -29.1174 -28.9969 -28.9845 -28.9599 -28.9505
   -28.9179 -28.8922 -28.8785 -28.8635 -26.2050 -25.9947 -25.6884 -25.5978
   -25.3497 -25.2226 -25.1957 -25.0968 -24.9664 -24.8876 -24.8736 -24.6495
   -24.5491 -24.4961 -24.4288 -24.4013 -24.3154 -24.2800 -23.7869 -23.7254
   -23.6532 -22.2218 -21.9835 -21.8683 -21.8514 -21.6718 -21.6373 -21.6295
   -21.6109 -21.6019 -21.5638 -21.4023 -21.3949 -20.1811 -19.9787 -19.8500
    -0.5260   0.9076   1.1039   1.1502   1.3317   1.3967   1.4966   1.6488
     1.7020   1.8166   1.8797   2.0497   2.1717   2.4691   2.6203   2.6789
     2.7402   2.8727   3.0332   3.0911   3.1733   3.2365   3.2598   3.3469
     3.3772   3.5107   3.5448   3.6740   3.6941   3.7318   3.7532   3.7773
     3.9214   4.0557   4.1131   4.1809   4.2339   4.2758   4.3305   4.3704
     4.4614   4.5608   4.6209   4.6732   4.8569   4.8917   5.0186   5.0239
     5.0401   5.1251   5.2292   5.2793   5.3112   5.4283   5.5550   5.6027
     5.6351   5.6712   5.8237   5.9018   6.0507   6.0692   6.1076   6.1681
     6.1793   6.2628   6.3366   6.3706   6.4536   6.5067   6.5875   6.6894
     6.7293   6.7810   6.9263   7.0184   7.1166   7.1743   7.2383

     the Fermi energy is     5.2184 ev

!    total energy              =   -2943.00440268 Ry
     estimated scf accuracy    <       0.00051757 Ry
     smearing contrib. (-TS)   =      -0.09590014 Ry
     internal energy E=F+TS    =   -2942.90850254 Ry

     total magnetization       =     0.01 Bohr mag/cell
     absolute magnetization    =     0.01 Bohr mag/cell

     convergence has been achieved in  15 iterations

     negative rho (up, down):  9.082E-01 9.082E-01

     Forces acting on atoms (cartesian axes, Ry/au):

     atom    1 type  1   force =    -0.00368040   -0.02550005    0.00326084
     atom    2 type  1   force =    -0.11259689   -0.01372428    0.00162319
     atom    3 type  1   force =    -0.11180429    0.01115417    0.00572257
     atom    4 type  1   force =     0.11459239   -0.01384346   -0.00042467
     atom    5 type  1   force =     0.12758398    0.00365985    0.01011733
     atom    6 type  2   force =    -0.00271649   -0.01186699    0.01125999
     atom    7 type  2   force =    -0.02191827    0.00898762   -0.01626483
     atom    8 type  3   force =    -0.10328086    0.00209279   -0.00603014
     atom    9 type  3   force =     0.12487135    0.01156183    0.00767099
     atom   10 type  3   force =    -0.02127370   -0.03291308   -0.06029907
     atom   11 type  3   force =    -0.01652245   -0.03784263    0.05445288
     atom   12 type  3   force =    -0.01847597    0.03606171   -0.05441903
     atom   13 type  3   force =    -0.01978716    0.03117028    0.05688913
     atom   14 type  3   force =     0.02019930   -0.03106152   -0.05845594
     atom   15 type  3   force =     0.01519427   -0.03635937    0.05377792
     atom   16 type  3   force =     0.01838507    0.03669302   -0.05173116
     atom   17 type  3   force =     0.03518588    0.03757913    0.05164581
     atom   18 type  4   force =    -0.00048296    0.02405748   -0.00112517
     atom   19 type  4   force =    -0.12807424   -0.00436068   -0.11617796
     atom   20 type  4   force =    -0.12950189    0.00574346    0.11365734
     atom   21 type  4   force =     0.12725073   -0.00528082   -0.11560533
     atom   22 type  4   force =     0.15773605    0.00807707    0.10838344
     atom   23 type  5   force =    -0.05088344   -0.00408553    0.00207187
     The non-local contrib.  to forces
     atom    1 type  1   force =    -0.00219620   -0.01486202    0.02597659
     atom    2 type  1   force =    -0.24600609   -0.16137725    0.01612936
     atom    3 type  1   force =    -0.23805126    0.15550638   -0.02085759
     atom    4 type  1   force =     0.24869894   -0.15553557    0.02447880
     atom    5 type  1   force =     0.25639749    0.13766401    0.00117909
     atom    6 type  2   force =    -0.00248076   -0.04097998   -0.05842335
     atom    7 type  2   force =    -0.02987344    0.06033022    0.05224013
     atom    8 type  3   force =    -0.26458042    0.00669578    0.00119040
     atom    9 type  3   force =     0.27827914    0.01834007    0.02756024
     atom   10 type  3   force =    -0.20784754    0.00316850   -0.20090441
     atom   11 type  3   force =    -0.20928987    0.00075976    0.19184657
     atom   12 type  3   force =    -0.20157109   -0.01752067   -0.17788329
     atom   13 type  3   force =    -0.21131496   -0.00525854    0.20007058
     atom   14 type  3   force =     0.20126184    0.00325128   -0.21379032
     atom   15 type  3   force =     0.22316765    0.00828756    0.18688568
     atom   16 type  3   force =     0.19694018   -0.01662442   -0.18664280
     atom   17 type  3   force =     0.25892592   -0.03545231    0.15366054
     atom   18 type  4   force =    -0.00270355    0.04540869   -0.05956867
     atom   19 type  4   force =     0.05884176    0.00743341    0.07441279
     atom   20 type  4   force =     0.05037950   -0.01991512   -0.06408114
     atom   21 type  4   force =    -0.05667525    0.01343983    0.07485502
     atom   22 type  4   force =    -0.06193960   -0.00002262   -0.08574768
     atom   23 type  5   force =    -0.01369713   -0.00141523    0.00003700
     The ionic contribution  to forces
     atom    1 type  1   force =    -0.19984074   -4.65221513   13.71512131
     atom    2 type  1   force =   -47.05988591   -6.09451130    0.74143390
     atom    3 type  1   force =   -47.05017526    6.12939222   -0.77338900
     atom    4 type  1   force =    46.84529869   -6.07116980    0.67853817
     atom    5 type  1   force =    46.47874990    6.39487174   -1.03964036
     atom    6 type  2   force =    -0.12275679   -3.56018108  -13.66909125
     atom    7 type  2   force =    -0.48202451    3.55450336   13.62426174
     atom    8 type  3   force =   -60.39965903    0.02821564   -0.12606257
     atom    9 type  3   force =    59.76990932   -0.26952363   -0.43728668
     atom   10 type  3   force =   -43.36787686   -2.07225066  -22.61629667
     atom   11 type  3   force =   -42.48293329   -0.82479072   21.64868429
     atom   12 type  3   force =   -42.57141249    0.80227238  -21.67708117
     atom   13 type  3   force =   -43.39922493    2.20706627   22.64538721
     atom   14 type  3   force =    43.24361198   -2.06779354  -22.63638155
     atom   15 type  3   force =    42.24658893   -0.80301145   21.71461870
     atom   16 type  3   force =    42.40169493    0.83608890  -21.72152506
     atom   17 type  3   force =    42.78276504    2.47514484   22.92405211
     atom   18 type  4   force =    -0.18177802    4.32611248  -13.70420694
     atom   19 type  4   force =   -42.95255191    0.93567032  -25.08782012
     atom   20 type  4   force =   -42.99396954   -0.99081138   25.10578339
     atom   21 type  4   force =    42.80088231    0.90395431  -25.12709032
     atom   22 type  4   force =    42.43069089   -1.24475061   25.38738707
     atom   23 type  5   force =     4.26389728    0.05771683    0.43060380
     The local contribution  to forces
     atom    1 type  1   force =     0.19928192    4.63600998  -13.73487067
     atom    2 type  1   force =    47.21421096    6.24788758   -0.74348642
     atom    3 type  1   force =    47.19717567   -6.27993375    0.81226104
     atom    4 type  1   force =   -46.99919678    6.21917904   -0.69618399
     atom    5 type  1   force =   -46.62437021   -6.53829646    1.05648035
     atom    6 type  2   force =     0.12617431    3.59090391   13.75630068
     atom    7 type  2   force =     0.48884177   -3.59815322  -13.69223740
     atom    8 type  3   force =    60.60819377   -0.03372564    0.12741665
     atom    9 type  3   force =   -59.96615853    0.26340139    0.42464423
     atom   10 type  3   force =    43.58579021    2.02650105   22.77758211
     atom   11 type  3   force =    42.71008372    0.76933819  -21.80982916
     atom   12 type  3   force =    42.78734945   -0.74332129   21.82210384
     atom   13 type  3   force =    43.62146791   -2.15018657  -22.81248088
     atom   14 type  3   force =   -43.44849835    2.01972313   22.81217146
     atom   15 type  3   force =   -42.49014782    0.74663308  -21.86791326
     atom   16 type  3   force =   -42.60571393   -0.77379907   21.87771933
     atom   17 type  3   force =   -43.04007486   -2.38842646  -23.04636897
     atom   18 type  4   force =     0.18764257   -4.34496220   13.77324283
     atom   19 type  4   force =    42.77789307   -0.94507635   24.91588916
     atom   20 type  4   force =    42.82681666    1.01344979  -24.94705014
     atom   21 type  4   force =   -42.62529042   -0.91910991   24.95491766
     atom   22 type  4   force =   -42.22307022    1.24942632  -25.21301483
     atom   23 type  5   force =    -4.30249184   -0.06075276   -0.42785374
     The core correction contribution to forces
     atom    1 type  1   force =     0.00016716    0.00055103   -0.00094218
     atom    2 type  1   force =    -0.01255991   -0.00199658    0.00049183
     atom    3 type  1   force =    -0.01276441    0.00230414   -0.00134154
     atom    4 type  1   force =     0.01284764   -0.00132549    0.00272894
     atom    5 type  1   force =     0.01002466    0.00475580   -0.00094499
     atom    6 type  2   force =     0.00008950    0.00188890    0.00237494
     atom    7 type  2   force =     0.00122120   -0.00315763   -0.00207889
     atom    8 type  3   force =    -0.03369201    0.00085705    0.00003315
     atom    9 type  3   force =     0.03121429   -0.00097396    0.00106877
     atom   10 type  3   force =    -0.02202242    0.00985755   -0.01634159
     atom   11 type  3   force =    -0.02283090    0.00921964    0.01716270
     atom   12 type  3   force =    -0.02167956   -0.00966602   -0.01634616
     atom   13 type  3   force =    -0.02250131   -0.00983897    0.01617583
     atom   14 type  3   force =     0.02102453    0.01052050   -0.01627397
     atom   15 type  3   force =     0.02346236    0.00984483    0.01469359
     atom   16 type  3   force =     0.02181838   -0.01103079   -0.01640585
     atom   17 type  3   force =     0.02303297   -0.00685109    0.01380893
     atom   18 type  4   force =     0.00012593   -0.00242888    0.00303907
     atom   19 type  4   force =    -0.00967589    0.00011927   -0.00954423
     atom   20 type  4   force =    -0.00928896    0.00075280    0.00905272
     atom   21 type  4   force =     0.00960539   -0.00018353   -0.00963087
     atom   22 type  4   force =     0.01030276   -0.00003707    0.00988563
     atom   23 type  5   force =     0.00000000    0.00000000    0.00000000
     The Hubbard contrib.    to forces
     atom    1 type  1   force =     0.00000000    0.00000000    0.00000000
     atom    2 type  1   force =     0.00000000    0.00000000    0.00000000
     atom    3 type  1   force =     0.00000000    0.00000000    0.00000000
     atom    4 type  1   force =     0.00000000    0.00000000    0.00000000
     atom    5 type  1   force =     0.00000000    0.00000000    0.00000000
     atom    6 type  2   force =     0.00000000    0.00000000    0.00000000
     atom    7 type  2   force =     0.00000000    0.00000000    0.00000000
     atom    8 type  3   force =     0.00000000    0.00000000    0.00000000
     atom    9 type  3   force =     0.00000000    0.00000000    0.00000000
     atom   10 type  3   force =     0.00000000    0.00000000    0.00000000
     atom   11 type  3   force =     0.00000000    0.00000000    0.00000000
     atom   12 type  3   force =     0.00000000    0.00000000    0.00000000
     atom   13 type  3   force =     0.00000000    0.00000000    0.00000000
     atom   14 type  3   force =     0.00000000    0.00000000    0.00000000
     atom   15 type  3   force =     0.00000000    0.00000000    0.00000000
     atom   16 type  3   force =     0.00000000    0.00000000    0.00000000
     atom   17 type  3   force =     0.00000000    0.00000000    0.00000000
     atom   18 type  4   force =     0.00000000    0.00000000    0.00000000
     atom   19 type  4   force =     0.00000000    0.00000000    0.00000000
     atom   20 type  4   force =     0.00000000    0.00000000    0.00000000
     atom   21 type  4   force =     0.00000000    0.00000000    0.00000000
     atom   22 type  4   force =     0.00000000    0.00000000    0.00000000
     atom   23 type  5   force =     0.00000000    0.00000000    0.00000000
     The SCF correction term to forces
     atom    1 type  1   force =    -0.00093275    0.00494545   -0.00128944
     atom    2 type  1   force =    -0.00819615   -0.00379738   -0.01221071
     atom    3 type  1   force =    -0.00782924    0.00381452   -0.01021557
     atom    4 type  1   force =     0.00710370   -0.00506229   -0.00925183
     atom    5 type  1   force =     0.00694194    0.00459412   -0.00622198
     atom    6 type  2   force =    -0.00358295   -0.00356938   -0.01916626
     atom    7 type  2   force =     0.00007652   -0.00460576    0.00228436
     atom    8 type  3   force =    -0.01338337   -0.00002069   -0.00787298
     atom    9 type  3   force =     0.01178693    0.00024732   -0.00758079
     atom   10 type  3   force =    -0.00915731   -0.00026017   -0.00360374
     atom   11 type  3   force =    -0.01139232    0.00755985    0.00732326
     atom   12 type  3   force =    -0.01100249    0.00422667   -0.00447747
     atom   13 type  3   force =    -0.00805407   -0.01068256    0.00847115
     atom   14 type  3   force =     0.00295909    0.00316646   -0.00344678
     atom   15 type  3   force =     0.01228294    0.00181595    0.00622798
     atom   16 type  3   force =     0.00380531    0.00198774   -0.00414200
     atom   17 type  3   force =     0.01069661   -0.00690651    0.00722798
     atom   18 type  4   force =    -0.00361010   -0.00014327   -0.01289667
     atom   19 type  4   force =    -0.00242147   -0.00257799   -0.00838079
     atom   20 type  4   force =    -0.00327975    0.00219673    0.01068730
     atom   21 type  4   force =    -0.00111151   -0.00345217   -0.00792204
     atom   22 type  4   force =     0.00191201    0.00339040    0.01060802
     atom   23 type  5   force =     0.00156805    0.00029498    0.00001959

     Total force =     0.500578     Total SCF correction =     0.058166
     SCF correction compared to forces is large: reduce conv_thr to get better values

     Molecular Dynamics Calculation

     Starting temperature  =   300.00 K

     temperature is set once at start

     mass Hf               =   178.49
     mass Nb               =    92.91
     mass Ta               =   180.95
     mass Zr               =    91.22
     mass H                =     2.01
     Time step             =     4.20 a.u.,  0.2032 femto-seconds

     Entering Dynamics:    iteration =     1
                           time      =   0.0002 pico-seconds


ATOMIC_POSITIONS (angstrom)
Hf            2.6701337010        2.8270276463        6.6038696609
Hf            1.2531212995        1.2861891364        5.0583716214
Hf            1.2556175406        7.3897099635        5.0879732803
Hf            4.0871463711        1.2861891329        5.0583715626
Hf            4.0846505254        7.3897097485        5.0879734064
Nb            2.6701336569        2.7968353001        3.5154891860
Nb            2.6701325985        5.8762845204        6.6349023954
Ta            1.2095039828        4.3408332595        5.0710310104
Ta            4.1307642415        4.3408335275        5.0710313981
Ta            1.3073859317        1.3140270067        2.0586827523
Ta            1.3029216963        1.3082954138        8.0944860921
Ta            1.3041429489        7.3757324934        2.0461409884
Ta            1.3078440881        7.3649891792        8.0859091795
Ta            4.0328816512        1.3140270591        2.0586828045
Ta            4.0373458794        1.3082954557        8.0944860730
Ta            4.0361246618        7.3757325112        2.0461410645
Ta            4.0324239610        7.3649893606        8.0859090311
Zr            2.6701337795        5.8661925426        3.5272892159
Zr            1.2439612792        4.3219830684        1.9998988271
Zr            1.2405119928        4.3540289556        8.1496672781
Zr            4.0963062878        4.3219830168        1.9998988592
Zr            4.0997572054        4.3540290866        8.1496669821
H             6.0295861186        5.9971399192        6.7293354197


     kinetic energy (Ekin) =          18.36481730 Ry
     temperature           =       87865.91878145 K 
     Ekin + Etot (const)   =       -2924.63958538 Ry

     Linear momentum :   -0.0000000000    0.0000000000    0.0000000000

     File outdir/pwscf.msd.dat deleted, as requested

     Writing config-only to output data dir outdir/pwscf.save/
     NEW-OLD atomic charge density approx. for the potential

     Check: negative core charge=   -0.000002

     negative rho (up, down):  9.082E-01 9.082E-01
     Generating pointlists ...
     new r_m :   0.1009 (alat units)  2.1631 (a.u.) for type    5

     total cpu time spent up to now is      947.0 secs

     Self-consistent Calculation

     iteration #  1     ecut=   120.00 Ry     beta= 0.70
     Davidson diagonalization with overlap
     c_bands:  2 eigenvalues not converged
