
     Program PWSCF v.7.2 starts on  5Jun2023 at  2:13: 9 

     This program is part of the open-source Quantum ESPRESSO suite
     for quantum simulation of materials; please cite
         "P. Giannozzi et al., J. Phys.:Condens. Matter 21 395502 (2009);
         "P. Giannozzi et al., J. Phys.:Condens. Matter 29 465901 (2017);
         "P. Giannozzi et al., J. Chem. Phys. 152 154105 (2020);
          URL http://www.quantum-espresso.org", 
     in publications or presentations arising from this work. More details at
     http://www.quantum-espresso.org/quote

     Parallel version (MPI), running on    12 processors

     MPI processes distributed on     1 nodes
     76519 MiB available memory on the printing compute node when the environment starts

     Reading input from md_Hf5Nb2Ta10Zr5H_10steps.in
Warning: card &CELL ignored
Warning: card / ignored

     Current dimensions of program PWSCF are:
     Max number of different atomic species (ntypx) = 10
     Max number of k-points (npk) =  40000
     Max angular momentum in pseudopotentials (lmaxx) =  4

     File outdir/pwscf.update deleted, as requested

     File outdir/pwscf.md deleted, as requested

     gamma-point specific algorithms are used

     R & G space division:  proc/nbgrp/npool/nimage =      12
     Subspace diagonalization in iterative solution of the eigenvalue problem:
     one sub-group per band group will be used
     custom distributed-memory algorithm (size of sub-group:  2*  2 procs)


     Parallelization info
     --------------------
     sticks:   dense  smooth     PW     G-vecs:    dense   smooth      PW
     Min         590     590    147                55418    55418    6924
     Max         592     592    148                55428    55428    6932
     Sum        7089    7089   1775               665061   665061   83133

     Using Slab Decomposition



     bravais-lattice index     =            0
     lattice parameter (alat)  =      13.3037  a.u.
     unit-cell volume          =    3744.5260 (a.u.)^3
     number of atoms/cell      =           23
     number of atomic types    =            5
     number of electrons       =       277.00
     number of Kohn-Sham states=          167
     kinetic-energy cutoff     =     120.0000  Ry
     charge density cutoff     =     480.0000  Ry
     scf convergence threshold =      1.0E-03
     mixing beta               =       0.7000
     number of iterations used =            8  TF        mixing
     energy convergence thresh.=      0.0E+00
     force convergence thresh. =      0.0E+00
     Exchange-correlation=  SLA  PW   PBX  PBC
                           (   1   4   3   4   0   0   0)
     nstep                     =           10


     celldm(1)=  13.303672  celldm(2)=   0.000000  celldm(3)=   0.000000
     celldm(4)=   0.000000  celldm(5)=   0.000000  celldm(6)=   0.000000

     crystal axes: (cart. coord. in units of alat)
               a(1) = (   1.000000   0.000000   0.000000 )  
               a(2) = (   0.000000   1.048295   0.000000 )  
               a(3) = (   0.000000   0.000000   1.517045 )  

     reciprocal axes: (cart. coord. in units 2 pi/alat)
               b(1) = (  1.000000  0.000000  0.000000 )  
               b(2) = (  0.000000  0.953930  0.000000 )  
               b(3) = (  0.000000  0.000000  0.659176 )  


     PseudoPot. # 1 for Hf read from file:
     q-e/pseudo/hf_pbe_v1.uspp.F.UPF
     MD5 check sum: 8ee9378dfe14276e333edf04c5e4aa26
     Pseudo is Ultrasoft + core correction, Zval = 12.0
     Generated by new atomic code, or converted to UPF format
     Using radial grid of  921 points,  8 beta functions with: 
                l(1) =   0
                l(2) =   0
                l(3) =   0
                l(4) =   1
                l(5) =   1
                l(6) =   2
                l(7) =   2
                l(8) =   3
     Q(r) pseudized with  6 coefficients,  rinner =    1.200   1.200   1.200
                                                       1.200   1.200   1.200
                                                       1.200

     PseudoPot. # 2 for Nb read from file:
     q-e/pseudo/nb_pbe_v1.uspp.F.UPF
     MD5 check sum: 573aab8a2fa660278ed4a62cd769473f
     Pseudo is Ultrasoft + core correction, Zval = 13.0
     Generated by new atomic code, or converted to UPF format
     Using radial grid of  887 points,  6 beta functions with: 
                l(1) =   0
                l(2) =   0
                l(3) =   1
                l(4) =   1
                l(5) =   2
                l(6) =   2
     Q(r) pseudized with  6 coefficients,  rinner =    1.000   1.000   1.000
                                                       1.000   1.000

     PseudoPot. # 3 for Ta read from file:
     q-e/pseudo/ta_pbe_v1.uspp.F.UPF
     MD5 check sum: f8bbe9446314a3b8ea5d9f3e3836c939
     Pseudo is Ultrasoft + core correction, Zval = 13.0
     Generated by new atomic code, or converted to UPF format
     Using radial grid of  921 points,  7 beta functions with: 
                l(1) =   0
                l(2) =   0
                l(3) =   1
                l(4) =   1
                l(5) =   2
                l(6) =   2
                l(7) =   3
     Q(r) pseudized with  6 coefficients,  rinner =    1.300   1.300   1.300
                                                       1.300   1.300   1.300
                                                       1.300

     PseudoPot. # 4 for Zr read from file:
     q-e/pseudo/zr_pbe_v1.uspp.F.UPF
     MD5 check sum: 5db81b1e868ab7776c4564c113de050b
     Pseudo is Ultrasoft + core correction, Zval = 12.0
     Generated by new atomic code, or converted to UPF format
     Using radial grid of  887 points,  6 beta functions with: 
                l(1) =   0
                l(2) =   0
                l(3) =   1
                l(4) =   1
                l(5) =   2
                l(6) =   2
     Q(r) pseudized with  6 coefficients,  rinner =    1.200   1.200   1.200
                                                       1.200   1.200

     PseudoPot. # 5 for H  read from file:
     q-e/pseudo/h_pbe_v1.4.uspp.F.UPF
     MD5 check sum: 761ae9a214b05c3daf00ab9f6b793d6f
     Pseudo is Ultrasoft, Zval =  1.0
     Generated by new atomic code, or converted to UPF format
     Using radial grid of  615 points,  2 beta functions with: 
                l(1) =   0
                l(2) =   0
     Q(r) pseudized with  8 coefficients,  rinner =    0.700

     atomic species   valence    mass     pseudopotential
        Hf            12.00   178.49000     Hf( 1.00)
        Nb            13.00    92.90637     Nb( 1.00)
        Ta            13.00   180.94788     Ta( 1.00)
        Zr            12.00    91.22400     Zr( 1.00)
        H              1.00     2.01400     H ( 1.00)

     Starting magnetic structure 
     atomic species   magnetization
        Hf           0.000
        Nb           0.000
        Ta           0.000
        Zr           0.000
        H            0.000

     No symmetry found



   Cartesian axes

     site n.     atom                  positions (alat units)
         1           Hf  tau(   1) = (   0.2656250   0.2656250   0.9957387  )
         2           Hf  tau(   2) = (   0.0284091   0.0284091   0.7585227  )
         3           Hf  tau(   3) = (   0.0284091   0.9772727   0.7585227  )
         4           Hf  tau(   4) = (   0.5028409   0.0284091   0.7585227  )
         5           Hf  tau(   5) = (   0.5028409   0.9772727   0.7585227  )
         6           Nb  tau(   6) = (   0.2656250   0.2656250   0.5213068  )
         7           Nb  tau(   7) = (   0.2656250   0.7400569   0.9957387  )
         8           Ta  tau(   8) = (   0.0284091   0.5028409   0.7585227  )
         9           Ta  tau(   9) = (   0.5028409   0.5028409   0.7585227  )
        10           Ta  tau(  10) = (   0.0284091   0.0284091   0.2840909  )
        11           Ta  tau(  11) = (   0.0284091   0.0284091   1.2329545  )
        12           Ta  tau(  12) = (   0.0284091   0.9772727   0.2840909  )
        13           Ta  tau(  13) = (   0.0284091   0.9772727   1.2329545  )
        14           Ta  tau(  14) = (   0.5028409   0.0284091   0.2840909  )
        15           Ta  tau(  15) = (   0.5028409   0.0284091   1.2329545  )
        16           Ta  tau(  16) = (   0.5028409   0.9772727   0.2840909  )
        17           Ta  tau(  17) = (   0.5028409   0.9772727   1.2329545  )
        18           Zr  tau(  18) = (   0.2656250   0.7400569   0.5213068  )
        19           Zr  tau(  19) = (   0.0284091   0.5028409   0.2840909  )
        20           Zr  tau(  20) = (   0.0284091   0.5028409   1.2329545  )
        21           Zr  tau(  21) = (   0.5028409   0.5028409   0.2840909  )
        22           Zr  tau(  22) = (   0.5028409   0.5028409   1.2329545  )
        23           H   tau(  23) = (   0.7159091   0.5028409   0.7585227  )

     number of k points=     1  Gaussian smearing, width (Ry)=  0.0220
                       cart. coord. in units 2pi/alat
        k(    1) = (   0.0000000   0.0000000   0.0000000), wk =   1.0000000

     Dense  grid:   332531 G-vectors     FFT dimensions: (  96, 100, 144)

     Estimated max dynamical RAM per process >     282.33 MB

     Estimated total dynamical RAM >       3.31 GB

     Check: negative core charge=   -0.000002
     Generating pointlists ...
     new r_m :   0.0410 (alat units)  0.5457 (a.u.) for type    1
     new r_m :   0.1695 (alat units)  2.2548 (a.u.) for type    2
     new r_m :   0.0410 (alat units)  0.5457 (a.u.) for type    3
     new r_m :   0.1695 (alat units)  2.2548 (a.u.) for type    4
     new r_m :   0.0879 (alat units)  1.1693 (a.u.) for type    5

     Initial potential from superposition of free atoms

     starting charge     266.9726, renormalised to     277.0000

     negative rho (up, down):  4.713E-01 4.713E-01
     Starting wfcs are  287 randomized atomic wfcs

     total cpu time spent up to now is       18.6 secs

     Self-consistent Calculation

     iteration #  1     ecut=   120.00 Ry     beta= 0.70
     Davidson diagonalization with overlap
     ethr =  1.00E-02,  avg # of iterations =  6.0

     negative rho (up, down):  5.739E-01 5.741E-01

     total cpu time spent up to now is       62.9 secs

     total energy              =   -2626.12998428 Ry
     estimated scf accuracy    <     341.96838177 Ry

     total magnetization       =    -0.01 Bohr mag/cell
     absolute magnetization    =     0.12 Bohr mag/cell

     iteration #  2     ecut=   120.00 Ry     beta= 0.70
     Davidson diagonalization with overlap
     ethr =  1.00E-02,  avg # of iterations =  4.0

     negative rho (up, down):  6.947E-01 6.947E-01

     total cpu time spent up to now is       93.3 secs

     total energy              =   -2632.56189618 Ry
     estimated scf accuracy    <      82.90634030 Ry

     total magnetization       =     0.00 Bohr mag/cell
     absolute magnetization    =     0.09 Bohr mag/cell

     iteration #  3     ecut=   120.00 Ry     beta= 0.70
     Davidson diagonalization with overlap
     ethr =  1.00E-02,  avg # of iterations =  4.0

     negative rho (up, down):  7.498E-01 7.497E-01

     total cpu time spent up to now is      121.4 secs

     total energy              =   -2630.71497960 Ry
     estimated scf accuracy    <      31.16725498 Ry

     total magnetization       =    -0.09 Bohr mag/cell
     absolute magnetization    =     0.29 Bohr mag/cell

     iteration #  4     ecut=   120.00 Ry     beta= 0.70
     Davidson diagonalization with overlap
     ethr =  1.00E-02,  avg # of iterations =  4.5

     negative rho (up, down):  7.260E-01 7.260E-01

     total cpu time spent up to now is      148.5 secs

     total energy              =   -2631.76866633 Ry
     estimated scf accuracy    <       7.89625325 Ry

     total magnetization       =     0.11 Bohr mag/cell
     absolute magnetization    =     0.65 Bohr mag/cell

     iteration #  5     ecut=   120.00 Ry     beta= 0.70
     Davidson diagonalization with overlap
     ethr =  2.85E-03,  avg # of iterations =  3.0

     negative rho (up, down):  7.187E-01 7.188E-01

     total cpu time spent up to now is      176.8 secs

     total energy              =   -2631.24487411 Ry
     estimated scf accuracy    <       5.20358394 Ry

     total magnetization       =     0.08 Bohr mag/cell
     absolute magnetization    =     0.39 Bohr mag/cell

     iteration #  6     ecut=   120.00 Ry     beta= 0.70
     Davidson diagonalization with overlap
     ethr =  1.88E-03,  avg # of iterations =  4.5

     negative rho (up, down):  6.970E-01 6.970E-01

     total cpu time spent up to now is      203.5 secs

     total energy              =   -2630.88582126 Ry
     estimated scf accuracy    <       1.67462245 Ry

     total magnetization       =     0.12 Bohr mag/cell
     absolute magnetization    =     0.34 Bohr mag/cell

     iteration #  7     ecut=   120.00 Ry     beta= 0.70
     Davidson diagonalization with overlap
     ethr =  6.05E-04,  avg # of iterations =  5.5

     negative rho (up, down):  6.932E-01 6.933E-01

     total cpu time spent up to now is      233.7 secs

     total energy              =   -2631.09533852 Ry
     estimated scf accuracy    <       0.37392009 Ry

     total magnetization       =     0.13 Bohr mag/cell
     absolute magnetization    =     0.30 Bohr mag/cell

     iteration #  8     ecut=   120.00 Ry     beta= 0.70
     Davidson diagonalization with overlap
     ethr =  1.35E-04,  avg # of iterations =  6.5

     negative rho (up, down):  6.947E-01 6.948E-01

     total cpu time spent up to now is      260.7 secs

     total energy              =   -2631.11171312 Ry
     estimated scf accuracy    <       0.22007316 Ry

     total magnetization       =     0.15 Bohr mag/cell
     absolute magnetization    =     0.25 Bohr mag/cell

     iteration #  9     ecut=   120.00 Ry     beta= 0.70
     Davidson diagonalization with overlap
     ethr =  7.94E-05,  avg # of iterations =  3.0

     negative rho (up, down):  6.941E-01 6.943E-01

     total cpu time spent up to now is      287.3 secs

     total energy              =   -2631.12076666 Ry
     estimated scf accuracy    <       0.13117867 Ry

     total magnetization       =     0.15 Bohr mag/cell
     absolute magnetization    =     0.22 Bohr mag/cell

     iteration # 10     ecut=   120.00 Ry     beta= 0.70
     Davidson diagonalization with overlap
     ethr =  4.74E-05,  avg # of iterations =  1.0

     negative rho (up, down):  6.941E-01 6.943E-01

     total cpu time spent up to now is      310.4 secs

     total energy              =   -2631.12272667 Ry
     estimated scf accuracy    <       0.02297046 Ry

     total magnetization       =     0.15 Bohr mag/cell
     absolute magnetization    =     0.21 Bohr mag/cell

     iteration # 11     ecut=   120.00 Ry     beta= 0.70
     Davidson diagonalization with overlap
     ethr =  8.29E-06,  avg # of iterations = 10.0

     negative rho (up, down):  6.947E-01 6.949E-01

     total cpu time spent up to now is      343.5 secs

     total energy              =   -2631.12740288 Ry
     estimated scf accuracy    <       0.02371225 Ry

     total magnetization       =     0.17 Bohr mag/cell
     absolute magnetization    =     0.21 Bohr mag/cell

     iteration # 12     ecut=   120.00 Ry     beta= 0.70
     Davidson diagonalization with overlap
     ethr =  8.29E-06,  avg # of iterations =  2.0

     negative rho (up, down):  6.951E-01 6.953E-01

     total cpu time spent up to now is      369.0 secs

     total energy              =   -2631.12750087 Ry
     estimated scf accuracy    <       0.00738430 Ry

     total magnetization       =     0.17 Bohr mag/cell
     absolute magnetization    =     0.21 Bohr mag/cell

     iteration # 13     ecut=   120.00 Ry     beta= 0.70
     Davidson diagonalization with overlap
     ethr =  2.67E-06,  avg # of iterations =  2.5

     negative rho (up, down):  6.951E-01 6.953E-01

     total cpu time spent up to now is      396.3 secs

     total energy              =   -2631.12789467 Ry
     estimated scf accuracy    <       0.00124523 Ry

     total magnetization       =     0.18 Bohr mag/cell
     absolute magnetization    =     0.21 Bohr mag/cell

     iteration # 14     ecut=   120.00 Ry     beta= 0.70
     Davidson diagonalization with overlap
     ethr =  4.50E-07,  avg # of iterations =  7.0

     negative rho (up, down):  6.949E-01 6.951E-01

     Magnetic moment per site  (integrated on atomic sphere of radius R)
     atom   1 (R=0.041)  charge=  0.0281  magn=  0.0000
     atom   2 (R=0.041)  charge=  0.2750  magn=  0.0001
     atom   3 (R=0.041)  charge=  0.2758  magn=  0.0001
     atom   4 (R=0.041)  charge=  0.2750  magn=  0.0000
     atom   5 (R=0.041)  charge=  0.2758  magn=  0.0000
     atom   6 (R=0.169)  charge= 10.9488  magn=  0.0068
     atom   7 (R=0.169)  charge= 10.9558  magn=  0.0023
     atom   8 (R=0.041)  charge=  0.0850  magn= -0.0000
     atom   9 (R=0.041)  charge=  0.0859  magn= -0.0000
     atom  10 (R=0.041)  charge=  0.3859  magn= -0.0000
     atom  11 (R=0.041)  charge=  0.3858  magn= -0.0000
     atom  12 (R=0.041)  charge=  0.3867  magn= -0.0000
     atom  13 (R=0.041)  charge=  0.3869  magn= -0.0000
     atom  14 (R=0.041)  charge=  0.3859  magn= -0.0000
     atom  15 (R=0.041)  charge=  0.3858  magn=  0.0000
     atom  16 (R=0.041)  charge=  0.3868  magn=  0.0000
     atom  17 (R=0.041)  charge=  0.3869  magn= -0.0000
     atom  18 (R=0.169)  charge=  9.8589  magn=  0.0143
     atom  19 (R=0.169)  charge=  9.5983  magn=  0.0041
     atom  20 (R=0.169)  charge=  9.5935  magn=  0.0056
     atom  21 (R=0.169)  charge=  9.6114  magn=  0.0460
     atom  22 (R=0.169)  charge=  9.6013  magn=  0.0174
     atom  23 (R=0.088)  charge=  0.9149  magn=  0.0002

     total cpu time spent up to now is      425.1 secs

     End of self-consistent calculation

 ------ SPIN UP ------------


          k = 0.0000 0.0000 0.0000 ( 41567 PWs)   bands (ev):

  -154.5149-154.5144-154.4982-154.4976-148.6013-148.5940 -60.4972 -60.4907
   -60.4793 -60.4729 -60.3603 -60.3549 -60.3466 -60.3411 -56.1537 -56.1234
   -56.1212 -56.1090 -56.1068 -55.6897 -50.4168 -50.4097 -49.9773 -49.9542
   -49.8628 -49.8531 -49.8397 -42.6504 -42.6134 -36.9662 -36.9387 -36.9348
   -36.9206 -36.5506 -31.1394 -31.1247 -31.1104 -31.0965 -25.0239 -24.9735
   -22.7218 -22.5420 -22.4671 -22.3689 -22.1985 -22.1045 -18.9235 -18.8655
   -18.7555 -18.7384 -18.7056 -18.7045 -18.6758 -18.5534 -18.5379 -15.2476
   -15.1452 -15.1092 -15.0862 -15.0572 -14.9908 -14.9433 -14.9129 -14.8642
   -14.8462 -14.8277 -14.7937 -14.7902 -14.5231 -14.4840 -12.6555 -12.6142
   -12.5918 -12.5631 -12.4662 -12.4520 -12.3997 -12.3872  -6.8960  -6.6977
    -6.6807  -6.6747  -3.8492  -3.7943  -3.6240  -3.5802  -3.3489  -3.3091
    -3.2874  -3.1748  -1.5070  -1.1829  -0.2776  -0.0210   0.9931   1.3796
     1.9397   2.0347   2.1230   3.5828   5.6777   6.1487   6.1735   6.3072
     6.9730   7.0269   7.2744   7.3677   7.3891   7.6968   7.7531   7.7845
     7.8032   8.1226   8.7490   9.4098   9.5395   9.9116   9.9717  10.0998
    10.1202  10.2535  10.3184  10.4741  10.6519  10.8888  10.9964  11.0854
    11.1887  11.4205  11.4486  11.4667  11.6065  11.7547  11.7715  11.8404
    11.8517  11.9003  11.9955  12.0619  12.2314  12.3634  12.4199  12.5992
    12.7392  12.8465  13.0227  13.1935  13.2447  13.2919  13.4509  13.6752
    13.6926  13.8396  13.8699  13.8916  13.9666  14.1457  14.2577  14.3103
    14.5182  14.5242  14.5716  14.6627  14.7434  14.8172  15.0245

 ------ SPIN DOWN ----------


          k = 0.0000 0.0000 0.0000 ( 41567 PWs)   bands (ev):

  -154.5148-154.5142-154.4979-154.4973-148.6012-148.5936 -60.4972 -60.4907
   -60.4791 -60.4727 -60.3602 -60.3548 -60.3465 -60.3410 -56.1540 -56.1233
   -56.1211 -56.1087 -56.1065 -55.6928 -50.4166 -50.4091 -49.9772 -49.9540
   -49.8622 -49.8527 -49.8383 -42.6483 -42.6090 -36.9474 -36.9310 -36.9235
   -36.9141 -36.5420 -31.1393 -31.1245 -31.1103 -31.0963 -25.0231 -24.9726
   -22.7216 -22.5428 -22.4679 -22.3716 -22.2039 -22.1092 -18.9210 -18.8606
   -18.7538 -18.7355 -18.7028 -18.7021 -18.6684 -18.5503 -18.5351 -15.2291
   -15.1251 -15.0973 -15.0763 -15.0482 -14.9845 -14.9258 -14.8943 -14.8535
   -14.8356 -14.8141 -14.7884 -14.7834 -14.5089 -14.4703 -12.6552 -12.6136
   -12.5915 -12.5625 -12.4659 -12.4516 -12.3995 -12.3869  -6.8956  -6.6971
    -6.6801  -6.6742  -3.8491  -3.7942  -3.6239  -3.5800  -3.3487  -3.3089
    -3.2873  -3.1747  -1.5070  -1.1828  -0.2775  -0.0210   0.9932   1.3799
     1.9400   2.0351   2.1236   3.5833   5.6783   6.1495   6.1743   6.3093
     6.9748   7.0288   7.2781   7.3712   7.3909   7.7006   7.7552   7.7866
     7.8071   8.1246   8.7559   9.4127   9.5466   9.9150   9.9729  10.1047
    10.1305  10.2561  10.3206  10.4777  10.6554  10.8941  11.0091  11.0894
    11.1952  11.4274  11.4565  11.4726  11.6171  11.7739  11.7793  11.8515
    11.8702  11.9136  12.0060  12.0946  12.2363  12.3814  12.4298  12.6096
    12.7471  12.8515  13.0300  13.1974  13.2491  13.2995  13.4600  13.6774
    13.7031  13.8508  13.8771  13.9052  13.9770  14.1517  14.2616  14.3190
    14.5257  14.5293  14.5803  14.6671  14.7495  14.8218  15.0292

     the Fermi energy is    12.0480 ev

!    total energy              =   -2631.12787267 Ry
     estimated scf accuracy    <       0.00042992 Ry
     smearing contrib. (-TS)   =      -0.07850022 Ry
     internal energy E=F+TS    =   -2631.04937245 Ry

     total magnetization       =     0.18 Bohr mag/cell
     absolute magnetization    =     0.22 Bohr mag/cell

     convergence has been achieved in  14 iterations

     negative rho (up, down):  6.949E-01 6.951E-01

     Forces acting on atoms (cartesian axes, Ry/au):

     atom    1 type  1   force =    -0.00164277    0.07726548   -0.00379823
     atom    2 type  1   force =    -0.07299756   63.85805826    0.00623996
     atom    3 type  1   force =    -0.07412924  -63.86030220   -0.00555720
     atom    4 type  1   force =     0.07191237   63.85857576    0.00552730
     atom    5 type  1   force =     0.07346606  -63.86093167   -0.00565564
     atom    6 type  2   force =    -0.00339441    0.13155724    0.01437208
     atom    7 type  2   force =    -0.00360580   -0.13236025   -0.01676552
     atom    8 type  3   force =    -0.00925567   -0.00034253    0.00460225
     atom    9 type  3   force =    -0.27769536   -0.00039266    0.00514811
     atom   10 type  3   force =    -0.05050491  109.84155031   -0.06530185
     atom   11 type  3   force =    -0.04749955  109.84301263    0.05413680
     atom   12 type  3   force =    -0.04916663 -109.83982124   -0.05734218
     atom   13 type  3   force =    -0.05235421 -109.84428627    0.07028957
     atom   14 type  3   force =     0.05051500  109.83843862   -0.06518146
     atom   15 type  3   force =     0.04735507  109.84082634    0.05436777
     atom   16 type  3   force =     0.04916017 -109.83643488   -0.05756239
     atom   17 type  3   force =     0.05221827 -109.84223973    0.07014673
     atom   18 type  4   force =    -0.00153144   -0.07556180   -0.00747178
     atom   19 type  4   force =     0.01672796   -0.01489310    0.02401593
     atom   20 type  4   force =     0.01910045    0.01629044   -0.02411062
     atom   21 type  4   force =    -0.01735235   -0.01471498    0.02548611
     atom   22 type  4   force =    -0.01970509    0.01598958   -0.02526742
     atom   23 type  5   force =     0.30037965    0.00071664   -0.00031833
     The non-local contrib.  to forces
     atom    1 type  1   force =     0.00253480   -0.40544825    0.07880346
     atom    2 type  1   force =     0.10462598  -60.49480734    0.01397742
     atom    3 type  1   force =     0.10386858   60.49530974   -0.01335236
     atom    4 type  1   force =    -0.10358506  -60.49506223    0.01372292
     atom    5 type  1   force =    -0.10269540   60.49551119   -0.01368776
     atom    6 type  2   force =     0.00046593    0.08106621   -0.00111111
     atom    7 type  2   force =     0.00034300   -0.07799290   -0.01167376
     atom    8 type  3   force =    -0.41696242    0.00370255   -0.00163419
     atom    9 type  3   force =     0.17035921    0.00347832   -0.00154672
     atom   10 type  3   force =     0.08904837  -42.50129713    0.06251265
     atom   11 type  3   force =     0.10613108  -42.48604082   -0.08065403
     atom   12 type  3   force =     0.10360254   42.48668617    0.07767031
     atom   13 type  3   force =     0.08677903   42.49917268   -0.06127882
     atom   14 type  3   force =    -0.08887582  -42.50525895    0.06298131
     atom   15 type  3   force =    -0.10578079  -42.48881305   -0.08073236
     atom   16 type  3   force =    -0.10310674   42.49072119    0.07782695
     atom   17 type  3   force =    -0.08666965   42.50179326   -0.06179718
     atom   18 type  4   force =     0.00014833   -0.05894419   -0.01817668
     atom   19 type  4   force =     0.09763722   -0.00607493    0.06454671
     atom   20 type  4   force =     0.08984771   -0.00127013   -0.05963421
     atom   21 type  4   force =    -0.09609453   -0.00633480    0.06524513
     atom   22 type  4   force =    -0.08857740   -0.00112797   -0.06009470
     atom   23 type  5   force =    -0.06498302    0.00034215   -0.00031592
     The ionic contribution  to forces
     atom    1 type  1   force =    -0.07877740   11.45302555   13.60990303
     atom    2 type  1   force =   -17.93328614  161.79040874    0.14998977
     atom    3 type  1   force =   -17.93328706 -161.79040638   -0.14999046
     atom    4 type  1   force =    17.91180920  161.74774198    0.14998977
     atom    5 type  1   force =    17.91181012 -161.74773962   -0.14999046
     atom    6 type  2   force =    -0.08534220   12.58969353  -14.42544296
     atom    7 type  2   force =    -0.08534217  -12.58970109   14.42543861
     atom    8 type  3   force =   -20.91555186    0.00000086    0.00000008
     atom    9 type  3   force =    19.08280495    0.00000080    0.00000003
     atom   10 type  3   force =   -12.74458597  190.80945284  -21.86530491
     atom   11 type  3   force =   -12.59806349  191.43361106   21.70902494
     atom   12 type  3   force =   -12.59806185 -191.43361009  -21.70902408
     atom   13 type  3   force =   -12.74458873 -190.80945081   21.86530689
     atom   14 type  3   force =    12.74083135  190.80393504  -21.88784415
     atom   15 type  3   force =    12.59430886  191.42809326   21.73156418
     atom   16 type  3   force =    12.59430723 -191.42809228  -21.73156332
     atom   17 type  3   force =    12.74083411 -190.80393301   21.88784613
     atom   18 type  4   force =    -0.07877740  -11.45303155  -13.60990607
     atom   19 type  4   force =   -12.13192847    0.33359640  -21.00341965
     atom   20 type  4   force =   -12.13193101   -0.33359584   21.00342112
     atom   21 type  4   force =    12.11577739    0.33359640  -21.08548608
     atom   22 type  4   force =    12.11577993   -0.33359584   21.08548756
     atom   23 type  5   force =     2.25126062    0.00000004    0.00000003
     The local contribution  to forces
     atom    1 type  1   force =     0.07796624  -10.93579130  -13.69563072
     atom    2 type  1   force =    17.72835624  -27.81753560   -0.16006201
     atom    3 type  1   force =    17.72892914   27.80926295    0.16005755
     atom    4 type  1   force =   -17.70841670  -27.77400011   -0.16121899
     atom    5 type  1   force =   -17.70874818   27.76554842    0.15946183
     atom    6 type  2   force =     0.08966995  -12.51155780   14.42461397
     atom    7 type  2   force =     0.08592642   12.51772463  -14.42589654
     atom    8 type  3   force =    21.34812929   -0.00095792    0.00232026
     atom    9 type  3   force =   -19.53452142   -0.00017602   -0.00059362
     atom   10 type  3   force =    12.58800120  -33.33716542   21.73187188
     atom   11 type  3   force =    12.43495827  -33.97817397  -21.57047695
     atom   12 type  3   force =    12.43036788   33.97530483   21.56877140
     atom   13 type  3   force =    12.59479964   33.33379304  -21.73113173
     atom   14 type  3   force =   -12.58338170  -33.32722133   21.75305395
     atom   15 type  3   force =   -12.43083449  -33.97005747  -21.59112406
     atom   16 type  3   force =   -12.42598941   33.96573808   21.58997572
     atom   17 type  3   force =   -12.59053122   33.32564671  -21.75175939
     atom   18 type  4   force =     0.08488856   11.41428893   13.60705675
     atom   19 type  4   force =    12.05417820   -0.34219762   20.96113373
     atom   20 type  4   force =    12.06609640    0.35518775  -20.96810398
     atom   21 type  4   force =   -12.03888314   -0.34157126   21.04359688
     atom   22 type  4   force =   -12.05062964    0.35470109  -21.04817396
     atom   23 type  5   force =    -1.88549725    0.00040397   -0.00085790
     The core correction contribution to forces
     atom    1 type  1   force =     0.00042911   -0.03109545    0.00714124
     atom    2 type  1   force =     0.01548377   -9.62391378    0.00176393
     atom    3 type  1   force =     0.01553592    9.62385381   -0.00146526
     atom    4 type  1   force =    -0.01545820   -9.62389461    0.00169350
     atom    5 type  1   force =    -0.01546278    9.62384127   -0.00142978
     atom    6 type  2   force =    -0.00001559   -0.01404248   -0.00205594
     atom    7 type  2   force =    -0.00000874    0.01383429    0.00265445
     atom    8 type  3   force =    -0.03510271    0.00039605   -0.00028220
     atom    9 type  3   force =     0.01525320    0.00016337    0.00010077
     atom   10 type  3   force =     0.00673884   -5.12667750    0.00423798
     atom   11 type  3   force =     0.00447198   -5.12834987   -0.00397741
     atom   12 type  3   force =     0.00509558    5.12828488    0.00382612
     atom   13 type  3   force =     0.00712235    5.12620531   -0.00446213
     atom   14 type  3   force =    -0.00661261   -5.12670099    0.00424432
     atom   15 type  3   force =    -0.00444589   -5.12832076   -0.00402229
     atom   16 type  3   force =    -0.00507244    5.12824187    0.00387244
     atom   17 type  3   force =    -0.00701898    5.12624024   -0.00446258
     atom   18 type  4   force =     0.00008140    0.00992859   -0.00071554
     atom   19 type  4   force =    -0.00965500    0.00057574   -0.00842391
     atom   20 type  4   force =    -0.00934695    0.00002689    0.00821608
     atom   21 type  4   force =     0.00964736    0.00059674   -0.00851685
     atom   22 type  4   force =     0.00934061    0.00001639    0.00830685
     atom   23 type  5   force =     0.00000000    0.00000000    0.00000000
     The Hubbard contrib.    to forces
     atom    1 type  1   force =     0.00000000    0.00000000    0.00000000
     atom    2 type  1   force =     0.00000000    0.00000000    0.00000000
     atom    3 type  1   force =     0.00000000    0.00000000    0.00000000
     atom    4 type  1   force =     0.00000000    0.00000000    0.00000000
     atom    5 type  1   force =     0.00000000    0.00000000    0.00000000
     atom    6 type  2   force =     0.00000000    0.00000000    0.00000000
     atom    7 type  2   force =     0.00000000    0.00000000    0.00000000
     atom    8 type  3   force =     0.00000000    0.00000000    0.00000000
     atom    9 type  3   force =     0.00000000    0.00000000    0.00000000
     atom   10 type  3   force =     0.00000000    0.00000000    0.00000000
     atom   11 type  3   force =     0.00000000    0.00000000    0.00000000
     atom   12 type  3   force =     0.00000000    0.00000000    0.00000000
     atom   13 type  3   force =     0.00000000    0.00000000    0.00000000
     atom   14 type  3   force =     0.00000000    0.00000000    0.00000000
     atom   15 type  3   force =     0.00000000    0.00000000    0.00000000
     atom   16 type  3   force =     0.00000000    0.00000000    0.00000000
     atom   17 type  3   force =     0.00000000    0.00000000    0.00000000
     atom   18 type  4   force =     0.00000000    0.00000000    0.00000000
     atom   19 type  4   force =     0.00000000    0.00000000    0.00000000
     atom   20 type  4   force =     0.00000000    0.00000000    0.00000000
     atom   21 type  4   force =     0.00000000    0.00000000    0.00000000
     atom   22 type  4   force =     0.00000000    0.00000000    0.00000000
     atom   23 type  5   force =     0.00000000    0.00000000    0.00000000
     The SCF correction term to forces
     atom    1 type  1   force =    -0.00000000   -0.00000000   -0.00000000
     atom    2 type  1   force =     0.00000000    0.00000000    0.00000000
     atom    3 type  1   force =     0.00000000    0.00000000   -0.00000000
     atom    4 type  1   force =    -0.00000000    0.00000000    0.00000000
     atom    5 type  1   force =    -0.00000000    0.00000000   -0.00000000
     atom    6 type  2   force =    -0.00000000   -0.00000000    0.00000000
     atom    7 type  2   force =    -0.00000000    0.00000000   -0.00000000
     atom    8 type  3   force =     0.00000000   -0.00000000    0.00000000
     atom    9 type  3   force =    -0.00000000   -0.00000000    0.00000000
     atom   10 type  3   force =     0.00000000   -0.00000000    0.00000000
     atom   11 type  3   force =     0.00000000    0.00000000   -0.00000000
     atom   12 type  3   force =     0.00000000    0.00000000    0.00000000
     atom   13 type  3   force =     0.00000000    0.00000000    0.00000000
     atom   14 type  3   force =    -0.00000000   -0.00000000    0.00000000
     atom   15 type  3   force =    -0.00000000   -0.00000000   -0.00000000
     atom   16 type  3   force =    -0.00000000    0.00000000    0.00000000
     atom   17 type  3   force =    -0.00000000    0.00000000    0.00000000
     atom   18 type  4   force =    -0.00000000    0.00000000    0.00000000
     atom   19 type  4   force =     0.00000000   -0.00000000    0.00000000
     atom   20 type  4   force =     0.00000000   -0.00000000   -0.00000000
     atom   21 type  4   force =    -0.00000000   -0.00000000    0.00000000
     atom   22 type  4   force =    -0.00000000   -0.00000000   -0.00000000
     atom   23 type  5   force =    -0.00020463   -0.00012273    0.00057126

     Total force =     0.300381     Total SCF correction =     0.000619

     Molecular Dynamics Calculation

     Starting temperature  =   300.00 K

     temperature is set once at start

     mass Hf               =   178.49
     mass Nb               =    92.91
     mass Ta               =   180.95
     mass Zr               =    91.22
     mass H                =     2.01
     Time step             =    10.50 a.u.,  0.5080 femto-seconds

     Entering Dynamics:    iteration =     1
                           time      =   0.0005 pico-seconds


ATOMIC_POSITIONS (angstrom)
Hf            1.8699999570        1.8699999570        7.0100002690    0   0   0
Hf            0.2000000000        0.2000000000        5.3399999140    0   0   0
Hf            0.2000000000        6.8799998280        5.3399999140    0   0   0
Hf            3.5399999140        0.2000000000        5.3399999140    0   0   0
Hf            3.5399999140        6.8799998280        5.3399999140    0   0   0
Nb            1.8699999570        1.8699999570        3.6699999570    0   0   0
Nb            1.8699999570        5.2100002690        7.0100002690    0   0   0
Ta            0.2000000000        3.5399999140        5.3399999140    0   0   0
Ta            3.5399999140        3.5399999140        5.3399999140    0   0   0
Ta            0.2000000000        0.2000000000        2.0000000000    0   0   0
Ta            0.2000000000        0.2000000000        8.6799998280    0   0   0
Ta            0.2000000000        6.8799998280        2.0000000000    0   0   0
Ta            0.2000000000        6.8799998280        8.6799998280    0   0   0
Ta            3.5399999140        0.2000000000        2.0000000000    0   0   0
Ta            3.5399999140        0.2000000000        8.6799998280    0   0   0
Ta            3.5399999140        6.8799998280        2.0000000000    0   0   0
Ta            3.5399999140        6.8799998280        8.6799998280    0   0   0
Zr            1.8699999570        5.2100002690        3.6699999570    0   0   0
Zr            0.2000000000        3.5399999140        2.0000000000    0   0   0
Zr            0.2000000000        3.5399999140        8.6799998280    0   0   0
Zr            3.5399999140        3.5399999140        2.0000000000    0   0   0
Zr            3.5399999140        3.5399999140        8.6799998280    0   0   0
H             4.9085869441        3.5400113385        5.3399948916


     kinetic energy (Ekin) =           0.55137389 Ry
     temperature           =       58036.70163102 K 
     Ekin + Etot (const)   =       -2630.57649878 Ry

     File outdir/pwscf.msd.dat deleted, as requested

     Writing config-only to output data dir outdir/pwscf.save/
     NEW-OLD atomic charge density approx. for the potential

     Check: negative core charge=   -0.000002

     negative rho (up, down):  6.948E-01 6.950E-01
     Generating pointlists ...
     new r_m :   0.0802 (alat units)  1.0668 (a.u.) for type    5

     total cpu time spent up to now is      442.2 secs

     Self-consistent Calculation

     iteration #  1     ecut=   120.00 Ry     beta= 0.70
     Davidson diagonalization with overlap
     ethr =  1.00E-06,  avg # of iterations =  6.0

     negative rho (up, down):  6.950E-01 6.953E-01

     total cpu time spent up to now is      487.3 secs

     total energy              =   -2631.01108490 Ry
     estimated scf accuracy    <       0.12801490 Ry

     total magnetization       =     0.20 Bohr mag/cell
     absolute magnetization    =     0.24 Bohr mag/cell

     iteration #  2     ecut=   120.00 Ry     beta= 0.70
     Davidson diagonalization with overlap
     ethr =  4.62E-05,  avg # of iterations =  2.0

     negative rho (up, down):  6.948E-01 6.951E-01

     total cpu time spent up to now is      514.6 secs

     total energy              =   -2631.02346382 Ry
     estimated scf accuracy    <       0.08127067 Ry

     total magnetization       =     0.19 Bohr mag/cell
     absolute magnetization    =     0.23 Bohr mag/cell

     iteration #  3     ecut=   120.00 Ry     beta= 0.70
     Davidson diagonalization with overlap
     ethr =  2.93E-05,  avg # of iterations =  1.0

     negative rho (up, down):  6.947E-01 6.949E-01

     total cpu time spent up to now is      540.2 secs

     total energy              =   -2631.02858289 Ry
     estimated scf accuracy    <       0.00256826 Ry

     total magnetization       =     0.20 Bohr mag/cell
     absolute magnetization    =     0.24 Bohr mag/cell

     iteration #  4     ecut=   120.00 Ry     beta= 0.70
     Davidson diagonalization with overlap
     ethr =  9.27E-07,  avg # of iterations =  3.0

     negative rho (up, down):  6.946E-01 6.949E-01

     Magnetic moment per site  (integrated on atomic sphere of radius R)
     atom   1 (R=0.041)  charge=  0.0282  magn=  0.0000
     atom   2 (R=0.041)  charge=  0.2750  magn=  0.0001
     atom   3 (R=0.041)  charge=  0.2758  magn=  0.0001
     atom   4 (R=0.041)  charge=  0.2750  magn=  0.0000
     atom   5 (R=0.041)  charge=  0.2758  magn=  0.0000
     atom   6 (R=0.169)  charge= 10.9565  magn=  0.0070
     atom   7 (R=0.169)  charge= 10.9495  magn=  0.0009
     atom   8 (R=0.041)  charge=  0.0851  magn=  0.0000
     atom   9 (R=0.041)  charge=  0.0868  magn= -0.0000
     atom  10 (R=0.041)  charge=  0.3860  magn= -0.0000
     atom  11 (R=0.041)  charge=  0.3859  magn= -0.0000
     atom  12 (R=0.041)  charge=  0.3868  magn= -0.0000
     atom  13 (R=0.041)  charge=  0.3869  magn= -0.0000
     atom  14 (R=0.041)  charge=  0.3860  magn= -0.0000
     atom  15 (R=0.041)  charge=  0.3859  magn=  0.0000
     atom  16 (R=0.041)  charge=  0.3868  magn=  0.0000
     atom  17 (R=0.041)  charge=  0.3869  magn= -0.0000
     atom  18 (R=0.169)  charge=  9.8690  magn=  0.0168
     atom  19 (R=0.169)  charge=  9.5869  magn=  0.0051
     atom  20 (R=0.169)  charge=  9.5914  magn=  0.0053
     atom  21 (R=0.169)  charge=  9.5988  magn=  0.0522
     atom  22 (R=0.169)  charge=  9.5988  magn=  0.0198
     atom  23 (R=0.080)  charge=  0.8748  magn=  0.0002

     total cpu time spent up to now is      567.1 secs

     End of self-consistent calculation

 ------ SPIN UP ------------


          k = 0.0000 0.0000 0.0000 ( 41567 PWs)   bands (ev):

  -154.5338-154.5309-154.5078-154.5045-148.6046-148.5982 -60.5198 -60.5123
   -60.4916 -60.4838 -60.3816 -60.3752 -60.3563 -60.3494 -56.1948 -56.1430
   -56.1387 -56.1190 -56.1145 -55.5969 -50.4211 -50.4155 -49.9836 -49.9608
   -49.8692 -49.8601 -49.8465 -42.6311 -42.6130 -36.9552 -36.9327 -36.9240
   -36.9148 -36.5656 -31.1567 -31.1334 -31.1274 -31.1049 -25.0303 -24.9801
   -22.7721 -22.5720 -22.5022 -22.4766 -22.1077 -22.0137 -18.9103 -18.8666
   -18.7402 -18.7389 -18.7109 -18.6888 -18.6762 -18.5604 -18.5450 -15.2456
   -15.1395 -15.1000 -15.0799 -15.0533 -14.9864 -14.9356 -14.9048 -14.8577
   -14.8399 -14.8169 -14.8025 -14.7885 -14.5313 -14.4917 -12.6766 -12.6257
   -12.6123 -12.5746 -12.4849 -12.4607 -12.4190 -12.3953  -6.9031  -6.7051
    -6.6885  -6.6819  -3.8705  -3.8107  -3.6460  -3.5949  -3.3702  -3.3259
    -3.3048  -3.1918  -1.5250  -1.1999  -0.2953  -0.0381   0.9824   1.3696
     1.9304   2.0238   2.1110   3.5731   5.6632   6.1368   6.1833   6.2991
     6.9614   7.0198   7.2638   7.3593   7.3726   7.6863   7.7465   7.7712
     7.7935   8.1080   8.7086   9.4060   9.5384   9.9091   9.9591  10.0975
    10.1143  10.2539  10.3149  10.4684  10.7064  10.8901  10.9910  11.0799
    11.1874  11.4200  11.4468  11.4706  11.6084  11.7545  11.7663  11.8301
    11.8533  11.9032  11.9913  12.0601  12.2199  12.3636  12.4236  12.5973
    12.7387  12.8419  13.0102  13.1938  13.2410  13.2880  13.4392  13.6702
    13.6960  13.8444  13.8642  13.8962  13.9668  14.1498  14.2448  14.3017
    14.4058  14.5118  14.5673  14.6173  14.7318  14.8013  15.0170

 ------ SPIN DOWN ----------


          k = 0.0000 0.0000 0.0000 ( 41567 PWs)   bands (ev):

  -154.5338-154.5306-154.5076-154.5042-148.6044-148.5977 -60.5198 -60.5122
   -60.4915 -60.4836 -60.3815 -60.3750 -60.3562 -60.3493 -56.1948 -56.1429
   -56.1384 -56.1188 -56.1142 -55.6000 -50.4209 -50.4148 -49.9834 -49.9606
   -49.8684 -49.8595 -49.8449 -42.6302 -42.6088 -36.9349 -36.9245 -36.9097
   -36.9072 -36.5555 -31.1566 -31.1332 -31.1273 -31.1046 -25.0294 -24.9790
   -22.7717 -22.5724 -22.5026 -22.4792 -22.1133 -22.0188 -18.9090 -18.8620
   -18.7388 -18.7375 -18.7086 -18.6869 -18.6691 -18.5572 -18.5417 -15.2248
   -15.1166 -15.0867 -15.0678 -15.0430 -14.9794 -14.9160 -14.8832 -14.8467
   -14.8278 -14.8010 -14.7935 -14.7826 -14.5148 -14.4756 -12.6764 -12.6251
   -12.6120 -12.5738 -12.4845 -12.4603 -12.4188 -12.3950  -6.9027  -6.7044
    -6.6876  -6.6814  -3.8703  -3.8105  -3.6459  -3.5947  -3.3700  -3.3257
    -3.3046  -3.1916  -1.5249  -1.1998  -0.2952  -0.0380   0.9825   1.3700
     1.9308   2.0243   2.1118   3.5736   5.6638   6.1377   6.1841   6.3014
     6.9634   7.0219   7.2677   7.3631   7.3748   7.6904   7.7490   7.7735
     7.7980   8.1102   8.7164   9.4094   9.5465   9.9131   9.9603  10.1029
    10.1258  10.2570  10.3178  10.4725  10.7104  10.8960  11.0047  11.0843
    11.1946  11.4279  11.4556  11.4773  11.6202  11.7687  11.7813  11.8437
    11.8736  11.9184  12.0035  12.0955  12.2265  12.3831  12.4356  12.6088
    12.7476  12.8475  13.0182  13.1982  13.2458  13.2966  13.4497  13.6726
    13.7083  13.8569  13.8719  13.9117  13.9787  14.1565  14.2490  14.3095
    14.4122  14.5192  14.5782  14.6216  14.7391  14.8088  15.0223

     the Fermi energy is    12.0461 ev

!    total energy              =   -2631.02841626 Ry
     estimated scf accuracy    <       0.00061737 Ry
     smearing contrib. (-TS)   =      -0.07870191 Ry
     internal energy E=F+TS    =   -2630.94971435 Ry

     total magnetization       =     0.21 Bohr mag/cell
     absolute magnetization    =     0.25 Bohr mag/cell

     convergence has been achieved in   4 iterations

     negative rho (up, down):  6.946E-01 6.949E-01

     Forces acting on atoms (cartesian axes, Ry/au):

     atom    1 type  1   force =    -0.00250024    0.07444666   -0.01159717
     atom    2 type  1   force =    -0.06290155   63.82732296    0.00781586
     atom    3 type  1   force =    -0.06452843  -63.82680473   -0.00504706
     atom    4 type  1   force =     0.06162514   63.82981313    0.00747006
     atom    5 type  1   force =     0.06379881  -63.82944561   -0.00479419
     atom    6 type  2   force =    -0.00527908    0.13006357    0.01625533
     atom    7 type  2   force =    -0.00534792   -0.13177071   -0.01883228
     atom    8 type  3   force =    -0.00242359   -0.00151323    0.00507458
     atom    9 type  3   force =    -0.48891730   -0.00169442    0.00623255
     atom   10 type  3   force =    -0.04702530  109.84008161   -0.06512252
     atom   11 type  3   force =    -0.04569351  109.83061007    0.05296429
     atom   12 type  3   force =    -0.04576756 -109.83869246   -0.05717921
     atom   13 type  3   force =    -0.05107498 -109.83084451    0.06952420
     atom   14 type  3   force =     0.04670689  109.83974162   -0.06464091
     atom   15 type  3   force =     0.04528919  109.83049457    0.05274177
     atom   16 type  3   force =     0.04534465 -109.83792254   -0.05706396
     atom   17 type  3   force =     0.05085020 -109.83096030    0.06887806
     atom   18 type  4   force =    -0.00310647   -0.07235271   -0.00065895
     atom   19 type  4   force =     0.01956613   -0.01492296    0.02905631
     atom   20 type  4   force =     0.01960821    0.01437998   -0.02955918
     atom   21 type  4   force =    -0.02095431   -0.01473653    0.03221992
     atom   22 type  4   force =    -0.02071150    0.01395966   -0.03255480
     atom   23 type  5   force =     0.51344250    0.00074688   -0.00118268
     The non-local contrib.  to forces
     atom    1 type  1   force =     0.00348911   -0.40805080    0.07423000
     atom    2 type  1   force =     0.11210467  -60.52615407    0.01530838
     atom    3 type  1   force =     0.11120244   60.52798513   -0.01291270
     atom    4 type  1   force =    -0.11075468  -60.52511812    0.01549451
     atom    5 type  1   force =    -0.10958916   60.52676948   -0.01309328
     atom    6 type  2   force =     0.00075117    0.08297270    0.00122810
     atom    7 type  2   force =     0.00078613   -0.08018285   -0.01412969
     atom    8 type  3   force =    -0.44368807    0.00286812   -0.00043930
     atom    9 type  3   force =     0.22412281    0.00245594   -0.00003224
     atom   10 type  3   force =     0.09326930  -42.50320057    0.06194346
     atom   11 type  3   force =     0.10812599  -42.50009600   -0.08040132
     atom   12 type  3   force =     0.10776357   42.48836050    0.07721641
     atom   13 type  3   force =     0.08835792   42.51490485   -0.06047992
     atom   14 type  3   force =    -0.09314740  -42.50376894    0.06293511
     atom   15 type  3   force =    -0.10772014  -42.50058709   -0.08117894
     atom   16 type  3   force =    -0.10732444   42.48916057    0.07787772
     atom   17 type  3   force =    -0.08813795   42.51506399   -0.06179328
     atom   18 type  4   force =     0.00030846   -0.05957866   -0.01143787
     atom   19 type  4   force =     0.09907027   -0.00627666    0.06871426
     atom   20 type  4   force =     0.08952333   -0.00293054   -0.06364812
     atom   21 type  4   force =    -0.09810376   -0.00653723    0.07057820
     atom   22 type  4   force =    -0.08884137   -0.00275096   -0.06537534
     atom   23 type  5   force =    -0.09797851    0.00042877   -0.00050620
     The ionic contribution  to forces
     atom    1 type  1   force =    -0.10801794   11.44662501   13.61676936
     atom    2 type  1   force =   -17.94392876  161.79679118    0.14999064
     atom    3 type  1   force =   -17.94392863 -161.79678345   -0.14998959
     atom    4 type  1   force =    17.91553840  161.73875846    0.14999087
     atom    5 type  1   force =    17.91553776 -161.73874676   -0.14998936
     atom    6 type  2   force =    -0.11702012   12.58275882  -14.43288076
     atom    7 type  2   force =    -0.11702081  -12.58276725   14.43287892
     atom    8 type  3   force =   -21.10306829   -0.00000530    0.00000323
     atom    9 type  3   force =    18.41538558   -0.00003082    0.00001448
     atom   10 type  3   force =   -12.74748538  190.81035894  -21.86152586
     atom   11 type  3   force =   -12.60096318  191.43451731   21.70524513
     atom   12 type  3   force =   -12.60096111 -191.43451470  -21.70524536
     atom   13 type  3   force =   -12.74748827 -190.81035557   21.86152741
     atom   14 type  3   force =    12.74246105  190.80287477  -21.89208769
     atom   15 type  3   force =    12.59593889  191.42703322   21.73580677
     atom   16 type  3   force =    12.59593675 -191.42703005  -21.73580737
     atom   17 type  3   force =    12.74246395 -190.80287100   21.89208923
     atom   18 type  4   force =    -0.10801985  -11.44663035  -13.61677339
     atom   19 type  4   force =   -12.13946275    0.33359558  -20.99061371
     atom   20 type  4   force =   -12.13946623   -0.33359667   20.99061353
     atom   21 type  4   force =    12.11813623    0.33359521  -21.10210214
     atom   22 type  4   force =    12.11814004   -0.33359704   21.10210076
     atom   23 type  5   force =     3.25729269    0.00002045   -0.00001512
     The local contribution  to forces
     atom    1 type  1   force =     0.10666328  -10.93928699  -13.72393507
     atom    2 type  1   force =    17.76407587  -27.81833636   -0.15382804
     atom    3 type  1   force =    17.76295492   27.82219795    0.16230201
     atom    4 type  1   force =   -17.73690967  -27.75690097   -0.15396356
     atom    5 type  1   force =   -17.73547562   27.76054696    0.16284732
     atom    6 type  2   force =     0.12002713  -12.52819186   14.48093786
     atom    7 type  2   force =     0.11722154   12.52196027  -14.46094797
     atom    8 type  3   force =    21.62147923   -0.00825887    0.01291859
     atom    9 type  3   force =   -19.14451360   -0.00745528    0.01136611
     atom   10 type  3   force =    12.61112476  -33.34780720   21.74370924
     atom   11 type  3   force =    12.44714274  -33.97525386  -21.58419826
     atom   12 type  3   force =    12.45370024   33.98508797   21.58137668
     atom   13 type  3   force =    12.60393954   33.34990418  -21.74162293
     atom   14 type  3   force =   -12.60581605  -33.33639038   21.77494421
     atom   15 type  3   force =   -12.44203225  -33.96587211  -21.61562155
     atom   16 type  3   force =   -12.44869906   33.97460831   21.61265640
     atom   17 type  3   force =   -12.59864740   33.34021265  -21.77310571
     atom   18 type  4   force =     0.11290384   11.43034303   13.65301183
     atom   19 type  4   force =    12.07728146   -0.34203101   20.97663881
     atom   20 type  4   force =    12.07865415    0.34524198  -20.98400727
     atom   21 type  4   force =   -12.05946816   -0.34155699   21.09879543
     atom   22 type  4   force =   -12.05925092    0.34446234  -21.10397449
     atom   23 type  5   force =    -2.65187354    0.00012291    0.00056492
     The core correction contribution to forces
     atom    1 type  1   force =     0.00046167   -0.03150058    0.00743233
     atom    2 type  1   force =     0.01565025   -9.62396453    0.00171963
     atom    3 type  1   force =     0.01571553    9.62393038   -0.00145090
     atom    4 type  1   force =    -0.01561583   -9.62399837    0.00163830
     atom    5 type  1   force =    -0.01561649    9.62397338   -0.00141009
     atom    6 type  2   force =    -0.00001683   -0.01414349   -0.00207221
     atom    7 type  2   force =    -0.00001410    0.01393621    0.00271985
     atom    8 type  3   force =    -0.03880951    0.00044809   -0.00031498
     atom    9 type  3   force =     0.01659345    0.00010222    0.00016908
     atom   10 type  3   force =     0.00681576   -5.12665261    0.00413359
     atom   11 type  3   force =     0.00453155   -5.12832126   -0.00389541
     atom   12 type  3   force =     0.00516565    5.12824420    0.00372110
     atom   13 type  3   force =     0.00715575    5.12623861   -0.00439821
     atom   14 type  3   force =    -0.00667085   -5.12669913    0.00414610
     atom   15 type  3   force =    -0.00447452   -5.12832021   -0.00395180
     atom   16 type  3   force =    -0.00512505    5.12821598    0.00377188
     atom   17 type  3   force =    -0.00701735    5.12629582   -0.00440695
     atom   18 type  4   force =     0.00007659    0.01012591   -0.00077185
     atom   19 type  4   force =    -0.00959502    0.00059037   -0.00841850
     atom   20 type  4   force =    -0.00927413    0.00005671    0.00824409
     atom   21 type  4   force =     0.00959574    0.00061041   -0.00853286
     atom   22 type  4   force =     0.00928313    0.00004069    0.00834780
     atom   23 type  5   force =     0.00000000    0.00000000    0.00000000
     The Hubbard contrib.    to forces
     atom    1 type  1   force =     0.00000000    0.00000000    0.00000000
     atom    2 type  1   force =     0.00000000    0.00000000    0.00000000
     atom    3 type  1   force =     0.00000000    0.00000000    0.00000000
     atom    4 type  1   force =     0.00000000    0.00000000    0.00000000
     atom    5 type  1   force =     0.00000000    0.00000000    0.00000000
     atom    6 type  2   force =     0.00000000    0.00000000    0.00000000
     atom    7 type  2   force =     0.00000000    0.00000000    0.00000000
     atom    8 type  3   force =     0.00000000    0.00000000    0.00000000
     atom    9 type  3   force =     0.00000000    0.00000000    0.00000000
     atom   10 type  3   force =     0.00000000    0.00000000    0.00000000
     atom   11 type  3   force =     0.00000000    0.00000000    0.00000000
     atom   12 type  3   force =     0.00000000    0.00000000    0.00000000
     atom   13 type  3   force =     0.00000000    0.00000000    0.00000000
     atom   14 type  3   force =     0.00000000    0.00000000    0.00000000
     atom   15 type  3   force =     0.00000000    0.00000000    0.00000000
     atom   16 type  3   force =     0.00000000    0.00000000    0.00000000
     atom   17 type  3   force =     0.00000000    0.00000000    0.00000000
     atom   18 type  4   force =     0.00000000    0.00000000    0.00000000
     atom   19 type  4   force =     0.00000000    0.00000000    0.00000000
     atom   20 type  4   force =     0.00000000    0.00000000    0.00000000
     atom   21 type  4   force =     0.00000000    0.00000000    0.00000000
     atom   22 type  4   force =     0.00000000    0.00000000    0.00000000
     atom   23 type  5   force =     0.00000000    0.00000000    0.00000000
     The SCF correction term to forces
     atom    1 type  1   force =    -0.00000000    0.00000000    0.00000000
     atom    2 type  1   force =    -0.00000000   -0.00000000   -0.00000000
     atom    3 type  1   force =    -0.00000000   -0.00000000   -0.00000000
     atom    4 type  1   force =     0.00000000   -0.00000000   -0.00000000
     atom    5 type  1   force =     0.00000000   -0.00000000   -0.00000000
     atom    6 type  2   force =    -0.00000000    0.00000000   -0.00000000
     atom    7 type  2   force =    -0.00000000   -0.00000000    0.00000000
     atom    8 type  3   force =    -0.00000000    0.00000000   -0.00000000
     atom    9 type  3   force =    -0.00000000    0.00000000   -0.00000000
     atom   10 type  3   force =    -0.00000000    0.00000000   -0.00000000
     atom   11 type  3   force =    -0.00000000   -0.00000000    0.00000000
     atom   12 type  3   force =    -0.00000000   -0.00000000   -0.00000000
     atom   13 type  3   force =    -0.00000000   -0.00000000    0.00000000
     atom   14 type  3   force =     0.00000000    0.00000000   -0.00000000
     atom   15 type  3   force =     0.00000000   -0.00000000    0.00000000
     atom   16 type  3   force =     0.00000000   -0.00000000   -0.00000000
     atom   17 type  3   force =     0.00000000   -0.00000000    0.00000000
     atom   18 type  4   force =    -0.00000000   -0.00000000   -0.00000000
     atom   19 type  4   force =    -0.00000000   -0.00000000   -0.00000000
     atom   20 type  4   force =     0.00000000    0.00000000    0.00000000
     atom   21 type  4   force =     0.00000000   -0.00000000   -0.00000000
     atom   22 type  4   force =     0.00000000    0.00000000    0.00000000
     atom   23 type  5   force =     0.00634472    0.00022230   -0.00090049

     Total force =     0.513444     Total SCF correction =     0.006412

     Entering Dynamics:    iteration =     2
                           time      =   0.0010 pico-seconds


ATOMIC_POSITIONS (angstrom)
Hf            1.8699999570        1.8699999570        7.0100002690    0   0   0
Hf            0.2000000000        0.2000000000        5.3399999140    0   0   0
Hf            0.2000000000        6.8799998280        5.3399999140    0   0   0
Hf            3.5399999140        0.2000000000        5.3399999140    0   0   0
Hf            3.5399999140        6.8799998280        5.3399999140    0   0   0
Nb            1.8699999570        1.8699999570        3.6699999570    0   0   0
Nb            1.8699999570        5.2100002690        7.0100002690    0   0   0
Ta            0.2000000000        3.5399999140        5.3399999140    0   0   0
Ta            3.5399999140        3.5399999140        5.3399999140    0   0   0
Ta            0.2000000000        0.2000000000        2.0000000000    0   0   0
Ta            0.2000000000        0.2000000000        8.6799998280    0   0   0
Ta            0.2000000000        6.8799998280        2.0000000000    0   0   0
Ta            0.2000000000        6.8799998280        8.6799998280    0   0   0
Ta            3.5399999140        0.2000000000        2.0000000000    0   0   0
Ta            3.5399999140        0.2000000000        8.6799998280    0   0   0
Ta            3.5399999140        6.8799998280        2.0000000000    0   0   0
Ta            3.5399999140        6.8799998280        8.6799998280    0   0   0
Zr            1.8699999570        5.2100002690        3.6699999570    0   0   0
Zr            0.2000000000        3.5399999140        2.0000000000    0   0   0
Zr            0.2000000000        3.5399999140        8.6799998280    0   0   0
Zr            3.5399999140        3.5399999140        2.0000000000    0   0   0
Zr            3.5399999140        3.5399999140        8.6799998280    0   0   0
H             4.7934925396        3.5400464646        5.3399522442


     kinetic energy (Ekin) =           0.45162563 Ry
     temperature           =       47537.36533553 K 
     Ekin + Etot (const)   =       -2630.57679062 Ry

     Writing config-only to output data dir outdir/pwscf.save/
     NEW-OLD atomic charge density approx. for the potential

     Check: negative core charge=   -0.000002

     negative rho (up, down):  6.945E-01 6.947E-01
     Generating pointlists ...
     new r_m :   0.0734 (alat units)  0.9771 (a.u.) for type    5

     total cpu time spent up to now is      584.4 secs

     Self-consistent Calculation

     iteration #  1     ecut=   120.00 Ry     beta= 0.70
     Davidson diagonalization with overlap
     ethr =  1.00E-06,  avg # of iterations =  7.0

     negative rho (up, down):  6.943E-01 6.946E-01

     total cpu time spent up to now is      628.3 secs

     total energy              =   -2630.87952688 Ry
     estimated scf accuracy    <       0.07210634 Ry

     total magnetization       =     0.21 Bohr mag/cell
     absolute magnetization    =     0.26 Bohr mag/cell

     iteration #  2     ecut=   120.00 Ry     beta= 0.70
     Davidson diagonalization with overlap
     ethr =  2.60E-05,  avg # of iterations =  2.0

     negative rho (up, down):  6.943E-01 6.946E-01

     total cpu time spent up to now is      654.6 secs

     total energy              =   -2630.88410274 Ry
     estimated scf accuracy    <       0.02800360 Ry

     total magnetization       =     0.22 Bohr mag/cell
     absolute magnetization    =     0.26 Bohr mag/cell

     iteration #  3     ecut=   120.00 Ry     beta= 0.70
     Davidson diagonalization with overlap
     ethr =  1.01E-05,  avg # of iterations =  2.0

     negative rho (up, down):  6.943E-01 6.945E-01

     total cpu time spent up to now is      680.0 secs

     total energy              =   -2630.88661404 Ry
     estimated scf accuracy    <       0.00470833 Ry

     total magnetization       =     0.22 Bohr mag/cell
     absolute magnetization    =     0.27 Bohr mag/cell

     iteration #  4     ecut=   120.00 Ry     beta= 0.70
     Davidson diagonalization with overlap
     ethr =  1.70E-06,  avg # of iterations =  2.0

     negative rho (up, down):  6.942E-01 6.945E-01

     total cpu time spent up to now is      705.4 secs

     total energy              =   -2630.88671038 Ry
     estimated scf accuracy    <       0.00131628 Ry

     total magnetization       =     0.23 Bohr mag/cell
     absolute magnetization    =     0.28 Bohr mag/cell

     iteration #  5     ecut=   120.00 Ry     beta= 0.70
     Davidson diagonalization with overlap
     ethr =  4.75E-07,  avg # of iterations =  1.0

     negative rho (up, down):  6.943E-01 6.946E-01

     Magnetic moment per site  (integrated on atomic sphere of radius R)
     atom   1 (R=0.041)  charge=  0.0281  magn=  0.0000
     atom   2 (R=0.041)  charge=  0.2749  magn=  0.0001
     atom   3 (R=0.041)  charge=  0.2757  magn=  0.0001
     atom   4 (R=0.041)  charge=  0.2750  magn=  0.0000
     atom   5 (R=0.041)  charge=  0.2758  magn=  0.0000
     atom   6 (R=0.169)  charge= 10.9593  magn=  0.0075
     atom   7 (R=0.169)  charge= 10.9528  magn= -0.0002
     atom   8 (R=0.041)  charge=  0.0852  magn=  0.0000
     atom   9 (R=0.041)  charge=  0.0879  magn= -0.0000
     atom  10 (R=0.041)  charge=  0.3860  magn= -0.0000
     atom  11 (R=0.041)  charge=  0.3858  magn= -0.0000
     atom  12 (R=0.041)  charge=  0.3868  magn= -0.0000
     atom  13 (R=0.041)  charge=  0.3869  magn= -0.0000
     atom  14 (R=0.041)  charge=  0.3859  magn= -0.0000
     atom  15 (R=0.041)  charge=  0.3858  magn=  0.0000
     atom  16 (R=0.041)  charge=  0.3868  magn=  0.0000
     atom  17 (R=0.041)  charge=  0.3869  magn= -0.0000
     atom  18 (R=0.169)  charge=  9.8630  magn=  0.0200
     atom  19 (R=0.169)  charge=  9.6035  magn=  0.0052
     atom  20 (R=0.169)  charge=  9.5992  magn=  0.0044
     atom  21 (R=0.169)  charge=  9.5944  magn=  0.0627
     atom  22 (R=0.169)  charge=  9.5938  magn=  0.0233
     atom  23 (R=0.073)  charge=  0.8436  magn=  0.0002

     total cpu time spent up to now is      729.5 secs

     End of self-consistent calculation

 ------ SPIN UP ------------


          k = 0.0000 0.0000 0.0000 ( 41567 PWs)   bands (ev):

  -154.5225-154.5198-154.5095-154.5073-148.5960-148.5896 -60.5064 -60.4995
   -60.4933 -60.4865 -60.3682 -60.3625 -60.3598 -60.3542 -56.2019 -56.1317
   -56.1283 -56.1213 -56.1183 -55.5042 -50.4114 -50.4054 -49.9705 -49.9475
   -49.8632 -49.8501 -49.8420 -42.6326 -42.6147 -36.9526 -36.9345 -36.9283
   -36.9129 -36.5579 -31.1471 -31.1365 -31.1179 -31.1082 -25.0201 -24.9698
   -22.8153 -22.6497 -22.5722 -22.5025 -21.9953 -21.8992 -18.9110 -18.8675
   -18.7400 -18.7384 -18.7100 -18.6905 -18.6776 -18.5619 -18.5447 -15.2453
   -15.1414 -15.0995 -15.0793 -15.0523 -14.9844 -14.9351 -14.9075 -14.8630
   -14.8410 -14.8188 -14.7963 -14.7860 -14.5271 -14.4880 -12.6648 -12.6283
   -12.6011 -12.5769 -12.4746 -12.4641 -12.4078 -12.3998  -6.8893  -6.6940
    -6.6772  -6.6681  -3.8617  -3.8084  -3.6357  -3.5943  -3.3611  -3.3227
    -3.3000  -3.1877  -1.5186  -1.1950  -0.2892  -0.0336   1.0008   1.3856
     1.9460   2.0371   2.1244   3.5893   5.6787   6.1434   6.2341   6.3080
     6.9684   7.0293   7.2660   7.3585   7.3720   7.6874   7.7603   7.7771
     7.7941   8.1106   8.6750   9.4111   9.5362   9.9151   9.9629  10.1002
    10.1167  10.2581  10.3149  10.4756  10.7805  10.9055  10.9930  11.0869
    11.1884  11.4189  11.4448  11.4850  11.6082  11.7475  11.7682  11.8127
    11.8540  11.9027  11.9895  12.0546  12.2196  12.3650  12.4134  12.5992
    12.7435  12.8387  13.0064  13.1981  13.2424  13.2883  13.4300  13.6714
    13.6995  13.8419  13.8619  13.8935  13.9678  14.1451  14.2046  14.2770
    14.3356  14.5052  14.5631  14.6107  14.7301  14.8032  15.0166

 ------ SPIN DOWN ----------


          k = 0.0000 0.0000 0.0000 ( 41567 PWs)   bands (ev):

  -154.5224-154.5196-154.5092-154.5069-148.5957-148.5890 -60.5064 -60.4994
   -60.4932 -60.4862 -60.3681 -60.3623 -60.3597 -60.3540 -56.2018 -56.1316
   -56.1280 -56.1211 -56.1179 -55.5079 -50.4111 -50.4045 -49.9703 -49.9472
   -49.8617 -49.8495 -49.8408 -42.6327 -42.6103 -36.9431 -36.9301 -36.9000
   -36.8962 -36.5457 -31.1470 -31.1362 -31.1178 -31.1079 -25.0189 -24.9685
   -22.8153 -22.6520 -22.5726 -22.5027 -22.0020 -21.9052 -18.9105 -18.8628
   -18.7393 -18.7377 -18.7075 -18.6896 -18.6700 -18.5586 -18.5409 -15.2234
   -15.1142 -15.0839 -15.0670 -15.0379 -14.9766 -14.9176 -14.8789 -14.8565
   -14.8220 -14.7982 -14.7827 -14.7791 -14.5101 -14.4659 -12.6646 -12.6276
   -12.6008 -12.5760 -12.4742 -12.4636 -12.4075 -12.3995  -6.8887  -6.6932
    -6.6761  -6.6675  -3.8615  -3.8083  -3.6356  -3.5941  -3.3609  -3.3225
    -3.2998  -3.1875  -1.5185  -1.1949  -0.2890  -0.0335   1.0010   1.3861
     1.9465   2.0378   2.1253   3.5898   5.6793   6.1444   6.2350   6.3107
     6.9708   7.0317   7.2705   7.3627   7.3745   7.6922   7.7632   7.7799
     7.7988   8.1131   8.6840   9.4151   9.5455   9.9196   9.9642  10.1064
    10.1301  10.2620  10.3182  10.4802  10.7852  10.9122  11.0087  11.0917
    11.1966  11.4280  11.4552  11.4929  11.6215  11.7710  11.7772  11.8304
    11.8763  11.9202  12.0037  12.0962  12.2274  12.3872  12.4286  12.6121
    12.7545  12.8454  13.0155  13.2028  13.2477  13.2979  13.4422  13.6742
    13.7141  13.8567  13.8707  13.9121  13.9815  14.1524  14.2085  14.2815
    14.3483  14.5134  14.5760  14.6157  14.7385  14.8124  15.0227

     the Fermi energy is    12.0442 ev

!    total energy              =   -2630.88653036 Ry
     estimated scf accuracy    <       0.00027426 Ry
     smearing contrib. (-TS)   =      -0.07847502 Ry
     internal energy E=F+TS    =   -2630.80805533 Ry

     total magnetization       =     0.24 Bohr mag/cell
     absolute magnetization    =     0.29 Bohr mag/cell

     convergence has been achieved in   5 iterations

     negative rho (up, down):  6.943E-01 6.946E-01

     Forces acting on atoms (cartesian axes, Ry/au):

     atom    1 type  1   force =    -0.00483896    0.07699553   -0.00350415
     atom    2 type  1   force =    -0.06757171   63.87643453    0.00239214
     atom    3 type  1   force =    -0.06933008  -63.87690192   -0.00927746
     atom    4 type  1   force =     0.06688076   63.87892488    0.00205296
     atom    5 type  1   force =     0.06923452  -63.87937892   -0.00844963
     atom    6 type  2   force =    -0.00647163    0.12939504    0.01455898
     atom    7 type  2   force =    -0.00617446   -0.13018694   -0.01561037
     atom    8 type  3   force =    -0.00576662   -0.00106560    0.00326445
     atom    9 type  3   force =    -0.78429671   -0.00175285    0.00545539
     atom   10 type  3   force =    -0.04881970  109.82878277   -0.06788359
     atom   11 type  3   force =    -0.04604167  109.83763674    0.05869805
     atom   12 type  3   force =    -0.04772496 -109.82691218   -0.06006077
     atom   13 type  3   force =    -0.05125963 -109.83939866    0.07500151
     atom   14 type  3   force =     0.04967266  109.83179241   -0.06749477
     atom   15 type  3   force =     0.04666460  109.84012591    0.05885195
     atom   16 type  3   force =     0.04849014 -109.82966475   -0.06036891
     atom   17 type  3   force =     0.05217479 -109.84191563    0.07457695
     atom   18 type  4   force =    -0.00495142   -0.07425322   -0.00656222
     atom   19 type  4   force =     0.01694994   -0.01543749    0.02496527
     atom   20 type  4   force =     0.01909844    0.01574920   -0.02241102
     atom   21 type  4   force =    -0.01763828   -0.01517614    0.02763182
     atom   22 type  4   force =    -0.01948616    0.01523470   -0.02542888
     atom   23 type  5   force =     0.81120612    0.00097261   -0.00039771
     The non-local contrib.  to forces
     atom    1 type  1   force =     0.00490515   -0.40287555    0.07529322
     atom    2 type  1   force =     0.10789476  -60.47614424    0.01132246
     atom    3 type  1   force =     0.10691609   60.47734309   -0.01597340
     atom    4 type  1   force =    -0.10659742  -60.47488749    0.01135874
     atom    5 type  1   force =    -0.10536991   60.47606582   -0.01589231
     atom    6 type  2   force =    -0.00006635    0.08612759    0.00123208
     atom    7 type  2   force =     0.00038066   -0.08294673   -0.01475462
     atom    8 type  3   force =    -0.47599084    0.00363806   -0.00267053
     atom    9 type  3   force =     0.34782692    0.00291706   -0.00155436
     atom   10 type  3   force =     0.09002230  -42.51527866    0.05804534
     atom   11 type  3   force =     0.10697333  -42.49140674   -0.07495592
     atom   12 type  3   force =     0.10455011   42.50056755    0.07330739
     atom   13 type  3   force =     0.08730448   42.50492252   -0.05542509
     atom   14 type  3   force =    -0.08970631  -42.51211679    0.05864732
     atom   15 type  3   force =    -0.10652952  -42.48912793   -0.07521729
     atom   16 type  3   force =    -0.10387721   42.49749074    0.07337540
     atom   17 type  3   force =    -0.08698680   42.50249549   -0.05630370
     atom   18 type  4   force =    -0.00217735   -0.06375617   -0.01657402
     atom   19 type  4   force =     0.09687507   -0.00684236    0.06501209
     atom   20 type  4   force =     0.08801190   -0.00172906   -0.05866132
     atom   21 type  4   force =    -0.09617447   -0.00725186    0.06541462
     atom   22 type  4   force =    -0.08817721   -0.00138278   -0.05997897
     atom   23 type  5   force =    -0.13262694    0.00052849   -0.00052040
     The ionic contribution  to forces
     atom    1 type  1   force =    -0.13333969   11.43929087   13.62462830
     atom    2 type  1   force =   -17.95461212  161.80186555    0.14999775
     atom    3 type  1   force =   -17.95460915 -161.80184259   -0.14998248
     atom    4 type  1   force =    17.92100616  161.73089236    0.15000050
     atom    5 type  1   force =    17.92100074 -161.73084965   -0.14997973
     atom    6 type  2   force =    -0.14445920   12.57480619  -14.44138865
     atom    7 type  2   force =    -0.14445845  -12.57482203   14.44139887
     atom    8 type  3   force =   -21.24728169   -0.00002094    0.00002632
     atom    9 type  3   force =    17.65518249   -0.00016805    0.00017723
     atom   10 type  3   force =   -12.75052260  190.81109715  -21.85843604
     atom   11 type  3   force =   -12.60400258  191.43525671   21.70214907
     atom   12 type  3   force =   -12.60399791 -191.43524851  -21.70215652
     atom   13 type  3   force =   -12.75052726 -190.81109058   21.85843233
     atom   14 type  3   force =    12.74448879  190.80197119  -21.89569089
     atom   15 type  3   force =    12.59796924  191.42613165   21.73940178
     atom   16 type  3   force =    12.59796395 -191.42612015  -21.73941225
     atom   17 type  3   force =    12.74449376 -190.80196312   21.89568591
     atom   18 type  4   force =    -0.13335353  -11.43928956  -13.62463246
     atom   19 type  4   force =   -12.14696656    0.33359317  -20.98033203
     atom   20 type  4   force =   -12.14697725   -0.33359908   20.98031889
     atom   21 type  4   force =    12.12175406    0.33359132  -21.11651961
     atom   22 type  4   force =    12.12176843   -0.33360092   21.11649255
     atom   23 type  5   force =     4.28948038    0.00011902   -0.00017884
     The local contribution  to forces
     atom    1 type  1   force =     0.11959209  -10.92343205  -13.70628376
     atom    2 type  1   force =    17.76284903  -27.82277987   -0.17038605
     atom    3 type  1   force =    17.76131035   27.82325842    0.14951453
     atom    4 type  1   force =   -17.73215400  -27.75019911   -0.17014392
     atom    5 type  1   force =   -17.73033960   27.75056602    0.15062404
     atom    6 type  2   force =     0.13155928  -12.51050792   14.43438164
     atom    7 type  2   force =     0.13419459   12.50720103  -14.43614981
     atom    8 type  3   force =    21.76327655   -0.00668763   -0.00553154
     atom    9 type  3   force =   -18.81706912   -0.00584576   -0.00336246
     atom   10 type  3   force =    12.60097320  -33.33616255   21.71171115
     atom   11 type  3   force =    12.44438474  -33.97661305  -21.54042932
     atom   12 type  3   force =    12.44200839   33.97855557   21.54758434
     atom   13 type  3   force =    12.60260862   33.33725007  -21.69956954
     atom   14 type  3   force =   -12.59580484  -33.33069933   21.74970935
     atom   15 type  3   force =   -12.43921925  -33.96976908  -21.57863401
     atom   16 type  3   force =   -12.43702973   33.97332898   21.58518981
     atom   17 type  3   force =   -12.59717391   33.33015764  -21.73786540
     atom   18 type  4   force =     0.12446187   11.41274412   13.61550788
     atom   19 type  4   force =    12.07087908   -0.34480784   20.93631934
     atom   20 type  4   force =    12.08210830    0.35258333  -20.93365632
     atom   21 type  4   force =   -12.04891189   -0.34429185   21.07687449
     atom   22 type  4   force =   -12.05871905    0.35199385  -21.07493486
     atom   23 type  5   force =    -3.34693708    0.00036437   -0.00112773
     The core correction contribution to forces
     atom    1 type  1   force =     0.00075927   -0.03149272    0.00737338
     atom    2 type  1   force =     0.01558610   -9.62381365    0.00171835
     atom    3 type  1   force =     0.01564237    9.62375428   -0.00150260
     atom    4 type  1   force =    -0.01550354   -9.62388612    0.00160309
     atom    5 type  1   force =    -0.01549869    9.62384026   -0.00139041
     atom    6 type  2   force =     0.00008327   -0.01423944   -0.00206586
     atom    7 type  2   force =     0.00005294    0.01404255    0.00272995
     atom    8 type  3   force =    -0.04157219    0.00056686   -0.00041560
     atom    9 type  3   force =     0.02092533    0.00012537    0.00017090
     atom   10 type  3   force =     0.00678088   -5.12665643    0.00407453
     atom   11 type  3   force =     0.00449116   -5.12827651   -0.00380261
     atom   12 type  3   force =     0.00510432    5.12824554    0.00368643
     atom   13 type  3   force =     0.00713147    5.12619548   -0.00429489
     atom   14 type  3   force =    -0.00660114   -5.12674709    0.00406695
     atom   15 type  3   force =    -0.00440796   -5.12829556   -0.00383086
     atom   16 type  3   force =    -0.00502927    5.12823291    0.00369482
     atom   17 type  3   force =    -0.00697659    5.12627868   -0.00428483
     atom   18 type  4   force =     0.00021407    0.01021299   -0.00075637
     atom   19 type  4   force =    -0.00958999    0.00060870   -0.00847065
     atom   20 type  4   force =    -0.00923108    0.00003737    0.00826194
     atom   21 type  4   force =     0.00953656    0.00064223   -0.00846154
     atom   22 type  4   force =     0.00923987    0.00000872    0.00830803
     atom   23 type  5   force =     0.00000000    0.00000000    0.00000000
     The Hubbard contrib.    to forces
     atom    1 type  1   force =     0.00000000    0.00000000    0.00000000
     atom    2 type  1   force =     0.00000000    0.00000000    0.00000000
     atom    3 type  1   force =     0.00000000    0.00000000    0.00000000
     atom    4 type  1   force =     0.00000000    0.00000000    0.00000000
     atom    5 type  1   force =     0.00000000    0.00000000    0.00000000
     atom    6 type  2   force =     0.00000000    0.00000000    0.00000000
     atom    7 type  2   force =     0.00000000    0.00000000    0.00000000
     atom    8 type  3   force =     0.00000000    0.00000000    0.00000000
     atom    9 type  3   force =     0.00000000    0.00000000    0.00000000
     atom   10 type  3   force =     0.00000000    0.00000000    0.00000000
     atom   11 type  3   force =     0.00000000    0.00000000    0.00000000
     atom   12 type  3   force =     0.00000000    0.00000000    0.00000000
     atom   13 type  3   force =     0.00000000    0.00000000    0.00000000
     atom   14 type  3   force =     0.00000000    0.00000000    0.00000000
     atom   15 type  3   force =     0.00000000    0.00000000    0.00000000
     atom   16 type  3   force =     0.00000000    0.00000000    0.00000000
     atom   17 type  3   force =     0.00000000    0.00000000    0.00000000
     atom   18 type  4   force =     0.00000000    0.00000000    0.00000000
     atom   19 type  4   force =     0.00000000    0.00000000    0.00000000
     atom   20 type  4   force =     0.00000000    0.00000000    0.00000000
     atom   21 type  4   force =     0.00000000    0.00000000    0.00000000
     atom   22 type  4   force =     0.00000000    0.00000000    0.00000000
     atom   23 type  5   force =     0.00000000    0.00000000    0.00000000
     The SCF correction term to forces
     atom    1 type  1   force =     0.00000000   -0.00000000   -0.00000000
     atom    2 type  1   force =     0.00000000   -0.00000000    0.00000000
     atom    3 type  1   force =     0.00000000    0.00000000    0.00000000
     atom    4 type  1   force =    -0.00000000   -0.00000000    0.00000000
     atom    5 type  1   force =    -0.00000000    0.00000000    0.00000000
     atom    6 type  2   force =     0.00000000   -0.00000000    0.00000000
     atom    7 type  2   force =     0.00000000    0.00000000   -0.00000000
     atom    8 type  3   force =    -0.00000000    0.00000000    0.00000000
     atom    9 type  3   force =     0.00000000    0.00000000    0.00000000
     atom   10 type  3   force =     0.00000000   -0.00000000    0.00000000
     atom   11 type  3   force =     0.00000000   -0.00000000   -0.00000000
     atom   12 type  3   force =     0.00000000    0.00000000    0.00000000
     atom   13 type  3   force =     0.00000000    0.00000000   -0.00000000
     atom   14 type  3   force =    -0.00000000   -0.00000000    0.00000000
     atom   15 type  3   force =    -0.00000000    0.00000000   -0.00000000
     atom   16 type  3   force =    -0.00000000   -0.00000000    0.00000000
     atom   17 type  3   force =    -0.00000000    0.00000000   -0.00000000
     atom   18 type  4   force =     0.00000000    0.00000000    0.00000000
     atom   19 type  4   force =     0.00000000    0.00000000    0.00000000
     atom   20 type  4   force =     0.00000000   -0.00000000   -0.00000000
     atom   21 type  4   force =    -0.00000000    0.00000000    0.00000000
     atom   22 type  4   force =    -0.00000000   -0.00000000   -0.00000000
     atom   23 type  5   force =     0.00109763    0.00000150    0.00080626

     Total force =     0.811207     Total SCF correction =     0.001362

     Entering Dynamics:    iteration =     3
                           time      =   0.0015 pico-seconds


ATOMIC_POSITIONS (angstrom)
Hf            1.8699999570        1.8699999570        7.0100002690    0   0   0
Hf            0.2000000000        0.2000000000        5.3399999140    0   0   0
Hf            0.2000000000        6.8799998280        5.3399999140    0   0   0
Hf            3.5399999140        0.2000000000        5.3399999140    0   0   0
Hf            3.5399999140        6.8799998280        5.3399999140    0   0   0
Nb            1.8699999570        1.8699999570        3.6699999570    0   0   0
Nb            1.8699999570        5.2100002690        7.0100002690    0   0   0
[...]
   -36.8650 -36.5425 -31.1529 -31.1238 -31.1216 -31.0934 -25.0229 -24.9723
   -22.7341 -22.5476 -22.4741 -22.3950 -22.1838 -22.0889 -18.9149 -18.8662
   -18.7470 -18.7414 -18.7079 -18.6947 -18.6692 -18.5575 -18.5405 -15.2124
   -15.0968 -15.0790 -15.0533 -15.0339 -14.9800 -14.9105 -14.8553 -14.8552
   -14.8139 -14.7886 -14.7839 -14.7604 -14.5046 -14.4463 -12.6721 -12.6104
   -12.6074 -12.5596 -12.4812 -12.4461 -12.4160 -12.3804  -6.8957  -6.6972
    -6.6801  -6.6745  -3.8636  -3.7946  -3.6403  -3.5779  -3.3637  -3.3132
    -3.2924  -3.1786  -1.5149  -1.1880  -0.2856  -0.0263   0.9917   1.3788
     1.9393   2.0332   2.1215   3.5821   5.6683   6.1391   6.1772   6.3084
     6.9723   7.0294   7.2751   7.3732   7.3871   7.6983   7.7558   7.7831
     7.8079   8.1206   8.7517   9.4155   9.5545   9.9178   9.9686  10.1087
    10.1413  10.2591  10.3212  10.4798  10.6726  10.8992  11.0206  11.0919
    11.2020  11.4357  11.4607  11.4817  11.6276  11.7750  11.8007  11.8595
    11.8939  11.9345  12.0213  12.1384  12.2411  12.4042  12.4456  12.6210
    12.7586  12.8556  13.0350  13.2021  13.2510  13.3078  13.4694  13.6747
    13.7205  13.8676  13.8797  13.9275  13.9898  14.1609  14.2596  14.3270
    14.5050  14.5324  14.5922  14.6515  14.7524  14.8215  15.0300

     the Fermi energy is    12.0484 ev

!    total energy              =   -2631.10383197 Ry
     estimated scf accuracy    <       0.00015789 Ry
     smearing contrib. (-TS)   =      -0.07772356 Ry
     internal energy E=F+TS    =   -2631.02610841 Ry

     total magnetization       =     0.63 Bohr mag/cell
     absolute magnetization    =     0.87 Bohr mag/cell

     convergence has been achieved in   6 iterations

     negative rho (up, down):  6.946E-01 6.953E-01

     Forces acting on atoms (cartesian axes, Ry/au):

     atom    1 type  1   force =    -0.00272858    0.07577450   -0.00545663
     atom    2 type  1   force =    -0.06783346   63.84846779    0.01125249
     atom    3 type  1   force =    -0.06983017  -63.84867071   -0.00144034
     atom    4 type  1   force =     0.06738610   63.84834179    0.01128130
     atom    5 type  1   force =     0.06972095  -63.84860826   -0.00041548
     atom    6 type  2   force =    -0.00453739    0.13103481    0.01478969
     atom    7 type  2   force =    -0.00407824   -0.13201525   -0.01862879
     atom    8 type  3   force =    -0.00916016   -0.00118770    0.00484742
     atom    9 type  3   force =    -0.33015537   -0.00177676    0.00734910
     atom   10 type  3   force =    -0.04832423  109.85021255   -0.06749778
     atom   11 type  3   force =    -0.04685946  109.82729363    0.05228490
     atom   12 type  3   force =    -0.04715845 -109.84849544   -0.05942065
     atom   13 type  3   force =    -0.05220226 -109.82816640    0.06873795
     atom   14 type  3   force =     0.04835551  109.85129628   -0.06689587
     atom   15 type  3   force =     0.04703671  109.82729401    0.05227714
     atom   16 type  3   force =     0.04744237 -109.84955172   -0.05973320
     atom   17 type  3   force =     0.05242085 -109.82829183    0.06834544
     atom   18 type  4   force =    -0.00349710   -0.07434035   -0.00427642
     atom   19 type  4   force =     0.01926088   -0.01498468    0.02540395
     atom   20 type  4   force =     0.01972670    0.01511811   -0.02734472
     atom   21 type  4   force =    -0.01975524   -0.01451863    0.02650376
     atom   22 type  4   force =    -0.02008316    0.01465313   -0.02965088
     atom   23 type  5   force =     0.35485319    0.00112111   -0.00231238
     The non-local contrib.  to forces
     atom    1 type  1   force =     0.00263662   -0.40715198    0.07863237
     atom    2 type  1   force =     0.10803483  -60.50452347    0.01736145
     atom    3 type  1   force =     0.10685720   60.50578554   -0.01061401
     atom    4 type  1   force =    -0.10652566  -60.50609081    0.01774891
     atom    5 type  1   force =    -0.10522406   60.50727566   -0.01005455
     atom    6 type  2   force =    -0.00072321    0.08282063   -0.00073298
     atom    7 type  2   force =     0.00018032   -0.07897971   -0.01201845
     atom    8 type  3   force =    -0.43052022    0.00315102   -0.00116264
     atom    9 type  3   force =     0.17861031    0.00246129   -0.00011559
     atom   10 type  3   force =     0.09143850  -42.49120174    0.06103306
     atom   11 type  3   force =     0.10628329  -42.50385863   -0.08070134
     atom   12 type  3   force =     0.10583275   42.47635186    0.07619291
     atom   13 type  3   force =     0.08660092   42.51764542   -0.06107438
     atom   14 type  3   force =    -0.09112080  -42.48953339    0.06119705
     atom   15 type  3   force =    -0.10588438  -42.50434946   -0.08085118
     atom   16 type  3   force =    -0.10533985   42.47517777    0.07616839
     atom   17 type  3   force =    -0.08638676   42.51805605   -0.06152129
     atom   18 type  4   force =    -0.00080201   -0.05973955   -0.01534030
     atom   19 type  4   force =     0.09957058   -0.00640231    0.06666221
     atom   20 type  4   force =     0.08990870   -0.00249719   -0.06135786
     atom   21 type  4   force =    -0.09635569   -0.00590498    0.06552070
     atom   22 type  4   force =    -0.08899444   -0.00210069   -0.06248300
     atom   23 type  5   force =    -0.07393378    0.00024837   -0.00034693
     The ionic contribution  to forces
     atom    1 type  1   force =    -0.08742277   11.45142930   13.61172821
     atom    2 type  1   force =   -17.93636677  161.79276774    0.15027031
     atom    3 type  1   force =   -17.93621605 -161.79200128   -0.14970979
     atom    4 type  1   force =    17.91275232  161.74565623    0.15033190
     atom    5 type  1   force =    17.91254402 -161.74445711   -0.14964809
     atom    6 type  2   force =    -0.09487702   12.58772476  -14.42719016
     atom    7 type  2   force =    -0.09485889  -12.58798619   14.42764545
     atom    8 type  3   force =   -20.97465654   -0.00093374    0.00110629
     atom    9 type  3   force =    18.90104263   -0.00348101    0.00376995
     atom   10 type  3   force =   -12.74535274  190.80980893  -21.86424589
     atom   11 type  3   force =   -12.59892336  191.43401639   21.70772071
     atom   12 type  3   force =   -12.59880718 -191.43376059  -21.70801250
     atom   13 type  3   force =   -12.74542723 -190.80965098   21.86405001
     atom   14 type  3   force =    12.74120248  190.80370943  -21.88924065
     atom   15 type  3   force =    12.59478374  191.42793698   21.73266732
     atom   16 type  3   force =    12.59465347 -191.42760795  -21.73302663
     atom   17 type  3   force =    12.74128419 -190.80351861   21.88901593
     atom   18 type  4   force =    -0.08771841  -11.45122745  -13.61173077
     atom   19 type  4   force =   -12.13390452    0.33348121  -20.99974260
     atom   20 type  4   force =   -12.13422390   -0.33371075   20.99919516
     atom   21 type  4   force =    12.11608570    0.33344058  -21.09089908
     atom   22 type  4   force =    12.11649275   -0.33375121   21.09004117
     atom   23 type  5   force =     2.53791409    0.00211531   -0.00409626
     The local contribution  to forces
     atom    1 type  1   force =     0.08267931  -10.93927319  -13.69677737
     atom    2 type  1   force =    17.74277958  -27.81504773   -0.14299874
     atom    3 type  1   force =    17.74086232   27.81504119    0.17479411
     atom    4 type  1   force =   -17.72086988  -27.76608913   -0.14259120
     atom    5 type  1   force =   -17.71880899   27.76570821    0.17583458
     atom    6 type  2   force =     0.08916505  -12.52085720   14.45829211
     atom    7 type  2   force =     0.09176874   12.52289661  -14.43065241
     atom    8 type  3   force =    21.42986130   -0.00547438    0.01531527
     atom    9 type  3   force =   -19.41649013   -0.00270361    0.01603273
     atom   10 type  3   force =    12.60078459  -33.33780521   21.73075316
     atom   11 type  3   force =    12.43739091  -33.97466272  -21.58092512
     atom   12 type  3   force =    12.44260860   33.97651320   21.56778130
     atom   13 type  3   force =    12.59458107   33.34143830  -21.73897526
     atom   14 type  3   force =   -12.59712088  -33.33349487   21.75641472
     atom   15 type  3   force =   -12.43325717  -33.96790640  -21.60639375
     atom   16 type  3   force =   -12.43871343   33.97156714   21.59260326
     atom   17 type  3   force =   -12.59027744   33.33472613  -21.76451395
     atom   18 type  4   force =     0.08323844   11.42170049   13.63506997
     atom   19 type  4   force =    12.06548068   -0.34250394   20.96689965
     atom   20 type  4   force =    12.07192022    0.34886741  -20.97611222
     atom   21 type  4   force =   -12.05060725   -0.34247092   21.05965840
     atom   22 type  4   force =   -12.05480729    0.34788075  -21.06942243
     atom   23 type  5   force =    -2.10981154   -0.00126795    0.00439549
     The core correction contribution to forces
     atom    1 type  1   force =     0.00046490   -0.03132117    0.00725700
     atom    2 type  1   force =     0.01561920   -9.62395179    0.00171294
     atom    3 type  1   force =     0.01568340    9.62388039   -0.00158568
     atom    4 type  1   force =    -0.01549232   -9.62391600    0.00164800
     atom    5 type  1   force =    -0.01548025    9.62386242   -0.00141650
     atom    6 type  2   force =     0.00007822   -0.01414275   -0.00203515
     atom    7 type  2   force =     0.00000353    0.01389015    0.00265091
     atom    8 type  3   force =    -0.03649872    0.00040924   -0.00030302
     atom    9 type  3   force =     0.01542799    0.00010292    0.00006295
     atom   10 type  3   force =     0.00676270   -5.12658517    0.00415189
     atom   11 type  3   force =     0.00451294   -5.12837988   -0.00395947
     atom   12 type  3   force =     0.00512066    5.12819200    0.00377453
     atom   13 type  3   force =     0.00712702    5.12626413   -0.00446361
     atom   14 type  3   force =    -0.00664118   -5.12661485    0.00416322
     atom   15 type  3   force =    -0.00446875   -5.12836822   -0.00399933
     atom   16 type  3   force =    -0.00506216    5.12814643    0.00375847
     atom   17 type  3   force =    -0.00701156    5.12632480   -0.00445642
     atom   18 type  4   force =     0.00010946    0.01006507   -0.00069844
     atom   19 type  4   force =    -0.00968291    0.00059696   -0.00846548
     atom   20 type  4   force =    -0.00931380    0.00005812    0.00827312
     atom   21 type  4   force =     0.00953953    0.00057549   -0.00841771
     atom   22 type  4   force =     0.00931380    0.00002341    0.00835619
     atom   23 type  5   force =     0.00000000    0.00000000    0.00000000
     The Hubbard contrib.    to forces
     atom    1 type  1   force =     0.00000000    0.00000000    0.00000000
     atom    2 type  1   force =     0.00000000    0.00000000    0.00000000
     atom    3 type  1   force =     0.00000000    0.00000000    0.00000000
     atom    4 type  1   force =     0.00000000    0.00000000    0.00000000
     atom    5 type  1   force =     0.00000000    0.00000000    0.00000000
     atom    6 type  2   force =     0.00000000    0.00000000    0.00000000
     atom    7 type  2   force =     0.00000000    0.00000000    0.00000000
     atom    8 type  3   force =     0.00000000    0.00000000    0.00000000
     atom    9 type  3   force =     0.00000000    0.00000000    0.00000000
     atom   10 type  3   force =     0.00000000    0.00000000    0.00000000
     atom   11 type  3   force =     0.00000000    0.00000000    0.00000000
     atom   12 type  3   force =     0.00000000    0.00000000    0.00000000
     atom   13 type  3   force =     0.00000000    0.00000000    0.00000000
     atom   14 type  3   force =     0.00000000    0.00000000    0.00000000
     atom   15 type  3   force =     0.00000000    0.00000000    0.00000000
     atom   16 type  3   force =     0.00000000    0.00000000    0.00000000
     atom   17 type  3   force =     0.00000000    0.00000000    0.00000000
     atom   18 type  4   force =     0.00000000    0.00000000    0.00000000
     atom   19 type  4   force =     0.00000000    0.00000000    0.00000000
     atom   20 type  4   force =     0.00000000    0.00000000    0.00000000
     atom   21 type  4   force =     0.00000000    0.00000000    0.00000000
     atom   22 type  4   force =     0.00000000    0.00000000    0.00000000
     atom   23 type  5   force =     0.00000000    0.00000000    0.00000000
     The SCF correction term to forces
     atom    1 type  1   force =    -0.00000000    0.00000000   -0.00000000
     atom    2 type  1   force =     0.00000000   -0.00000000   -0.00000000
     atom    3 type  1   force =     0.00000000   -0.00000000   -0.00000000
     atom    4 type  1   force =    -0.00000000   -0.00000000   -0.00000000
     atom    5 type  1   force =    -0.00000000   -0.00000000   -0.00000000
     atom    6 type  2   force =     0.00000000   -0.00000000   -0.00000000
     atom    7 type  2   force =    -0.00000000   -0.00000000   -0.00000000
     atom    8 type  3   force =     0.00000000    0.00000000   -0.00000000
     atom    9 type  3   force =    -0.00000000    0.00000000   -0.00000000
     atom   10 type  3   force =    -0.00000000   -0.00000000    0.00000000
     atom   11 type  3   force =     0.00000000    0.00000000    0.00000000
     atom   12 type  3   force =    -0.00000000    0.00000000    0.00000000
     atom   13 type  3   force =     0.00000000   -0.00000000    0.00000000
     atom   14 type  3   force =     0.00000000   -0.00000000    0.00000000
     atom   15 type  3   force =    -0.00000000   -0.00000000    0.00000000
     atom   16 type  3   force =     0.00000000    0.00000000    0.00000000
     atom   17 type  3   force =    -0.00000000   -0.00000000    0.00000000
     atom   18 type  4   force =     0.00000000    0.00000000   -0.00000000
     atom   19 type  4   force =    -0.00000000   -0.00000000    0.00000000
     atom   20 type  4   force =     0.00000000    0.00000000    0.00000000
     atom   21 type  4   force =     0.00000000   -0.00000000    0.00000000
     atom   22 type  4   force =    -0.00000000    0.00000000    0.00000000
     atom   23 type  5   force =     0.00074618   -0.00001742   -0.00115488

     Total force =     0.354862     Total SCF correction =     0.001375

     Entering Dynamics:    iteration =    10
                           time      =   0.0051 pico-seconds


ATOMIC_POSITIONS (angstrom)
Hf            1.8699999570        1.8699999570        7.0100002690    0   0   0
Hf            0.2000000000        0.2000000000        5.3399999140    0   0   0
Hf            0.2000000000        6.8799998280        5.3399999140    0   0   0
Hf            3.5399999140        0.2000000000        5.3399999140    0   0   0
Hf            3.5399999140        6.8799998280        5.3399999140    0   0   0
Nb            1.8699999570        1.8699999570        3.6699999570    0   0   0
Nb            1.8699999570        5.2100002690        7.0100002690    0   0   0
Ta            0.2000000000        3.5399999140        5.3399999140    0   0   0
Ta            3.5399999140        3.5399999140        5.3399999140    0   0   0
Ta            0.2000000000        0.2000000000        2.0000000000    0   0   0
Ta            0.2000000000        0.2000000000        8.6799998280    0   0   0
Ta            0.2000000000        6.8799998280        2.0000000000    0   0   0
Ta            0.2000000000        6.8799998280        8.6799998280    0   0   0
Ta            3.5399999140        0.2000000000        2.0000000000    0   0   0
Ta            3.5399999140        0.2000000000        8.6799998280    0   0   0
Ta            3.5399999140        6.8799998280        2.0000000000    0   0   0
Ta            3.5399999140        6.8799998280        8.6799998280    0   0   0
Zr            1.8699999570        5.2100002690        3.6699999570    0   0   0
Zr            0.2000000000        3.5399999140        2.0000000000    0   0   0
Zr            0.2000000000        3.5399999140        8.6799998280    0   0   0
Zr            3.5399999140        3.5399999140        2.0000000000    0   0   0
Zr            3.5399999140        3.5399999140        8.6799998280    0   0   0
H             5.1394872533        3.5419284224        5.3379864302


     kinetic energy (Ekin) =           0.52771994 Ry
     temperature           =       55546.92548924 K 
     Ekin + Etot (const)   =       -2630.57611204 Ry

     The maximum number of steps has been reached.

     End of molecular dynamics calculation

     diffusion coefficients :
     atom     1   D =       0.00000000 cm^2/s
     atom     2   D =       0.00000000 cm^2/s
     atom     3   D =       0.00000000 cm^2/s
     atom     4   D =       0.00000000 cm^2/s
     atom     5   D =       0.00000000 cm^2/s
     atom     6   D =       0.00000000 cm^2/s
     atom     7   D =       0.00000000 cm^2/s
     atom     8   D =       0.00000000 cm^2/s
     atom     9   D =       0.00000000 cm^2/s
     atom    10   D =       0.00000000 cm^2/s
     atom    11   D =       0.00000000 cm^2/s
     atom    12   D =       0.00000000 cm^2/s
     atom    13   D =       0.00000000 cm^2/s
     atom    14   D =       0.00000000 cm^2/s
     atom    15   D =       0.00000000 cm^2/s
     atom    16   D =       0.00000000 cm^2/s
     atom    17   D =       0.00000000 cm^2/s
     atom    18   D =       0.00000000 cm^2/s
     atom    19   D =       0.00000000 cm^2/s
     atom    20   D =       0.00000000 cm^2/s
     atom    21   D =       0.00000000 cm^2/s
     atom    22   D =       0.00000000 cm^2/s
     atom    23   D =       0.00003250 cm^2/s

     < D > =       0.00003250 cm^2/s

     Writing all to output data dir outdir/pwscf.save/

     init_run     :     17.60s CPU     17.90s WALL (       1 calls)
     electrons    :   1683.15s CPU   1709.42s WALL (      10 calls)
     update_pot   :     18.35s CPU     18.40s WALL (       9 calls)
     forces       :    132.97s CPU    134.68s WALL (      10 calls)

     Called by init_run:
     wfcinit      :     13.46s CPU     13.57s WALL (       1 calls)
     potinit      :      0.84s CPU      0.87s WALL (       1 calls)
     hinit0       :      1.59s CPU      1.62s WALL (       1 calls)

     Called by electrons:
     c_bands      :   1326.81s CPU   1334.11s WALL (      59 calls)
     sum_band     :    249.61s CPU    260.07s WALL (      59 calls)
     v_of_rho     :     10.56s CPU     10.87s WALL (      69 calls)
     newd         :    112.84s CPU    122.07s WALL (      69 calls)
     mix_rho      :      0.83s CPU      0.85s WALL (      59 calls)

     Called by c_bands:
     init_us_2    :      2.44s CPU      2.45s WALL (     258 calls)
     init_us_2:cp :      2.43s CPU      2.45s WALL (     258 calls)
     regterg      :   1313.61s CPU   1320.85s WALL (     118 calls)

     Called by *egterg:
     rdiaghg      :     20.42s CPU     20.57s WALL (     486 calls)
     h_psi        :    559.00s CPU    564.42s WALL (     506 calls)
     s_psi        :    202.22s CPU    202.45s WALL (     506 calls)
     g_psi        :      0.44s CPU      0.44s WALL (     386 calls)

     Called by h_psi:
     h_psi:calbec :    274.67s CPU    275.19s WALL (     506 calls)
     vloc_psi     :     80.75s CPU     85.41s WALL (     506 calls)
     add_vuspsi   :    202.66s CPU    202.90s WALL (     506 calls)

     General routines
     calbec       :    467.60s CPU    468.42s WALL (     704 calls)
     fft          :     10.43s CPU     10.70s WALL (    1194 calls)
     ffts         :      0.18s CPU      0.21s WALL (      59 calls)
     fftw         :     85.90s CPU     90.76s WALL (   57410 calls)

     Parallel routines

     PWSCF        :  31m 8.52s CPU  31m38.45s WALL


   This run was terminated on:   2:44:48   5Jun2023            

=------------------------------------------------------------------------------=
   JOB DONE.
=------------------------------------------------------------------------------=
