
     Program PWSCF v.7.2 starts on  4Jun2023 at 20:54:23 

     This program is part of the open-source Quantum ESPRESSO suite
     for quantum simulation of materials; please cite
         "P. Giannozzi et al., J. Phys.:Condens. Matter 21 395502 (2009);
         "P. Giannozzi et al., J. Phys.:Condens. Matter 29 465901 (2017);
         "P. Giannozzi et al., J. Chem. Phys. 152 154105 (2020);
          URL http://www.quantum-espresso.org", 
     in publications or presentations arising from this work. More details at
     http://www.quantum-espresso.org/quote

     Parallel version (MPI), running on    12 processors

     MPI processes distributed on     1 nodes
     76486 MiB available memory on the printing compute node when the environment starts

     Reading input from md_Hf13Nb3Ta10Zr4H_10steps.in
Warning: card &CELL ignored
Warning: card / ignored

     Current dimensions of program PWSCF are:
     Max number of different atomic species (ntypx) = 10
     Max number of k-points (npk) =  40000
     Max angular momentum in pseudopotentials (lmaxx) =  4

     gamma-point specific algorithms are used

     R & G space division:  proc/nbgrp/npool/nimage =      12
     Subspace diagonalization in iterative solution of the eigenvalue problem:
     one sub-group per band group will be used
     custom distributed-memory algorithm (size of sub-group:  2*  2 procs)


     Parallelization info
     --------------------
     sticks:   dense  smooth     PW     G-vecs:    dense   smooth      PW
     Min         505     505    126                62401    62401    7798
     Max         506     506    128                62406    62406    7808
     Sum        6071    6071   1523               748859   748859   93627

     Using Slab Decomposition



     bravais-lattice index     =            0
     lattice parameter (alat)  =      11.4139  a.u.
     unit-cell volume          =    4217.3332 (a.u.)^3
     number of atoms/cell      =           31
     number of atomic types    =            5
     number of electrons       =       374.00
     number of Kohn-Sham states=          224
     kinetic-energy cutoff     =     120.0000  Ry
     charge density cutoff     =     480.0000  Ry
     scf convergence threshold =      1.0E-03
     mixing beta               =       0.7000
     number of iterations used =            8  TF        mixing
     energy convergence thresh.=      0.0E+00
     force convergence thresh. =      0.0E+00
     Exchange-correlation=  SLA  PW   PBX  PBC
                           (   1   4   3   4   0   0   0)
     nstep                     =           10


     celldm(1)=  11.413946  celldm(2)=   0.000000  celldm(3)=   0.000000
     celldm(4)=   0.000000  celldm(5)=   0.000000  celldm(6)=   0.000000

     crystal axes: (cart. coord. in units of alat)
               a(1) = (   1.000000   0.000000   0.000000 )  
               a(2) = (   0.000000   1.221854   0.000000 )  
               a(3) = (   0.000000   0.000000   2.321192 )  

     reciprocal axes: (cart. coord. in units 2 pi/alat)
               b(1) = (  1.000000  0.000000  0.000000 )  
               b(2) = (  0.000000  0.818428  0.000000 )  
               b(3) = (  0.000000  0.000000  0.430813 )  


     PseudoPot. # 1 for Hf read from file:
     q-e/pseudo/hf_pbe_v1.uspp.F.UPF
     MD5 check sum: 8ee9378dfe14276e333edf04c5e4aa26
     Pseudo is Ultrasoft + core correction, Zval = 12.0
     Generated by new atomic code, or converted to UPF format
     Using radial grid of  921 points,  8 beta functions with: 
                l(1) =   0
                l(2) =   0
                l(3) =   0
                l(4) =   1
                l(5) =   1
                l(6) =   2
                l(7) =   2
                l(8) =   3
     Q(r) pseudized with  6 coefficients,  rinner =    1.200   1.200   1.200
                                                       1.200   1.200   1.200
                                                       1.200

     PseudoPot. # 2 for Nb read from file:
     q-e/pseudo/nb_pbe_v1.uspp.F.UPF
     MD5 check sum: 573aab8a2fa660278ed4a62cd769473f
     Pseudo is Ultrasoft + core correction, Zval = 13.0
     Generated by new atomic code, or converted to UPF format
     Using radial grid of  887 points,  6 beta functions with: 
                l(1) =   0
                l(2) =   0
                l(3) =   1
                l(4) =   1
                l(5) =   2
                l(6) =   2
     Q(r) pseudized with  6 coefficients,  rinner =    1.000   1.000   1.000
                                                       1.000   1.000

     PseudoPot. # 3 for Ta read from file:
     q-e/pseudo/ta_pbe_v1.uspp.F.UPF
     MD5 check sum: f8bbe9446314a3b8ea5d9f3e3836c939
     Pseudo is Ultrasoft + core correction, Zval = 13.0
     Generated by new atomic code, or converted to UPF format
     Using radial grid of  921 points,  7 beta functions with: 
                l(1) =   0
                l(2) =   0
                l(3) =   1
                l(4) =   1
                l(5) =   2
                l(6) =   2
                l(7) =   3
     Q(r) pseudized with  6 coefficients,  rinner =    1.300   1.300   1.300
                                                       1.300   1.300   1.300
                                                       1.300

     PseudoPot. # 4 for Zr read from file:
     q-e/pseudo/zr_pbe_v1.uspp.F.UPF
     MD5 check sum: 5db81b1e868ab7776c4564c113de050b
     Pseudo is Ultrasoft + core correction, Zval = 12.0
     Generated by new atomic code, or converted to UPF format
     Using radial grid of  887 points,  6 beta functions with: 
                l(1) =   0
                l(2) =   0
                l(3) =   1
                l(4) =   1
                l(5) =   2
                l(6) =   2
     Q(r) pseudized with  6 coefficients,  rinner =    1.200   1.200   1.200
                                                       1.200   1.200

     PseudoPot. # 5 for H  read from file:
     q-e/pseudo/h_pbe_v1.4.uspp.F.UPF
     MD5 check sum: 761ae9a214b05c3daf00ab9f6b793d6f
     Pseudo is Ultrasoft, Zval =  1.0
     Generated by new atomic code, or converted to UPF format
     Using radial grid of  615 points,  2 beta functions with: 
                l(1) =   0
                l(2) =   0
     Q(r) pseudized with  8 coefficients,  rinner =    0.700

     atomic species   valence    mass     pseudopotential
        Hf            12.00   178.49000     Hf( 1.00)
        Nb            13.00    92.90637     Nb( 1.00)
        Ta            13.00   180.94788     Ta( 1.00)
        Zr            12.00    91.22400     Zr( 1.00)
        H              1.00     2.01400     H ( 1.00)

     Starting magnetic structure 
     atomic species   magnetization
        Hf           0.000
        Nb           0.000
        Ta           0.000
        Zr           0.000
        H            0.000

     No symmetry found



   Cartesian axes

     site n.     atom                  positions (alat units)
         1           Hf  tau(   1) = (   0.3096026   0.3096026   0.6076159  )
         2           Hf  tau(   2) = (   0.0331126   0.5860927   0.3311258  )
         3           Hf  tau(   3) = (   0.0331126   0.5860927   1.9900663  )
         4           Hf  tau(   4) = (   0.5860927   0.5860927   0.3311258  )
         5           Hf  tau(   5) = (   0.5860927   0.5860927   1.9900663  )
         6           Hf  tau(   6) = (   0.0331126   0.0331126   0.3311258  )
         7           Hf  tau(   7) = (   0.0331126   0.0331126   1.9900663  )
         8           Hf  tau(   8) = (   0.0331126   1.1390728   0.3311258  )
         9           Hf  tau(   9) = (   0.0331126   1.1390728   1.9900663  )
        10           Hf  tau(  10) = (   0.5860927   0.0331126   0.3311258  )
        11           Hf  tau(  11) = (   0.5860927   0.0331126   1.9900663  )
        12           Hf  tau(  12) = (   0.5860927   1.1390728   0.3311258  )
        13           Hf  tau(  13) = (   0.5860927   1.1390728   1.9900663  )
        14           Nb  tau(  14) = (   0.3096026   0.3096026   1.1605961  )
        15           Nb  tau(  15) = (   0.3096026   0.8625828   1.1605961  )
        16           Nb  tau(  16) = (   0.3096026   0.8625828   1.7135763  )
        17           Ta  tau(  17) = (   0.0331126   0.5860927   1.4370861  )
        18           Ta  tau(  18) = (   0.5860927   0.5860927   1.4370861  )
        19           Ta  tau(  19) = (   0.0331126   0.0331126   0.8841060  )
        20           Ta  tau(  20) = (   0.0331126   1.1390728   0.8841060  )
        21           Ta  tau(  21) = (   0.5860927   0.0331126   0.8841060  )
        22           Ta  tau(  22) = (   0.5860927   1.1390728   0.8841060  )
        23           Ta  tau(  23) = (   0.0331126   0.0331126   1.4370861  )
        24           Ta  tau(  24) = (   0.0331126   1.1390728   1.4370861  )
        25           Ta  tau(  25) = (   0.5860927   0.0331126   1.4370861  )
        26           Ta  tau(  26) = (   0.5860927   1.1390728   1.4370861  )
        27           Zr  tau(  27) = (   0.3096026   0.3096026   1.7135763  )
        28           Zr  tau(  28) = (   0.3096026   0.8625828   0.6076159  )
        29           Zr  tau(  29) = (   0.0331126   0.5860927   0.8841060  )
        30           Zr  tau(  30) = (   0.5860927   0.5860927   0.8841060  )
        31           H   tau(  31) = (   0.9172185   0.5860927   1.1605961  )

     number of k points=     1  Gaussian smearing, width (Ry)=  0.0220
                       cart. coord. in units 2pi/alat
        k(    1) = (   0.0000000   0.0000000   0.0000000), wk =   1.0000000

     Dense  grid:   374430 G-vectors     FFT dimensions: (  80, 100, 192)

     Estimated max dynamical RAM per process >     341.94 MB

     Estimated total dynamical RAM >       4.01 GB

     Check: negative core charge=   -0.000002
     Generating pointlists ...
     new r_m :   0.0478 (alat units)  0.5457 (a.u.) for type    1
     new r_m :   0.1975 (alat units)  2.2548 (a.u.) for type    2
     new r_m :   0.0478 (alat units)  0.5457 (a.u.) for type    3
     new r_m :   0.1237 (alat units)  1.4115 (a.u.) for type    4
     new r_m :   0.1237 (alat units)  1.4115 (a.u.) for type    5

     Initial potential from superposition of free atoms

     starting charge     347.9720, renormalised to     374.0000

     negative rho (up, down):  7.460E-01 7.460E-01
     Starting wfcs are  391 randomized atomic wfcs

     total cpu time spent up to now is       34.0 secs

     Self-consistent Calculation

     iteration #  1     ecut=   120.00 Ry     beta= 0.70
     Davidson diagonalization with overlap
     ethr =  1.00E-02,  avg # of iterations = 14.0

     negative rho (up, down):  1.094E+00 1.093E+00

     total cpu time spent up to now is      176.0 secs

     total energy              =   -3970.57151932 Ry
     estimated scf accuracy    <    7788.17190270 Ry

     total magnetization       =    -0.02 Bohr mag/cell
     absolute magnetization    =     0.35 Bohr mag/cell

     iteration #  2     ecut=   120.00 Ry     beta= 0.70
     Davidson diagonalization with overlap
     ethr =  1.00E-02,  avg # of iterations = 15.0
