
     Program PWSCF v.7.2 starts on  8Jun2023 at  3:43:27 

     This program is part of the open-source Quantum ESPRESSO suite
     for quantum simulation of materials; please cite
         "P. Giannozzi et al., J. Phys.:Condens. Matter 21 395502 (2009);
         "P. Giannozzi et al., J. Phys.:Condens. Matter 29 465901 (2017);
         "P. Giannozzi et al., J. Chem. Phys. 152 154105 (2020);
          URL http://www.quantum-espresso.org", 
     in publications or presentations arising from this work. More details at
     http://www.quantum-espresso.org/quote

     Parallel version (MPI), running on    12 processors

     MPI processes distributed on     1 nodes
     59757 MiB available memory on the printing compute node when the environment starts

     Reading input from md_Hf5Nb2Ta10Zr5H_10steps_1000eV_incident45_polar45.in
Warning: card &CELL ignored
Warning: card / ignored

     Current dimensions of program PWSCF are:
     Max number of different atomic species (ntypx) = 10
     Max number of k-points (npk) =  40000
     Max angular momentum in pseudopotentials (lmaxx) =  4

     gamma-point specific algorithms are used

     R & G space division:  proc/nbgrp/npool/nimage =      12
     Subspace diagonalization in iterative solution of the eigenvalue problem:
     one sub-group per band group will be used
     custom distributed-memory algorithm (size of sub-group:  2*  2 procs)


     Parallelization info
     --------------------
     sticks:   dense  smooth     PW     G-vecs:    dense   smooth      PW
     Min         723     723    180                64572    64572    8072
     Max         724     724    182                64584    64584    8078
     Sum        8687    8687   2177               774967   774967   96907

     Using Slab Decomposition



     bravais-lattice index     =            0
     lattice parameter (alat)  =      13.8706  a.u.
     unit-cell volume          =    4363.8306 (a.u.)^3
     number of atoms/cell      =           23
     number of atomic types    =            5
     number of electrons       =       277.00
     number of Kohn-Sham states=          167
     kinetic-energy cutoff     =     120.0000  Ry
     charge density cutoff     =     480.0000  Ry
     scf convergence threshold =      1.0E-03
     mixing beta               =       0.7000
     number of iterations used =            8  TF        mixing
     energy convergence thresh.=      0.0E+00
     force convergence thresh. =      0.0E+00
     Exchange-correlation=  SLA  PW   PBX  PBC
                           (   1   4   3   4   0   0   0)
     nstep                     =           10


     celldm(1)=  13.870589  celldm(2)=   0.000000  celldm(3)=   0.000000
     celldm(4)=   0.000000  celldm(5)=   0.000000  celldm(6)=   0.000000

     crystal axes: (cart. coord. in units of alat)
               a(1) = (   1.000000   0.000000   0.000000 )  
               a(2) = (   0.000000   1.182561   0.000000 )  
               a(3) = (   0.000000   0.000000   1.382801 )  

     reciprocal axes: (cart. coord. in units 2 pi/alat)
               b(1) = (  1.000000  0.000000  0.000000 )  
               b(2) = (  0.000000  0.845622  0.000000 )  
               b(3) = (  0.000000  0.000000  0.723170 )  


     PseudoPot. # 1 for Hf read from file:
     q-e/pseudo/hf_pbe_v1.uspp.F.UPF
     MD5 check sum: 8ee9378dfe14276e333edf04c5e4aa26
     Pseudo is Ultrasoft + core correction, Zval = 12.0
     Generated by new atomic code, or converted to UPF format
     Using radial grid of  921 points,  8 beta functions with: 
                l(1) =   0
                l(2) =   0
                l(3) =   0
                l(4) =   1
                l(5) =   1
                l(6) =   2
                l(7) =   2
                l(8) =   3
     Q(r) pseudized with  6 coefficients,  rinner =    1.200   1.200   1.200
                                                       1.200   1.200   1.200
                                                       1.200

     PseudoPot. # 2 for Nb read from file:
     q-e/pseudo/nb_pbe_v1.uspp.F.UPF
     MD5 check sum: 573aab8a2fa660278ed4a62cd769473f
     Pseudo is Ultrasoft + core correction, Zval = 13.0
     Generated by new atomic code, or converted to UPF format
     Using radial grid of  887 points,  6 beta functions with: 
                l(1) =   0
                l(2) =   0
                l(3) =   1
                l(4) =   1
                l(5) =   2
                l(6) =   2
     Q(r) pseudized with  6 coefficients,  rinner =    1.000   1.000   1.000
                                                       1.000   1.000

     PseudoPot. # 3 for Ta read from file:
     q-e/pseudo/ta_pbe_v1.uspp.F.UPF
     MD5 check sum: f8bbe9446314a3b8ea5d9f3e3836c939
     Pseudo is Ultrasoft + core correction, Zval = 13.0
     Generated by new atomic code, or converted to UPF format
     Using radial grid of  921 points,  7 beta functions with: 
                l(1) =   0
                l(2) =   0
                l(3) =   1
                l(4) =   1
                l(5) =   2
                l(6) =   2
                l(7) =   3
     Q(r) pseudized with  6 coefficients,  rinner =    1.300   1.300   1.300
                                                       1.300   1.300   1.300
                                                       1.300

     PseudoPot. # 4 for Zr read from file:
     q-e/pseudo/zr_pbe_v1.uspp.F.UPF
     MD5 check sum: 5db81b1e868ab7776c4564c113de050b
     Pseudo is Ultrasoft + core correction, Zval = 12.0
     Generated by new atomic code, or converted to UPF format
     Using radial grid of  887 points,  6 beta functions with: 
                l(1) =   0
                l(2) =   0
                l(3) =   1
                l(4) =   1
                l(5) =   2
                l(6) =   2
     Q(r) pseudized with  6 coefficients,  rinner =    1.200   1.200   1.200
                                                       1.200   1.200

     PseudoPot. # 5 for H  read from file:
     q-e/pseudo/h_pbe_v1.4.uspp.F.UPF
     MD5 check sum: 761ae9a214b05c3daf00ab9f6b793d6f
     Pseudo is Ultrasoft, Zval =  1.0
     Generated by new atomic code, or converted to UPF format
     Using radial grid of  615 points,  2 beta functions with: 
                l(1) =   0
                l(2) =   0
     Q(r) pseudized with  8 coefficients,  rinner =    0.700

     atomic species   valence    mass     pseudopotential
        Hf            12.00   178.49000     Hf( 1.00)
        Nb            13.00    92.90637     Nb( 1.00)
        Ta            13.00   180.94788     Ta( 1.00)
        Zr            12.00    91.22400     Zr( 1.00)
        H              1.00     2.01400     H ( 1.00)

     Starting magnetic structure 
     atomic species   magnetization
        Hf           0.000
        Nb           0.000
        Ta           0.000
        Zr           0.000
        H            0.000

     No symmetry found



   Cartesian axes

     site n.     atom                  positions (alat units)
         1           Hf  tau(   1) = (   0.3637602   0.3851666   0.8997227  )
         2           Hf  tau(   2) = (   0.1707072   0.1752431   0.6891644  )
         3           Hf  tau(   3) = (   0.1710473   1.0067854   0.6931973  )
         4           Hf  tau(   4) = (   0.5568133   0.1752431   0.6891644  )
         5           Hf  tau(   5) = (   0.5564732   1.0067854   0.6931973  )
         6           Nb  tau(   6) = (   0.3637602   0.3810532   0.4789623  )
         7           Nb  tau(   7) = (   0.3637602   0.8005966   0.9039507  )
         8           Ta  tau(   8) = (   0.1647647   0.5914071   0.6908891  )
         9           Ta  tau(   9) = (   0.5627557   0.5914071   0.6908891  )
        10           Ta  tau(  10) = (   0.1780998   0.1790358   0.2804876  )
        11           Ta  tau(  11) = (   0.1774916   0.1782549   1.1028038  )
        12           Ta  tau(  12) = (   0.1776580   1.0048810   0.2787789  )
        13           Ta  tau(  13) = (   0.1781622   1.0034173   1.1016352  )
        14           Ta  tau(  14) = (   0.5494206   0.1790358   0.2804876  )
        15           Ta  tau(  15) = (   0.5500289   0.1782549   1.1028038  )
        16           Ta  tau(  16) = (   0.5498625   1.0048810   0.2787789  )
        17           Ta  tau(  17) = (   0.5493582   1.0034173   1.1016352  )
        18           Zr  tau(  18) = (   0.3637602   0.7992215   0.4805700  )
        19           Zr  tau(  19) = (   0.1694598   0.5888390   0.2724796  )
        20           Zr  tau(  20) = (   0.1689898   0.5932048   1.1103210  )
        21           Zr  tau(  21) = (   0.5580607   0.5888390   0.2724796  )
        22           Zr  tau(  22) = (   0.5585306   0.5932048   1.1103210  )
        23           H   tau(  23) = (   0.6590918   0.6594006   0.7591526  )

     number of k points=     1  Gaussian smearing, width (Ry)=  0.0220
                       cart. coord. in units 2pi/alat
        k(    1) = (   0.0000000   0.0000000   0.0000000), wk =   1.0000000

     Dense  grid:   387484 G-vectors     FFT dimensions: ( 100, 120, 135)

     Estimated max dynamical RAM per process >     326.54 MB

     Estimated total dynamical RAM >       3.83 GB

     Check: negative core charge=   -0.000002
     Generating pointlists ...
     new r_m :   0.1421 (alat units)  1.9717 (a.u.) for type    1
     new r_m :   0.1397 (alat units)  1.9374 (a.u.) for type    2
     new r_m :   0.0562 (alat units)  0.7796 (a.u.) for type    3
     new r_m :   0.1415 (alat units)  1.9625 (a.u.) for type    4
     new r_m :   0.0562 (alat units)  0.7796 (a.u.) for type    5

     Initial potential from superposition of free atoms

     starting charge     266.9726, renormalised to     277.0000

     negative rho (up, down):  9.202E-01 9.202E-01
     Starting wfcs are  287 randomized atomic wfcs

     total cpu time spent up to now is       26.7 secs

     Self-consistent Calculation

     iteration #  1     ecut=   120.00 Ry     beta= 0.70
     Davidson diagonalization with overlap
     ethr =  1.00E-02,  avg # of iterations =  3.0

     negative rho (up, down):  9.520E-01 9.495E-01

     total cpu time spent up to now is       72.6 secs

     total energy              =   -2933.25876349 Ry
     estimated scf accuracy    <     320.29260461 Ry

     total magnetization       =    -0.01 Bohr mag/cell
     absolute magnetization    =     0.09 Bohr mag/cell

     iteration #  2     ecut=   120.00 Ry     beta= 0.70
     Davidson diagonalization with overlap
     ethr =  1.00E-02,  avg # of iterations =  4.5

     negative rho (up, down):  8.881E-01 8.878E-01

     total cpu time spent up to now is      118.3 secs

     total energy              =   -2941.13730249 Ry
     estimated scf accuracy    <      48.25482181 Ry

     total magnetization       =    -0.19 Bohr mag/cell
     absolute magnetization    =     0.42 Bohr mag/cell

     iteration #  3     ecut=   120.00 Ry     beta= 0.70
     Davidson diagonalization with overlap
     ethr =  1.00E-02,  avg # of iterations =  3.5

     negative rho (up, down):  9.122E-01 9.121E-01

     total cpu time spent up to now is      163.3 secs

     total energy              =   -2941.84726767 Ry
     estimated scf accuracy    <      17.76599987 Ry

     total magnetization       =     0.19 Bohr mag/cell
     absolute magnetization    =     0.83 Bohr mag/cell

     iteration #  4     ecut=   120.00 Ry     beta= 0.70
     Davidson diagonalization with overlap
     ethr =  6.41E-03,  avg # of iterations =  3.0

     negative rho (up, down):  9.193E-01 9.195E-01

     total cpu time spent up to now is      213.0 secs

     total energy              =   -2942.16155435 Ry
     estimated scf accuracy    <       3.47038657 Ry

     total magnetization       =     0.23 Bohr mag/cell
     absolute magnetization    =     0.88 Bohr mag/cell

     iteration #  5     ecut=   120.00 Ry     beta= 0.70
     Davidson diagonalization with overlap
     ethr =  1.25E-03,  avg # of iterations =  7.0

     negative rho (up, down):  9.134E-01 9.138E-01

     total cpu time spent up to now is      277.7 secs

     total energy              =   -2942.34409130 Ry
     estimated scf accuracy    <       1.55889037 Ry

     total magnetization       =     0.11 Bohr mag/cell
     absolute magnetization    =     0.44 Bohr mag/cell

     iteration #  6     ecut=   120.00 Ry     beta= 0.70
     Davidson diagonalization with overlap
     ethr =  5.63E-04,  avg # of iterations =  2.0

     negative rho (up, down):  9.120E-01 9.124E-01

     total cpu time spent up to now is      331.7 secs

     total energy              =   -2942.34137123 Ry
     estimated scf accuracy    <       0.76985212 Ry

     total magnetization       =     0.08 Bohr mag/cell
     absolute magnetization    =     0.36 Bohr mag/cell

     iteration #  7     ecut=   120.00 Ry     beta= 0.70
     Davidson diagonalization with overlap
     ethr =  2.78E-04,  avg # of iterations =  7.0

     negative rho (up, down):  9.058E-01 9.060E-01

     total cpu time spent up to now is      386.5 secs

     total energy              =   -2942.37129583 Ry
     estimated scf accuracy    <       0.11677222 Ry

     total magnetization       =     0.10 Bohr mag/cell
     absolute magnetization    =     0.32 Bohr mag/cell

     iteration #  8     ecut=   120.00 Ry     beta= 0.70
     Davidson diagonalization with overlap
     ethr =  4.22E-05,  avg # of iterations = 11.5

     negative rho (up, down):  9.042E-01 9.043E-01

     total cpu time spent up to now is      453.9 secs

     total energy              =   -2942.37199778 Ry
     estimated scf accuracy    <       0.07370347 Ry

     total magnetization       =     0.10 Bohr mag/cell
     absolute magnetization    =     0.22 Bohr mag/cell

     iteration #  9     ecut=   120.00 Ry     beta= 0.70
     Davidson diagonalization with overlap
     ethr =  2.66E-05,  avg # of iterations =  2.0

     negative rho (up, down):  9.053E-01 9.054E-01

     total cpu time spent up to now is      511.8 secs

     total energy              =   -2942.37708381 Ry
     estimated scf accuracy    <       0.04809835 Ry

     total magnetization       =     0.08 Bohr mag/cell
     absolute magnetization    =     0.16 Bohr mag/cell

     iteration # 10     ecut=   120.00 Ry     beta= 0.70
     Davidson diagonalization with overlap
     ethr =  1.74E-05,  avg # of iterations =  2.0

     negative rho (up, down):  9.059E-01 9.059E-01

     total cpu time spent up to now is      571.1 secs

     total energy              =   -2942.37891889 Ry
     estimated scf accuracy    <       0.00940054 Ry

     total magnetization       =     0.08 Bohr mag/cell
     absolute magnetization    =     0.13 Bohr mag/cell

     iteration # 11     ecut=   120.00 Ry     beta= 0.70
     Davidson diagonalization with overlap
     ethr =  3.39E-06,  avg # of iterations =  7.0

     negative rho (up, down):  9.065E-01 9.066E-01

     total cpu time spent up to now is      622.5 secs

     total energy              =   -2942.37961474 Ry
     estimated scf accuracy    <       0.00167793 Ry

     total magnetization       =     0.08 Bohr mag/cell
     absolute magnetization    =     0.12 Bohr mag/cell

     iteration # 12     ecut=   120.00 Ry     beta= 0.70
     Davidson diagonalization with overlap
     ethr =  6.06E-07,  avg # of iterations =  5.0

     negative rho (up, down):  9.064E-01 9.065E-01

     Magnetic moment per site  (integrated on atomic sphere of radius R)
     atom   1 (R=0.142)  charge=  9.4650  magn=  0.0008
     atom   2 (R=0.142)  charge=  9.0542  magn=  0.0005
     atom   3 (R=0.142)  charge=  9.0554  magn=  0.0007
     atom   4 (R=0.142)  charge=  9.0547  magn=  0.0008
     atom   5 (R=0.142)  charge=  9.0565  magn=  0.0006
     atom   6 (R=0.140)  charge= 10.3392  magn=  0.0007
     atom   7 (R=0.140)  charge= 10.3502  magn=  0.0007
     atom   8 (R=0.056)  charge=  1.3448  magn=  0.0000
     atom   9 (R=0.056)  charge=  1.3607  magn=  0.0000
     atom  10 (R=0.056)  charge=  1.3422  magn= -0.0000
     atom  11 (R=0.056)  charge=  1.3418  magn= -0.0000
     atom  12 (R=0.056)  charge=  1.3417  magn=  0.0001
     atom  13 (R=0.056)  charge=  1.3417  magn= -0.0000
     atom  14 (R=0.056)  charge=  1.3430  magn= -0.0000
     atom  15 (R=0.056)  charge=  1.3431  magn=  0.0001
     atom  16 (R=0.056)  charge=  1.3417  magn=  0.0001
     atom  17 (R=0.056)  charge=  1.3426  magn= -0.0000
     atom  18 (R=0.141)  charge=  9.4586  magn=  0.0005
     atom  19 (R=0.141)  charge=  8.9982  magn=  0.0092
     atom  20 (R=0.141)  charge=  8.9944  magn=  0.0012
     atom  21 (R=0.141)  charge=  8.9964  magn=  0.0118
     atom  22 (R=0.141)  charge=  8.9955  magn=  0.0019
     atom  23 (R=0.056)  charge=  0.7657  magn=  0.0000

     total cpu time spent up to now is      669.8 secs

     End of self-consistent calculation

 ------ SPIN UP ------------


          k = 0.0000 0.0000 0.0000 ( 48454 PWs)   bands (ev):

   -57.8554 -57.8535 -57.8088 -57.8045 -57.7806 -57.7722 -57.7319 -57.7292
   -57.5791 -57.4135 -51.4241 -51.3767 -51.2988 -51.2520 -49.6775 -43.3073
   -43.2319 -38.6263 -38.6127 -38.5244 -38.5232 -36.8178 -25.9545 -24.8609
   -24.8571 -24.7727 -24.7705 -24.6671 -24.6650 -24.5497 -24.5437 -24.3938
   -24.3849 -24.3245 -24.3178 -24.3096 -24.2870 -24.2747 -24.2256 -24.2170
   -24.1997 -24.1102 -24.0361 -24.0345 -24.0312 -24.0217 -23.9693 -23.9583
   -23.9429 -23.9367 -23.6862 -23.6005 -21.2127 -21.0045 -20.6854 -20.6022
   -20.3402 -20.2042 -20.1820 -20.0778 -19.9703 -19.8882 -19.8822 -19.6556
   -19.5628 -19.4543 -19.4018 -19.3614 -19.3018 -19.2507 -18.7622 -18.6807
   -18.6137 -17.1871 -16.8655 -16.8520 -16.8165 -16.6265 -16.6097 -16.5986
   -16.5870 -16.5599 -16.5207 -16.3119 -16.2874 -15.1733 -14.9594 -14.8360
     4.1454   5.0808   5.7983   6.1072   6.2621   6.4066   6.5833   6.5998
     6.6146   6.7683   6.9055   6.9851   7.1946   7.3007   7.5621   7.6074
     7.6421   7.8206   7.9280   8.0183   8.1113   8.1634   8.2425   8.2544
     8.3540   8.4727   8.5627   8.6210   8.6494   8.6936   8.7339   8.7649
     8.8578   8.9870   9.0821   9.1060   9.1774   9.2397   9.2622   9.3131
     9.3691   9.4343   9.6765   9.7550   9.8326   9.9565   9.9582  10.0938
    10.1711  10.2229  10.2794  10.3654  10.4046  10.4227  10.5456  10.5818
    10.6472  10.7606  10.8684  10.9183  11.0130  11.0692  11.1478  11.2129
    11.2632  11.3361  11.4025  11.5792  11.6857  11.7961  11.7994  11.8269
    11.9859  12.1177  12.1646  12.1775  12.1871  12.2073  12.2533

 ------ SPIN DOWN ----------


          k = 0.0000 0.0000 0.0000 ( 48454 PWs)   bands (ev):

   -57.8551 -57.8539 -57.8090 -57.8042 -57.7799 -57.7723 -57.7315 -57.7292
   -57.5783 -57.4131 -51.4236 -51.3762 -51.2984 -51.2516 -49.6769 -43.3065
   -43.2311 -38.6166 -38.6112 -38.5229 -38.5143 -36.8173 -25.9541 -24.8611
   -24.8570 -24.7727 -24.7709 -24.6673 -24.6650 -24.5489 -24.5430 -24.3939
   -24.3848 -24.3244 -24.3177 -24.3092 -24.2861 -24.2746 -24.2251 -24.2163
   -24.1993 -24.1092 -24.0357 -24.0346 -24.0316 -24.0215 -23.9695 -23.9582
   -23.9418 -23.9367 -23.6858 -23.5998 -21.2119 -21.0038 -20.6845 -20.6015
   -20.3393 -20.2035 -20.1812 -20.0770 -19.9697 -19.8876 -19.8816 -19.6550
   -19.5617 -19.4533 -19.4006 -19.3608 -19.3006 -19.2501 -18.7613 -18.6802
   -18.6127 -17.1778 -16.8629 -16.8446 -16.8017 -16.6249 -16.6011 -16.5975
   -16.5794 -16.5569 -16.5194 -16.2968 -16.2855 -15.1724 -14.9586 -14.8343
     4.1465   5.0817   5.7994   6.1083   6.2632   6.4077   6.5843   6.6008
     6.6158   6.7695   6.9064   6.9862   7.1964   7.3021   7.5636   7.6106
     7.6448   7.8222   7.9300   8.0199   8.1124   8.1664   8.2438   8.2557
     8.3548   8.4748   8.5673   8.6273   8.6512   8.6952   8.7354   8.7668
     8.8589   8.9884   9.0844   9.1065   9.1790   9.2416   9.2636   9.3142
     9.3713   9.4356   9.6793   9.7566   9.8352   9.9586   9.9607  10.0968
    10.1724  10.2283  10.3008  10.3699  10.4055  10.4248  10.5478  10.5843
    10.6496  10.7642  10.8712  10.9221  11.0158  11.0700  11.1495  11.2141
    11.2671  11.3375  11.4041  11.5816  11.6890  11.8000  11.8022  11.8294
    11.9886  12.1194  12.1661  12.1804  12.1901  12.2099  12.2552

     the Fermi energy is    10.2778 ev

!    total energy              =   -2942.37972269 Ry
     estimated scf accuracy    <       0.00030942 Ry
     smearing contrib. (-TS)   =      -0.09949052 Ry
     internal energy E=F+TS    =   -2942.28023217 Ry

     total magnetization       =     0.08 Bohr mag/cell
     absolute magnetization    =     0.10 Bohr mag/cell

     convergence has been achieved in  12 iterations

     negative rho (up, down):  9.064E-01 9.065E-01

     Forces acting on atoms (cartesian axes, Ry/au):

     atom    1 type  1   force =     0.00855826   -0.01447495    0.01480003
     atom    2 type  1   force =    -0.13524250   -0.01633399   -0.00130691
     atom    3 type  1   force =    -0.13066691    0.01243840    0.00313243
     atom    4 type  1   force =     0.13862071   -0.01996020   -0.00156512
     atom    5 type  1   force =     0.13312585    0.00902375    0.00424793
     atom    6 type  2   force =     0.01449145   -0.00648492    0.00393396
     atom    7 type  2   force =    -0.01435784    0.01266778    0.00362407
     atom    8 type  3   force =    -0.14613977    0.01529493    0.01688970
     atom    9 type  3   force =    -1.41694035   -1.14228037   -1.16842660
     atom   10 type  3   force =    -0.03448473   -0.02056008   -0.05607067
     atom   11 type  3   force =    -0.03824926   -0.02952522    0.05852459
     atom   12 type  3   force =    -0.03072142    0.02602559   -0.06212544
     atom   13 type  3   force =    -0.02347645    0.02141816    0.06195426
     atom   14 type  3   force =     0.02904000   -0.01910205   -0.05703347
     atom   15 type  3   force =     0.03247699   -0.02890840    0.06113451
     atom   16 type  3   force =     0.03060678    0.02847448   -0.05538566
     atom   17 type  3   force =     0.02240872    0.02277100    0.05593011
     atom   18 type  4   force =     0.00714302    0.02376243   -0.01180500
     atom   19 type  4   force =    -0.15185964   -0.00495226   -0.12236006
     atom   20 type  4   force =    -0.15004827    0.00489184    0.12008349
     atom   21 type  4   force =     0.15110222   -0.00524095   -0.13004084
     atom   22 type  4   force =     0.15045190    0.00629153    0.12490116
     atom   23 type  5   force =     1.55416127    1.12476350    1.13696351
     The non-local contrib.  to forces
     atom    1 type  1   force =     0.01211950    0.00067488    0.03791913
     atom    2 type  1   force =    -0.25104031   -0.16935827    0.01424472
     atom    3 type  1   force =    -0.24616944    0.15973213   -0.02757261
     atom    4 type  1   force =     0.24549684   -0.17009082    0.01599391
     atom    5 type  1   force =     0.24476298    0.15656845   -0.02958872
     atom    6 type  2   force =     0.00076326   -0.08197963   -0.05626614
     atom    7 type  2   force =    -0.00940425    0.08697582    0.05087245
     atom    8 type  3   force =    -0.24520399    0.00575911   -0.00486622
     atom    9 type  3   force =     0.84820304    0.42150858    0.40190685
     atom   10 type  3   force =    -0.24659812   -0.00269828   -0.23264359
     atom   11 type  3   force =    -0.24573887    0.02329389    0.20863395
     atom   12 type  3   force =    -0.22763612   -0.02711140   -0.19417429
     atom   13 type  3   force =    -0.22621289   -0.01901848    0.21208287
     atom   14 type  3   force =     0.23063819    0.00492174   -0.22224213
     atom   15 type  3   force =     0.23798005    0.01240794    0.21412687
     atom   16 type  3   force =     0.22113607   -0.02398491   -0.18776100
     atom   17 type  3   force =     0.23272757   -0.01265363    0.21282138
     atom   18 type  4   force =    -0.00733624    0.09022404   -0.05391781
     atom   19 type  4   force =     0.07751086   -0.00269654    0.05351018
     atom   20 type  4   force =     0.07309102    0.00005453   -0.04647940
     atom   21 type  4   force =    -0.07384695    0.00860321    0.04770664
     atom   22 type  4   force =    -0.06749286   -0.00342165   -0.03674037
     atom   23 type  5   force =    -0.14328291   -0.10325777   -0.10370514
     The ionic contribution  to forces
     atom    1 type  1   force =    -0.32538868   -4.98824524   14.99854237
     atom    2 type  1   force =   -27.83041463   -6.27450494    0.73512310
     atom    3 type  1   force =   -27.83418516    6.36252652   -0.77631865
     atom    4 type  1   force =    27.74176247   -6.43126109    0.70209870
     atom    5 type  1   force =    27.60211070    6.89584636   -0.88175727
     atom    6 type  2   force =    -0.19792499   -3.81192257  -15.04267274
     atom    7 type  2   force =    -0.67689630    3.98638515   15.19538700
     atom    8 type  3   force =   -38.67455710   -0.03192237   -0.18678432
     atom    9 type  3   force =    33.56455006   -3.53922440   -3.70941340
     atom   10 type  3   force =   -24.84950098   -2.13255831  -24.60512432
     atom   11 type  3   force =   -23.92512498   -0.88865774   23.63477916
     atom   12 type  3   force =   -24.04748596    0.84960122  -23.67404889
     atom   13 type  3   force =   -24.83763005    2.30155966   24.66161288
     atom   14 type  3   force =    24.81816091   -2.15894070  -24.64721894
     atom   15 type  3   force =    23.87278826   -0.94840692   23.70332273
     atom   16 type  3   force =    24.00055779    0.90467612  -23.75288740
     atom   17 type  3   force =    24.74123564    2.44807270   24.81806303
     atom   18 type  4   force =    -0.31574372    4.57164471  -15.06398463
     atom   19 type  4   force =   -25.10892356    0.94424124  -27.10672388
     atom   20 type  4   force =   -25.07201780   -1.01623429   27.16959614
     atom   21 type  4   force =    25.03399758    0.91558349  -27.29329633
     atom   22 type  4   force =    24.85673162   -1.11697866   27.70409121
     atom   23 type  5   force =     7.46389889    3.15872007    3.41761444
     The local contribution  to forces
     atom    1 type  1   force =     0.31935251    4.97721465  -15.01397550
     atom    2 type  1   force =    27.95451775    6.43106238   -0.75106180
     atom    3 type  1   force =    27.95989813   -6.51425204    0.80911643
     atom    4 type  1   force =   -27.85549902    6.58216810   -0.72182171
     atom    5 type  1   force =   -27.72021777   -7.04625718    0.91807541
     atom    6 type  2   force =     0.20981149    3.89381070   15.08642589
     atom    7 type  2   force =     0.67295757   -4.06399709  -15.22924098
     atom    8 type  3   force =    38.79274629    0.04183331    0.20377811
     atom    9 type  3   force =   -35.87351649    1.95921667    2.12227694
     atom   10 type  3   force =    25.08865022    2.11486075   24.78794460
     atom   11 type  3   force =    24.15885883    0.83020399  -23.79403646
     atom   12 type  3   force =    24.27259330   -0.79558091   23.80815487
     atom   13 type  3   force =    25.06567272   -2.26071409  -24.81346742
     atom   14 type  3   force =   -25.04279770    2.13098952   24.81865341
     atom   15 type  3   force =   -24.10237631    0.89879319  -23.86295521
     atom   16 type  3   force =   -24.21540241   -0.85003877   23.88571494
     atom   17 type  3   force =   -24.97324636   -2.41571279  -24.97711576
     atom   18 type  4   force =     0.32940011   -4.64125559   15.09196245
     atom   19 type  4   force =    24.89061673   -0.94471828   26.92689363
     atom   20 type  4   force =    24.86090920    1.02543162  -26.99659591
     atom   21 type  4   force =   -24.81975651   -0.92666532   27.10841987
     atom   22 type  4   force =   -24.64920617    1.13305249  -27.53326494
     atom   23 type  5   force =    -5.76537843   -1.93073120   -2.17653037
     The core correction contribution to forces
     atom    1 type  1   force =     0.00122784    0.00313174   -0.00152085
     atom    2 type  1   force =    -0.01180881   -0.00232716    0.00091343
     atom    3 type  1   force =    -0.01249618    0.00183493   -0.00215035
     atom    4 type  1   force =     0.01064023   -0.00279738    0.00136685
     atom    5 type  1   force =     0.01010836    0.00211680   -0.00203425
     atom    6 type  2   force =     0.00094040    0.00539174    0.00343933
     atom    7 type  2   force =     0.00055950   -0.00435144   -0.00160281
     atom    8 type  3   force =    -0.02800438    0.00147544    0.00183679
     atom    9 type  3   force =     0.05138794    0.01865661    0.01456718
     atom   10 type  3   force =    -0.02614210    0.00406508   -0.01641753
     atom   11 type  3   force =    -0.02805324    0.00705309    0.01745644
     atom   12 type  3   force =    -0.02507132   -0.00791522   -0.01494437
     atom   13 type  3   force =    -0.02410600   -0.00687823    0.01553554
     atom   14 type  3   force =     0.02508114    0.00511190   -0.01677174
     atom   15 type  3   force =     0.02626452    0.00749940    0.01622746
     atom   16 type  3   force =     0.02443850   -0.00733114   -0.01404927
     atom   17 type  3   force =     0.02389318   -0.00506889    0.01592984
     atom   18 type  4   force =     0.00071956   -0.00507229    0.00257133
     atom   19 type  4   force =    -0.01049726    0.00071090   -0.00857970
     atom   20 type  4   force =    -0.01020717   -0.00035486    0.00827682
     atom   21 type  4   force =     0.01023944    0.00013087   -0.00818308
     atom   22 type  4   force =     0.01008307   -0.00004459    0.00758031
     atom   23 type  5   force =     0.00000000    0.00000000    0.00000000
     The Hubbard contrib.    to forces
     atom    1 type  1   force =     0.00000000    0.00000000    0.00000000
     atom    2 type  1   force =     0.00000000    0.00000000    0.00000000
     atom    3 type  1   force =     0.00000000    0.00000000    0.00000000
     atom    4 type  1   force =     0.00000000    0.00000000    0.00000000
     atom    5 type  1   force =     0.00000000    0.00000000    0.00000000
     atom    6 type  2   force =     0.00000000    0.00000000    0.00000000
     atom    7 type  2   force =     0.00000000    0.00000000    0.00000000
     atom    8 type  3   force =     0.00000000    0.00000000    0.00000000
     atom    9 type  3   force =     0.00000000    0.00000000    0.00000000
     atom   10 type  3   force =     0.00000000    0.00000000    0.00000000
     atom   11 type  3   force =     0.00000000    0.00000000    0.00000000
     atom   12 type  3   force =     0.00000000    0.00000000    0.00000000
     atom   13 type  3   force =     0.00000000    0.00000000    0.00000000
     atom   14 type  3   force =     0.00000000    0.00000000    0.00000000
     atom   15 type  3   force =     0.00000000    0.00000000    0.00000000
     atom   16 type  3   force =     0.00000000    0.00000000    0.00000000
     atom   17 type  3   force =     0.00000000    0.00000000    0.00000000
     atom   18 type  4   force =     0.00000000    0.00000000    0.00000000
     atom   19 type  4   force =     0.00000000    0.00000000    0.00000000
     atom   20 type  4   force =     0.00000000    0.00000000    0.00000000
     atom   21 type  4   force =     0.00000000    0.00000000    0.00000000
     atom   22 type  4   force =     0.00000000    0.00000000    0.00000000
     atom   23 type  5   force =     0.00000000    0.00000000    0.00000000
     The SCF correction term to forces
     atom    1 type  1   force =     0.00000000   -0.00000000   -0.00000000
     atom    2 type  1   force =     0.00354646   -0.00123574   -0.00051870
     atom    3 type  1   force =     0.00232871    0.00256712    0.00006528
     atom    4 type  1   force =    -0.00373683    0.00199124    0.00080481
     atom    5 type  1   force =    -0.00359546    0.00071957   -0.00043957
     atom    6 type  2   force =     0.00094424   -0.01181491    0.01301529
     atom    7 type  2   force =    -0.00153140    0.00762559   -0.01178392
     atom    8 type  3   force =     0.00892238   -0.00188029    0.00293302
     atom    9 type  3   force =    -0.00752194   -0.00246757    0.00224350
     atom   10 type  3   force =    -0.00085078   -0.00425907    0.01017783
     atom   11 type  3   force =     0.00185197   -0.00144820   -0.00830082
     atom   12 type  3   force =    -0.00307835    0.00700216    0.01289492
     atom   13 type  3   force =    -0.00115727    0.00643954   -0.01380194
     atom   14 type  3   force =    -0.00199957   -0.00121426    0.01055360
     atom   15 type  3   force =    -0.00213656    0.00076824   -0.00957965
     atom   16 type  3   force =    -0.00008021    0.00512344    0.01360474
     atom   17 type  3   force =    -0.00215834    0.00810386   -0.01376070
     atom   18 type  4   force =     0.00014628    0.00819181    0.01157133
     atom   19 type  4   force =    -0.00052345   -0.00251934    0.01254738
     atom   20 type  4   force =    -0.00178055   -0.00403491   -0.01470648
     atom   21 type  4   force =     0.00051162   -0.00292295    0.01531973
     atom   22 type  4   force =     0.00037920   -0.00634580   -0.01675738
     atom   23 type  5   force =    -0.00103331    0.00000264   -0.00040775

     Total force =     3.152842     Total SCF correction =     0.056867

     Molecular Dynamics Calculation

     Starting temperature  =   300.00 K

     temperature is set once at start

     mass Hf               =   178.49
     mass Nb               =    92.91
     mass Ta               =   180.95
     mass Zr               =    91.22
     mass H                =     2.01
     Time step             =     4.20 a.u.,  0.2032 femto-seconds

     Entering Dynamics:    iteration =     1
                           time      =   0.0002 pico-seconds


ATOMIC_POSITIONS (angstrom)
Hf            2.6699999570        2.8271230292        6.6039642186    0   0   0
Hf            1.2529868001        1.2862837128        5.0584661886
Hf            1.2554831498        7.3898046517        5.0880678573
Hf            4.0870132108        1.2862836087        5.0584661812
Hf            4.0845168347        7.3898045537        5.0880678893
Nb            2.6700007557        2.7969302481        3.5155834335
Nb            2.6699991656        5.8763793745        6.6349981430
Ta            1.2093689202        4.3409282844        5.0711263103
Ta            4.1305867586        4.3408955251        5.0710927659
Ta            1.3072517082        1.3141220076        2.0587775233
Ta            1.3027872317        1.3083903004        8.0945808586
Ta            1.3040087527        7.3758268606        2.0462354217
Ta            1.3077101340        7.3650835545        8.0860039741
Ta            4.0327480517        1.3141220488        2.0587774961
Ta            4.0372125189        1.3083903179        8.0945809325
Ta            4.0359911581        7.3758269299        2.0462356124
Ta            4.0322897498        7.3650835928        8.0860038036
Zr            2.6700003580        5.8662871773        3.5273832677
Zr            1.2438260944        4.3220776865        1.9999931314
Zr            1.2403769898        4.3541235591        8.1497622901
Zr            4.0961737771        4.3220776703        1.9999927002
Zr            4.0996229469        4.3541236377        8.1497625606
H             4.5272174778        4.8428597877        5.5750706522


     kinetic energy (Ekin) =          18.37431130 Ry
     temperature           =       87911.34250823 K 
     Ekin + Etot (const)   =       -2924.00541139 Ry

     File outdir/pwscf.msd.dat deleted, as requested

     Writing config-only to output data dir outdir/pwscf.save/
     NEW-OLD atomic charge density approx. for the potential

     Check: negative core charge=   -0.000002

     negative rho (up, down):  9.054E-01 9.055E-01
     Generating pointlists ...
     new r_m :   0.1335 (alat units)  1.8514 (a.u.) for type    2
     new r_m :   0.0458 (alat units)  0.6348 (a.u.) for type    3
     new r_m :   0.0458 (alat units)  0.6348 (a.u.) for type    5

     total cpu time spent up to now is      694.8 secs

     Self-consistent Calculation

     iteration #  1     ecut=   120.00 Ry     beta= 0.70
     Davidson diagonalization with overlap
     ethr =  1.00E-06,  avg # of iterations = 18.0

     negative rho (up, down):  9.070E-01 9.071E-01

     total cpu time spent up to now is      806.4 secs

     total energy              =   -2941.12876816 Ry
     estimated scf accuracy    <       0.12404382 Ry

     total magnetization       =     0.07 Bohr mag/cell
     absolute magnetization    =     0.09 Bohr mag/cell

     iteration #  2     ecut=   120.00 Ry     beta= 0.70
     Davidson diagonalization with overlap
     ethr =  4.48E-05,  avg # of iterations =  2.0

     negative rho (up, down):  9.069E-01 9.070E-01

     total cpu time spent up to now is      848.0 secs

     total energy              =   -2941.13671048 Ry
     estimated scf accuracy    <       0.02211104 Ry

     total magnetization       =     0.07 Bohr mag/cell
     absolute magnetization    =     0.08 Bohr mag/cell

     iteration #  3     ecut=   120.00 Ry     beta= 0.70
     Davidson diagonalization with overlap
     ethr =  7.98E-06,  avg # of iterations =  2.0

     negative rho (up, down):  9.070E-01 9.070E-01

     total cpu time spent up to now is      889.1 secs

     total energy              =   -2941.13770853 Ry
     estimated scf accuracy    <       0.00315004 Ry

     total magnetization       =     0.07 Bohr mag/cell
     absolute magnetization    =     0.08 Bohr mag/cell

     iteration #  4     ecut=   120.00 Ry     beta= 0.70
     Davidson diagonalization with overlap
     ethr =  1.14E-06,  avg # of iterations =  7.0

     negative rho (up, down):  9.069E-01 9.069E-01

     Magnetic moment per site  (integrated on atomic sphere of radius R)
     atom   1 (R=0.142)  charge=  9.4604  magn=  0.0004
     atom   2 (R=0.142)  charge=  9.0541  magn=  0.0002
     atom   3 (R=0.142)  charge=  9.0559  magn=  0.0004
     atom   4 (R=0.142)  charge=  9.0507  magn=  0.0004
     atom   5 (R=0.142)  charge=  9.0551  magn=  0.0005
     atom   6 (R=0.133)  charge=  9.9346  magn=  0.0003
     atom   7 (R=0.133)  charge=  9.9583  magn=  0.0006
     atom   8 (R=0.046)  charge=  0.4066  magn=  0.0000
     atom   9 (R=0.046)  charge=  0.4164  magn=  0.0000
     atom  10 (R=0.046)  charge=  0.4046  magn= -0.0000
     atom  11 (R=0.046)  charge=  0.4047  magn=  0.0000
     atom  12 (R=0.046)  charge=  0.4038  magn=  0.0000
     atom  13 (R=0.046)  charge=  0.4046  magn=  0.0000
     atom  14 (R=0.046)  charge=  0.4041  magn=  0.0000
     atom  15 (R=0.046)  charge=  0.4044  magn=  0.0000
     atom  16 (R=0.046)  charge=  0.4054  magn=  0.0000
     atom  17 (R=0.046)  charge=  0.4040  magn=  0.0000
     atom  18 (R=0.141)  charge=  9.4542  magn=  0.0005
     atom  19 (R=0.141)  charge=  8.9982  magn=  0.0073
     atom  20 (R=0.141)  charge=  8.9928  magn=  0.0010
     atom  21 (R=0.141)  charge=  8.9923  magn=  0.0086
     atom  22 (R=0.141)  charge=  8.9885  magn=  0.0015
     atom  23 (R=0.046)  charge=  0.6849  magn=  0.0000

     total cpu time spent up to now is      935.0 secs

     End of self-consistent calculation

 ------ SPIN UP ------------


          k = 0.0000 0.0000 0.0000 ( 48454 PWs)   bands (ev):

   -58.8518 -57.8602 -57.8530 -57.8115 -57.8109 -57.7757 -57.7654 -57.7322
   -57.7223 -57.6313 -51.4351 -51.3867 -51.3096 -51.2606 -49.7015 -43.3586
   -43.2645 -38.6269 -38.6163 -38.5296 -38.5158 -36.8555 -28.0066 -24.8659
   -24.8557 -24.7743 -24.7734 -24.6751 -24.6626 -24.5551 -24.5387 -24.4560
   -24.3885 -24.3714 -24.3271 -24.3207 -24.2953 -24.2735 -24.2462 -24.2224
   -24.2022 -24.1668 -24.1294 -24.0516 -24.0364 -24.0334 -24.0297 -24.0183
   -23.9694 -23.9585 -23.9448 -23.9284 -21.2324 -21.0239 -20.7058 -20.6151
   -20.3527 -20.2247 -20.1893 -20.0952 -19.9900 -19.9072 -19.8896 -19.6687
   -19.5995 -19.4901 -19.4267 -19.3965 -19.3263 -19.2860 -18.7816 -18.7024
   -18.6337 -17.1883 -16.8679 -16.8584 -16.8107 -16.6327 -16.6195 -16.6054
   -16.5798 -16.5656 -16.5295 -16.3035 -16.2894 -15.2058 -14.9930 -14.8654
     4.2988   5.4173   5.8015   6.0786   6.2337   6.3523   6.5494   6.5754
     6.5841   6.6952   6.8995   6.9779   7.1614   7.2243   7.5513   7.5868
     7.6418   7.8403   7.9218   8.0052   8.1088   8.1278   8.2443   8.2487
     8.3433   8.4534   8.5559   8.5689   8.6316   8.6632   8.6860   8.7809
     8.8485   8.9919   9.0629   9.1199   9.1694   9.2381   9.2611   9.3344
     9.3579   9.4318   9.6884   9.7384   9.8352   9.9534   9.9780  10.0654
    10.1557  10.2565  10.2905  10.3720  10.4057  10.4427  10.5422  10.5782
    10.6846  10.7508  10.8712  10.9203  11.0161  11.0763  11.1326  11.2100
    11.2545  11.3091  11.3920  11.5509  11.6602  11.7716  11.7892  11.7981
    11.9463  12.0081  12.0995  12.1663  12.1792  12.2025  12.2350

 ------ SPIN DOWN ----------


          k = 0.0000 0.0000 0.0000 ( 48454 PWs)   bands (ev):

   -58.8516 -57.8602 -57.8523 -57.8114 -57.8102 -57.7751 -57.7652 -57.7318
   -57.7220 -57.6311 -51.4348 -51.3865 -51.3094 -51.2604 -49.7012 -43.3583
   -43.2639 -38.6196 -38.6151 -38.5286 -38.5091 -36.8550 -28.0063 -24.8657
   -24.8552 -24.7741 -24.7730 -24.6749 -24.6619 -24.5539 -24.5383 -24.4556
   -24.3880 -24.3710 -24.3270 -24.3198 -24.2946 -24.2730 -24.2460 -24.2216
   -24.2018 -24.1666 -24.1293 -24.0512 -24.0354 -24.0330 -24.0296 -24.0178
   -23.9692 -23.9582 -23.9437 -23.9281 -21.2320 -21.0235 -20.7054 -20.6146
   -20.3523 -20.2244 -20.1889 -20.0949 -19.9897 -19.9068 -19.8893 -19.6683
   -19.5989 -19.4894 -19.4261 -19.3963 -19.3257 -19.2857 -18.7811 -18.7021
   -18.6332 -17.1814 -16.8656 -16.8525 -16.7999 -16.6315 -16.6129 -16.6048
   -16.5762 -16.5613 -16.5282 -16.2923 -16.2877 -15.2051 -14.9923 -14.8640
     4.2997   5.4178   5.8026   6.0794   6.2343   6.3532   6.5502   6.5759
     6.5851   6.6961   6.9003   6.9790   7.1628   7.2254   7.5530   7.5894
     7.6431   7.8418   7.9233   8.0065   8.1103   8.1290   8.2454   8.2503
     8.3442   8.4549   8.5597   8.5699   8.6357   8.6648   8.6875   8.7824
     8.8493   8.9931   9.0649   9.1207   9.1708   9.2399   9.2621   9.3356
     9.3593   9.4329   9.6905   9.7396   9.8376   9.9556   9.9799  10.0674
    10.1574  10.2709  10.2977  10.3741  10.4072  10.4452  10.5443  10.5809
    10.6860  10.7541  10.8736  10.9234  11.0185  11.0775  11.1338  11.2111
    11.2578  11.3102  11.3933  11.5528  11.6627  11.7741  11.7926  11.8005
    11.9482  12.0098  12.1011  12.1689  12.1807  12.2048  12.2362

     the Fermi energy is    10.2829 ev

!    total energy              =   -2941.13794660 Ry
     estimated scf accuracy    <       0.00029732 Ry
     smearing contrib. (-TS)   =      -0.09778651 Ry
     internal energy E=F+TS    =   -2941.04016009 Ry

     total magnetization       =     0.06 Bohr mag/cell
     absolute magnetization    =     0.07 Bohr mag/cell

     convergence has been achieved in   4 iterations

     negative rho (up, down):  9.069E-01 9.069E-01

     Forces acting on atoms (cartesian axes, Ry/au):

     atom    1 type  1   force =     0.01502119   -0.01343388    0.01019055
     atom    2 type  1   force =    -0.13521252   -0.01842649   -0.00126965
     atom    3 type  1   force =    -0.12986724    0.01155024    0.00390097
     atom    4 type  1   force =     0.14097456   -0.02050328    0.00358418
     atom    5 type  1   force =     0.12894098    0.00931281   -0.00160985
     atom    6 type  2   force =     0.04082472    0.01337789    0.02308471
     atom    7 type  2   force =    -0.01104072    0.01515629    0.00307955
     atom    8 type  3   force =    -0.13920378    0.01832166    0.01221490
     atom    9 type  3   force =    -2.52410225   -3.35163599   -3.39305921
     atom   10 type  3   force =    -0.04573459   -0.02839829   -0.05715398
     atom   11 type  3   force =    -0.04016246   -0.03178926    0.05379663
     atom   12 type  3   force =    -0.03265155    0.03175834   -0.05924667
     atom   13 type  3   force =    -0.02065204    0.02477166    0.05915081
     atom   14 type  3   force =     0.03184441   -0.01871689   -0.05578388
     atom   15 type  3   force =     0.03317883   -0.02725057    0.06020509
     atom   16 type  3   force =     0.02836236    0.02748922   -0.05109216
     atom   17 type  3   force =     0.02078885    0.02226974    0.05116483
     atom   18 type  4   force =     0.01240866    0.01895638   -0.00761012
     atom   19 type  4   force =    -0.15119441   -0.00674320   -0.12180986
     atom   20 type  4   force =    -0.15231782    0.00484764    0.11855216
     atom   21 type  4   force =     0.15160071   -0.00342960   -0.12719937
     atom   22 type  4   force =     0.15029346    0.00069612    0.11952331
     atom   23 type  5   force =     2.62790065    3.32181944    3.35738702
     The non-local contrib.  to forces
     atom    1 type  1   force =     0.01473511   -0.00365467    0.03593213
     atom    2 type  1   force =    -0.25221310   -0.17282668    0.01653359
     atom    3 type  1   force =    -0.24845452    0.16088049   -0.02855250
     atom    4 type  1   force =     0.24482015   -0.16566185    0.01613966
     atom    5 type  1   force =     0.24265689    0.15679396   -0.03237384
     atom    6 type  2   force =    -0.00406133   -0.05783164   -0.04617792
     atom    7 type  2   force =     0.00393699    0.09371991    0.06071336
     atom    8 type  3   force =    -0.25534268    0.00910699   -0.00442612
     atom    9 type  3   force =     0.99769638    0.99275961    0.96504827
     atom   10 type  3   force =    -0.24187486    0.00722314   -0.22673946
     atom   11 type  3   force =    -0.24572330    0.02319294    0.20601083
     atom   12 type  3   force =    -0.22435884   -0.02578970   -0.19488877
     atom   13 type  3   force =    -0.22316608   -0.01953120    0.21049603
     atom   14 type  3   force =     0.23336809    0.00436242   -0.22239863
     atom   15 type  3   force =     0.23764959    0.01324180    0.21582289
     atom   16 type  3   force =     0.21813269   -0.02471056   -0.18940093
     atom   17 type  3   force =     0.22588114   -0.01563846    0.20541621
     atom   18 type  4   force =    -0.00416034    0.09371223   -0.04663021
     atom   19 type  4   force =     0.08015930   -0.00709008    0.05928661
     atom   20 type  4   force =     0.07380878   -0.00347496   -0.04962008
     atom   21 type  4   force =    -0.07630068    0.00428216    0.05254223
     atom   22 type  4   force =    -0.06918284   -0.00667833   -0.04358662
     atom   23 type  5   force =    -0.01183894   -0.03527188   -0.03193580
     The ionic contribution  to forces
     atom    1 type  1   force =    -0.37462497   -5.07736249   15.04430414
     atom    2 type  1   force =   -27.85898632   -6.27773085    0.73412376
     atom    3 type  1   force =   -27.88990928    6.37218388   -0.77863899
     atom    4 type  1   force =    27.77219246   -6.44511019    0.69894555
     atom    5 type  1   force =    27.67825286    6.96410494   -0.89618179
     atom    6 type  2   force =    -0.21833182   -3.85333323  -15.08567964
     atom    7 type  2   force =    -0.84955525    4.12482822   15.33789834
     atom    8 type  3   force =   -38.85144588   -0.03947760   -0.19448502
     atom    9 type  3   force =    33.33906966   -6.67032041   -6.85361164
     atom   10 type  3   force =   -24.85960764   -2.13325136  -24.60631313
     atom   11 type  3   force =   -23.94160951   -0.89036775   23.63689545
     atom   12 type  3   force =   -24.06216492    0.85132040  -23.67643171
     atom   13 type  3   force =   -24.86503108    2.30611493   24.66642878
     atom   14 type  3   force =    24.82747923   -2.16091086  -24.65040487
     atom   15 type  3   force =    23.88849205   -0.95360291   23.70913232
     atom   16 type  3   force =    24.01461885    0.90945916  -23.75970274
     atom   17 type  3   force =    24.76952559    2.46387642   24.83452560
     atom   18 type  4   force =    -0.36295283    4.61508658  -15.15264529
     atom   19 type  4   force =   -25.13310151    0.94347697  -27.11045964
     atom   20 type  4   force =   -25.12510164   -1.01827335   27.17860579
     atom   21 type  4   force =    25.06024454    0.91294025  -27.30898281
     atom   22 type  4   force =    24.93025094   -1.13032715   27.76904781
     atom   23 type  5   force =     8.11229648    6.18667639    6.46362974
     The local contribution  to forces
     atom    1 type  1   force =     0.37906859    5.07077536  -15.07651652
     atom    2 type  1   force =    27.98413332    6.43247961   -0.75197818
     atom    3 type  1   force =    28.01795218   -6.52721511    0.81340713
     atom    4 type  1   force =   -27.87989713    6.59609418   -0.71293341
     atom    5 type  1   force =   -27.79581430   -7.12243338    0.92697411
     atom    6 type  2   force =     0.26879342    3.93517318   15.15868394
     atom    7 type  2   force =     0.83279687   -4.20298305  -15.40431352
     atom    8 type  3   force =    38.99800564    0.05397581    0.20840248
     atom    9 type  3   force =   -36.96497428    2.22770924    2.39241099
     atom   10 type  3   force =    25.07930402    2.09871466   24.79795450
     atom   11 type  3   force =    24.16811651    0.82760237  -23.81153530
     atom   12 type  3   force =    24.27668340   -0.79794638   23.83656430
     atom   13 type  3   force =    25.08438122   -2.25863205  -24.84209531
     atom   14 type  3   force =   -25.04613652    2.13467176   24.84014000
     atom   15 type  3   force =   -24.11189061    0.90819644  -23.88652273
     atom   16 type  3   force =   -24.22354839   -0.85532015   23.92162831
     atom   17 type  3   force =   -24.99554087   -2.42109202  -25.01322074
     atom   18 type  4   force =     0.38593907   -4.69303001   15.19744780
     atom   19 type  4   force =    24.91122859   -0.94012565   26.94724124
     atom   20 type  4   force =    24.90386308    1.03029769  -27.02543728
     atom   21 type  4   force =   -24.83987578   -0.91892885   27.15175375
     atom   22 type  4   force =   -24.71341858    1.13624073  -27.62776950
     atom   23 type  5   force =    -5.47448106   -2.83208748   -3.07735473
     The core correction contribution to forces
     atom    1 type  1   force =     0.00144018    0.00353064   -0.00020868
     atom    2 type  1   force =    -0.01205371   -0.00276703    0.00134521
     atom    3 type  1   force =    -0.01254381    0.00202786   -0.00146298
     atom    4 type  1   force =     0.01091158   -0.00247114    0.00066709
     atom    5 type  1   force =     0.00989599    0.00201899   -0.00200537
     atom    6 type  2   force =     0.00138349    0.00415159    0.00283750
     atom    7 type  2   force =     0.00009297   -0.00449064   -0.00188521
     atom    8 type  3   force =    -0.02926144    0.00135473   -0.00009168
     atom    9 type  3   force =     0.09859714    0.09413058    0.09016286
     atom   10 type  3   force =    -0.02601577    0.00497813   -0.01571852
     atom   11 type  3   force =    -0.02774813    0.00698100    0.01657932
     atom   12 type  3   force =    -0.02450402   -0.00823775   -0.01535124
     atom   13 type  3   force =    -0.02242786   -0.00764345    0.01486757
     atom   14 type  3   force =     0.02510665    0.00559224   -0.01672963
     atom   15 type  3   force =     0.02604630    0.00744588    0.01660825
     atom   16 type  3   force =     0.02354255   -0.00705494   -0.01447488
     atom   17 type  3   force =     0.02429394   -0.00575339    0.01579977
     atom   18 type  4   force =     0.00066699   -0.00535104    0.00228748
     atom   19 type  4   force =    -0.01066389    0.00094448   -0.00877913
     atom   20 type  4   force =    -0.01037846   -0.00019324    0.00828494
     atom   21 type  4   force =     0.01036060    0.00037890   -0.00805327
     atom   22 type  4   force =     0.01015937    0.00002116    0.00776419
     atom   23 type  5   force =     0.00000000    0.00000000    0.00000000
     The Hubbard contrib.    to forces
     atom    1 type  1   force =     0.00000000    0.00000000    0.00000000
     atom    2 type  1   force =     0.00000000    0.00000000    0.00000000
     atom    3 type  1   force =     0.00000000    0.00000000    0.00000000
     atom    4 type  1   force =     0.00000000    0.00000000    0.00000000
     atom    5 type  1   force =     0.00000000    0.00000000    0.00000000
     atom    6 type  2   force =     0.00000000    0.00000000    0.00000000
     atom    7 type  2   force =     0.00000000    0.00000000    0.00000000
     atom    8 type  3   force =     0.00000000    0.00000000    0.00000000
     atom    9 type  3   force =     0.00000000    0.00000000    0.00000000
     atom   10 type  3   force =     0.00000000    0.00000000    0.00000000
     atom   11 type  3   force =     0.00000000    0.00000000    0.00000000
     atom   12 type  3   force =     0.00000000    0.00000000    0.00000000
     atom   13 type  3   force =     0.00000000    0.00000000    0.00000000
     atom   14 type  3   force =     0.00000000    0.00000000    0.00000000
     atom   15 type  3   force =     0.00000000    0.00000000    0.00000000
     atom   16 type  3   force =     0.00000000    0.00000000    0.00000000
     atom   17 type  3   force =     0.00000000    0.00000000    0.00000000
     atom   18 type  4   force =     0.00000000    0.00000000    0.00000000
     atom   19 type  4   force =     0.00000000    0.00000000    0.00000000
     atom   20 type  4   force =     0.00000000    0.00000000    0.00000000
     atom   21 type  4   force =     0.00000000    0.00000000    0.00000000
     atom   22 type  4   force =     0.00000000    0.00000000    0.00000000
     atom   23 type  5   force =     0.00000000    0.00000000    0.00000000
     The SCF correction term to forces
     atom    1 type  1   force =    -0.00000000   -0.00000000    0.00000000
     atom    2 type  1   force =     0.00409316    0.00237001   -0.00136463
     atom    3 type  1   force =     0.00327405    0.00362467   -0.00092228
     atom    4 type  1   force =    -0.00686663   -0.00340273    0.00069470
     atom    5 type  1   force =    -0.00586460    0.00877986    0.00190645
     atom    6 type  2   force =    -0.00677317   -0.01483045   -0.00664977
     atom    7 type  2   force =     0.00187356    0.00403341    0.01059598
     atom    8 type  3   force =    -0.00097356   -0.00668671    0.00274464
     atom    9 type  3   force =     0.00569473    0.00403655    0.01285972
     atom   10 type  3   force =     0.00264552   -0.00611132   -0.00640796
     atom   11 type  3   force =     0.00698784    0.00075372    0.00577574
     atom   12 type  3   force =     0.00187869    0.01236332   -0.00920986
     atom   13 type  3   force =     0.00577763    0.00441500    0.00938315
     atom   14 type  3   force =    -0.00778718   -0.00248090   -0.00646135
     atom   15 type  3   force =    -0.00693264   -0.00258023    0.00509376
     atom   16 type  3   force =    -0.00419748    0.00506726   -0.00921251
     atom   17 type  3   force =    -0.00318510    0.00082875    0.00857338
     atom   18 type  4   force =    -0.00689837    0.00849018   -0.00814051
     atom   19 type  4   force =     0.00136895   -0.00399735   -0.00916953
     atom   20 type  4   force =     0.00567628   -0.00355694    0.00664819
     atom   21 type  4   force =    -0.00264209   -0.00215050   -0.01452986
     atom   22 type  4   force =    -0.00732957    0.00139127    0.01399684
     atom   23 type  5   force =     0.00211003    0.00245397    0.00297721

     Total force =     7.656120     Total SCF correction =     0.052490

     Entering Dynamics:    iteration =     2
                           time      =   0.0004 pico-seconds


ATOMIC_POSITIONS (angstrom)
Hf            2.6699999570        2.8271230292        6.6039642186    0   0   0
Hf            1.2529751617        1.2862821869        5.0584660783
Hf            1.2554719493        7.3898056713        5.0880681710
Hf            4.0870252768        1.2862818596        5.0584663420
Hf            4.0845280526        7.3898053469        5.0880679188
Nb            2.6700060548        2.7969313654        3.5155861951
Nb            2.6699971572        5.8763817435        6.6349986822
Ta            1.2093569056        4.3409297543        5.0711274796
Ta            4.1304037952        4.3406734961        5.0708676524
Ta            1.3072481437        1.3141198184        2.0587727016
Ta            1.3027838761        1.3083876656        8.0945855598
Ta            1.3040060352        7.3758293947        2.0462303101
Ta            1.3077083007        7.3650855627        8.0860090753
Ta            4.0327506760        1.3141204488        2.0587727246
Ta            4.0372153159        1.3083879574        8.0945860702
Ta            4.0359936296        7.3758292916        2.0462311532
Ta            4.0322915606        7.3650854977        8.0860082824
Zr            2.6700021521        5.8662906394        3.5273817507
Zr            1.2438005954        4.3220766515        1.9999725872
Zr            1.2403514663        4.3541243779        8.1497823407
Zr            4.0961992792        4.3220769911        1.9999711199
Zr            4.0996482657        4.3541240690        8.1497829906
H             4.2300647814        4.8626118233        5.5950345768


     kinetic energy (Ekin) =          17.20150145 Ry
     temperature           =       82300.06889455 K 
     Ekin + Etot (const)   =       -2923.93644515 Ry

     Writing config-only to output data dir outdir/pwscf.save/
     NEW-OLD atomic charge density approx. for the potential

     Check: negative core charge=   -0.000002

     negative rho (up, down):  9.063E-01 9.063E-01
     Generating pointlists ...
     new r_m :   0.1198 (alat units)  1.6615 (a.u.) for type    2
     new r_m :   0.0419 (alat units)  0.5818 (a.u.) for type    3
     new r_m :   0.0419 (alat units)  0.5818 (a.u.) for type    5

     total cpu time spent up to now is      961.9 secs

     Self-consistent Calculation

     iteration #  1     ecut=   120.00 Ry     beta= 0.70
     Davidson diagonalization with overlap
     ethr =  1.00E-06,  avg # of iterations = 14.0

     negative rho (up, down):  9.070E-01 9.071E-01

     total cpu time spent up to now is     1069.4 secs

     total energy              =   -2940.30735438 Ry
     estimated scf accuracy    <       0.09711042 Ry

     total magnetization       =     0.06 Bohr mag/cell
     absolute magnetization    =     0.06 Bohr mag/cell

     iteration #  2     ecut=   120.00 Ry     beta= 0.70
     Davidson diagonalization with overlap
     ethr =  3.51E-05,  avg # of iterations =  2.0

     negative rho (up, down):  9.071E-01 9.072E-01

     total cpu time spent up to now is     1110.5 secs

     total energy              =   -2940.30961014 Ry
     estimated scf accuracy    <       0.01182286 Ry

     total magnetization       =     0.05 Bohr mag/cell
     absolute magnetization    =     0.06 Bohr mag/cell

     iteration #  3     ecut=   120.00 Ry     beta= 0.70
     Davidson diagonalization with overlap
     ethr =  4.27E-06,  avg # of iterations =  4.0

     negative rho (up, down):  9.073E-01 9.073E-01

     total cpu time spent up to now is     1154.9 secs

     total energy              =   -2940.31078347 Ry
     estimated scf accuracy    <       0.00264165 Ry

     total magnetization       =     0.05 Bohr mag/cell
     absolute magnetization    =     0.06 Bohr mag/cell

     iteration #  4     ecut=   120.00 Ry     beta= 0.70
     Davidson diagonalization with overlap
     ethr =  9.54E-07,  avg # of iterations =  3.5

     negative rho (up, down):  9.073E-01 9.073E-01

     Magnetic moment per site  (integrated on atomic sphere of radius R)
     atom   1 (R=0.142)  charge=  9.4580  magn=  0.0003
     atom   2 (R=0.142)  charge=  9.0531  magn=  0.0002
     atom   3 (R=0.142)  charge=  9.0546  magn=  0.0003
     atom   4 (R=0.142)  charge=  9.0491  magn=  0.0003
     atom   5 (R=0.142)  charge=  9.0537  magn=  0.0003
     atom   6 (R=0.120)  charge=  8.9951  magn=  0.0001
     atom   7 (R=0.120)  charge=  9.0061  magn=  0.0003
     atom   8 (R=0.042)  charge=  0.1931  magn=  0.0000
     atom   9 (R=0.042)  charge=  0.2001  magn=  0.0000
     atom  10 (R=0.042)  charge=  0.1913  magn=  0.0000
     atom  11 (R=0.042)  charge=  0.1909  magn=  0.0000
     atom  12 (R=0.042)  charge=  0.1913  magn=  0.0000
     atom  13 (R=0.042)  charge=  0.1913  magn=  0.0000
     atom  14 (R=0.042)  charge=  0.1909  magn=  0.0000
     atom  15 (R=0.042)  charge=  0.1906  magn=  0.0000
     atom  16 (R=0.042)  charge=  0.1904  magn=  0.0000
     atom  17 (R=0.042)  charge=  0.1910  magn=  0.0000
     atom  18 (R=0.141)  charge=  9.4503  magn=  0.0002
     atom  19 (R=0.141)  charge=  8.9957  magn=  0.0055
     atom  20 (R=0.141)  charge=  8.9931  magn=  0.0008
     atom  21 (R=0.141)  charge=  8.9910  magn=  0.0064
     atom  22 (R=0.141)  charge=  8.9894  magn=  0.0011
     atom  23 (R=0.042)  charge=  0.6398  magn=  0.0000

     total cpu time spent up to now is     1197.0 secs

     End of self-consistent calculation

 ------ SPIN UP ------------


          k = 0.0000 0.0000 0.0000 ( 48454 PWs)   bands (ev):

   -59.6671 -57.8705 -57.8573 -57.8212 -57.8031 -57.7841 -57.7744 -57.7299
   -57.7249 -57.6526 -51.4583 -51.3888 -51.3340 -51.2633 -49.7256 -43.3183
   -43.2834 -38.6313 -38.6205 -38.5296 -38.5149 -36.8451 -28.7189 -24.8801
   -24.8632 -24.7813 -24.7757 -24.7061 -24.6681 -24.6167 -24.5579 -24.5452
   -24.4308 -24.3916 -24.3821 -24.3362 -24.3217 -24.2925 -24.2777 -24.2585
   -24.2499 -24.2185 -24.2002 -24.1838 -24.0435 -24.0393 -24.0325 -24.0240
   -23.9743 -23.9582 -23.9411 -23.9386 -21.2471 -21.0378 -20.7098 -20.6260
   -20.3590 -20.2351 -20.1963 -20.1049 -20.0002 -19.9191 -19.8965 -19.6783
   -19.5491 -19.5106 -19.4303 -19.4027 -19.3300 -19.2931 -18.7977 -18.7248
   -18.6565 -17.1838 -16.8720 -16.8622 -16.8083 -16.6398 -16.6297 -16.5978
   -16.5841 -16.5690 -16.5327 -16.3000 -16.2912 -15.1968 -14.9846 -14.8547
     4.3193   5.5293   5.7917   6.0551   6.2413   6.3702   6.5071   6.5665
     6.5709   6.6401   6.9200   6.9807   7.1435   7.2037   7.5327   7.5703
     7.6630   7.9015   7.9393   7.9796   8.0671   8.1417   8.2154   8.2446
     8.3431   8.4147   8.5002   8.5635   8.6200   8.6465   8.6669   8.7981
     8.8443   8.9986   9.0493   9.1300   9.1696   9.2404   9.2753   9.3441
     9.3927   9.4422   9.6685   9.7423   9.8446   9.9513   9.9713  10.0305
    10.1504  10.2568  10.3254  10.3746  10.4018  10.4936  10.5394  10.5751
    10.7430  10.7989  10.8995  10.9544  11.0147  11.1120  11.1223  11.2118
    11.2302  11.2935  11.3223  11.3910  11.6096  11.7532  11.7804  11.8029
    11.9081  11.9626  12.0566  12.1625  12.1801  12.1997  12.2240

 ------ SPIN DOWN ----------


          k = 0.0000 0.0000 0.0000 ( 48454 PWs)   bands (ev):

   -59.6669 -57.8704 -57.8570 -57.8210 -57.8026 -57.7836 -57.7742 -57.7292
   -57.7246 -57.6525 -51.4581 -51.3886 -51.3338 -51.2631 -49.7254 -43.3181
   -43.2830 -38.6257 -38.6195 -38.5287 -38.5098 -36.8448 -28.7188 -24.8798
   -24.8628 -24.7810 -24.7752 -24.7059 -24.6677 -24.6164 -24.5574 -24.5445
   -24.4306 -24.3914 -24.3815 -24.3361 -24.3211 -24.2920 -24.2772 -24.2583
   -24.2498 -24.2177 -24.1999 -24.1836 -24.0433 -24.0390 -24.0317 -24.0236
   -23.9740 -23.9576 -23.9402 -23.9383 -21.2468 -21.0376 -20.7095 -20.6257
   -20.3587 -20.2349 -20.1960 -20.1046 -20.0000 -19.9189 -19.8963 -19.6780
   -19.5486 -19.5101 -19.4298 -19.4025 -19.3296 -19.2929 -18.7974 -18.7246
   -18.6561 -17.1786 -16.8700 -16.8575 -16.8004 -16.6389 -16.6248 -16.5974
   -16.5824 -16.5649 -16.5316 -16.2917 -16.2896 -15.1963 -14.9841 -14.8537
     4.3200   5.5297   5.7926   6.0556   6.2420   6.3708   6.5077   6.5671
     6.5715   6.6409   6.9208   6.9816   7.1442   7.2047   7.5344   7.5717
     7.6642   7.9027   7.9402   7.9806   8.0685   8.1426   8.2167   8.2455
     8.3439   8.4158   8.5010   8.5662   8.6227   8.6486   8.6682   8.7992
     8.8450   8.9996   9.0510   9.1308   9.1707   9.2419   9.2760   9.3453
     9.3935   9.4432   9.6698   9.7432   9.8467   9.9533   9.9728  10.0318
    10.1520  10.2689  10.3301  10.3760  10.4035  10.4952  10.5412  10.5775
    10.7456  10.8004  10.9020  10.9559  11.0165  11.1130  11.1231  11.2128
    11.2323  11.2950  11.3231  11.3923  11.6114  11.7556  11.7827  11.8053
    11.9091  11.9642  12.0579  12.1644  12.1815  12.2012  12.2250

     the Fermi energy is    10.2894 ev

!    total energy              =   -2940.31093333 Ry
     estimated scf accuracy    <       0.00014170 Ry
     smearing contrib. (-TS)   =      -0.09325883 Ry
     internal energy E=F+TS    =   -2940.21767451 Ry

     total magnetization       =     0.05 Bohr mag/cell
     absolute magnetization    =     0.05 Bohr mag/cell

     convergence has been achieved in   4 iterations

     negative rho (up, down):  9.073E-01 9.073E-01

     Forces acting on atoms (cartesian axes, Ry/au):

     atom    1 type  1   force =     0.01067841   -0.01729204    0.01648965
     atom    2 type  1   force =    -0.13082859   -0.01803339   -0.00277011
     atom    3 type  1   force =    -0.12737058    0.01429816    0.00490468
     atom    4 type  1   force =     0.13508350   -0.02381970    0.00695104
     atom    5 type  1   force =     0.13030537    0.01831879   -0.00550730
     atom    6 type  2   force =     0.02273018    0.00569130    0.01556348
     atom    7 type  2   force =    -0.00811376    0.01742621    0.00580029
     atom    8 type  3   force =    -0.12165685    0.00765676    0.00338815
     atom    9 type  3   force =    -0.91367178   -5.30118122   -5.35731698
     atom   10 type  3   force =    -0.03749996   -0.03469091   -0.06393112
     atom   11 type  3   force =    -0.03977966   -0.03494647    0.05555029
     atom   12 type  3   force =    -0.03517288    0.03753086   -0.05878790
     atom   13 type  3   force =    -0.02201533    0.03087512    0.06218964
     atom   14 type  3   force =     0.03027601   -0.02036172   -0.05856577
     atom   15 type  3   force =     0.03168975   -0.02759019    0.05836960
     atom   16 type  3   force =     0.02620053    0.02680262   -0.05446635
     atom   17 type  3   force =     0.02316829    0.02289894    0.05560704
     atom   18 type  4   force =     0.01152117    0.02069033   -0.01112272
     atom   19 type  4   force =    -0.14832663   -0.00791224   -0.12704298
     atom   20 type  4   force =    -0.15127817    0.00548980    0.12458679
     atom   21 type  4   force =     0.14887945   -0.00203232   -0.12862384
     atom   22 type  4   force =     0.15216409    0.00046546    0.12709308
     atom   23 type  5   force =     1.01301741    5.27971586    5.33164132
     The non-local contrib.  to forces
     atom    1 type  1   force =     0.00882753   -0.00649123    0.04144070
     atom    2 type  1   force =    -0.25063602   -0.17197516    0.01643942
     atom    3 type  1   force =    -0.24556238    0.16280281   -0.03011172
     atom    4 type  1   force =     0.24704824   -0.16582131    0.01571946
     atom    5 type  1   force =     0.24251496    0.16277056   -0.03001114
     atom    6 type  2   force =     0.00694432   -0.06342303   -0.06119669
     atom    7 type  2   force =     0.01097166    0.09072671    0.06867998
     atom    8 type  3   force =    -0.26548634    0.00425580   -0.00158331
     atom    9 type  3   force =     0.44890791    1.20842991    1.18734428
     atom   10 type  3   force =    -0.22702406    0.01283178   -0.22331686
     atom   11 type  3   force =    -0.24114001    0.01556768    0.21035301
     atom   12 type  3   force =    -0.22112225   -0.02472532   -0.19562330
     atom   13 type  3   force =    -0.21492514   -0.01679604    0.21410726
     atom   14 type  3   force =     0.22841768    0.00519634   -0.22271852
     atom   15 type  3   force =     0.23528510    0.01080145    0.21619247
     atom   16 type  3   force =     0.21482370   -0.02544010   -0.19630317
     atom   17 type  3   force =     0.22354945   -0.01156078    0.21092889
     atom   18 type  4   force =     0.00511534    0.08697379   -0.04870298
     atom   19 type  4   force =     0.07958165   -0.00202993    0.05657900
     atom   20 type  4   force =     0.07645746   -0.00537053   -0.04970139
     atom   21 type  4   force =    -0.08168969   -0.00009372    0.04894686
     atom   22 type  4   force =    -0.07439905   -0.00427996   -0.04497168
     atom   23 type  5   force =     0.01450084    0.05047314    0.05576335
     The ionic contribution  to forces
     atom    1 type  1   force =    -0.40110988   -5.18112494   15.09128497
     atom    2 type  1   force =   -27.88400544   -6.28276289    0.73107122
     atom    3 type  1   force =   -27.94304846    6.39395164   -0.78575338
     atom    4 type  1   force =    27.80598177   -6.44517900    0.69608179
     atom    5 type  1   force =    27.76933866    7.00898371   -0.91336816
     atom    6 type  2   force =    -0.22142862   -3.89423129  -15.12872552
     atom    7 type  2   force =    -1.04029957    4.31985135   15.53844874
     atom    8 type  3   force =   -39.03146645   -0.06154855   -0.21725236
     atom    9 type  3   force =    36.91568540   -9.03816446   -9.23539814
     atom   10 type  3   force =   -24.86798383   -2.13358127  -24.60744890
     atom   11 type  3   force =   -23.95598783   -0.89282569   23.64054661
     atom   12 type  3   force =   -24.07481540    0.85428715  -23.68030650
     atom   13 type  3   force =   -24.89070110    2.31623586   24.67673785
     atom   14 type  3   force =    24.83755803   -2.16001620  -24.64995353
     atom   15 type  3   force =    23.90567472   -0.95460775   23.71112463
     atom   16 type  3   force =    24.03005463    0.91101299  -23.76204850
     atom   17 type  3   force =    24.80123674    2.47847606   24.84887681
     atom   18 type  4   force =    -0.38766754    4.65949678  -15.25559935
     atom   19 type  4   force =   -25.15387826    0.94135514  -27.11678885
     atom   20 type  4   force =   -25.17561188   -1.02456228   27.19922936
     atom   21 type  4   force =    25.08913585    0.91115325  -27.31004845
     atom   22 type  4   force =    25.01715481   -1.14599261   27.81000251
     atom   23 type  5   force =     4.85618368    8.41979301    8.71928715
     The local contribution  to forces
     atom    1 type  1   force =     0.40046771    5.16263258  -15.11258296
     atom    2 type  1   force =    28.01785148    6.43954433   -0.74717605
     atom    3 type  1   force =    28.07578974   -6.54540867    0.82465871
     atom    4 type  1   force =   -27.93338734    6.58371773   -0.70194664
     atom    5 type  1   force =   -27.89338379   -7.15016381    0.94422576
     atom    6 type  2   force =     0.23557772    3.95881106   15.20208573
     atom    7 type  2   force =     1.01545368   -4.38232136  -15.58779035
     atom    8 type  3   force =    39.21161499    0.06403492    0.22752444
     atom    9 type  3   force =   -38.34554228    2.35985013    2.52974039
     atom   10 type  3   force =    25.07915533    2.07799921   24.77309559
     atom   11 type  3   force =    24.18649140    0.83628280  -23.80555810
     atom   12 type  3   force =    24.28321568   -0.78093633   23.82400801
     atom   13 type  3   force =    25.11081196   -2.26020091  -24.83764866
     atom   14 type  3   force =   -25.05895550    2.12763536   24.82320309
     atom   15 type  3   force =   -24.13748786    0.90282054  -23.87855013
     atom   16 type  3   force =   -24.24104505   -0.84995418   23.91049946
     atom   17 type  3   force =   -25.02651064   -2.43430105  -25.01235933
     atom   18 type  4   force =     0.39306920   -4.71965123   15.29061001
     atom   19 type  4   force =    24.93685502   -0.95010672   26.93339032
     atom   20 type  4   force =    24.96075689    1.03346778  -27.02848484
     atom   21 type  4   force =   -24.87006568   -0.91465458   27.12845094
     atom   22 type  4   force =   -24.80117056    1.15226974  -27.63720528
     atom   23 type  5   force =    -3.85776958   -3.19109154   -3.44317133
     The core correction contribution to forces
     atom    1 type  1   force =     0.00013379    0.00445263    0.00195559
     atom    2 type  1   force =    -0.01204837   -0.00254819    0.00043438
     atom    3 type  1   force =    -0.01205007    0.00242543   -0.00110508
     atom    4 type  1   force =     0.01230793   -0.00223577    0.00063399
     atom    5 type  1   force =     0.01094074    0.00220963   -0.00233971
     atom    6 type  2   force =     0.00056259    0.00345342    0.00250286
     atom    7 type  2   force =    -0.00032973   -0.00413996   -0.00203592
     atom    8 type  3   force =    -0.03159166    0.00078759   -0.00002998
     atom    9 type  3   force =     0.05805927    0.15434464    0.15219318
     atom   10 type  3   force =    -0.02438568    0.00726581   -0.01511080
     atom   11 type  3   force =    -0.02650401    0.00777307    0.01598585
     atom   12 type  3   force =    -0.02393301   -0.00832145   -0.01498734
     atom   13 type  3   force =    -0.02212415   -0.00786757    0.01473362
     atom   14 type  3   force =     0.02491883    0.00596294   -0.01675632
     atom   15 type  3   force =     0.02572142    0.00726940    0.01651428
     atom   16 type  3   force =     0.02311076   -0.00690430   -0.01508343
     atom   17 type  3   force =     0.02454779   -0.00601364    0.01571812
     atom   18 type  4   force =    -0.00003958   -0.00485718    0.00219928
     atom   19 type  4   force =    -0.01062212    0.00067609   -0.00870143
     atom   20 type  4   force =    -0.01050673   -0.00014003    0.00834927
     atom   21 type  4   force =     0.01065123    0.00054723   -0.00792820
     atom   22 type  4   force =     0.01035250   -0.00014037    0.00802877
     atom   23 type  5   force =     0.00000000    0.00000000    0.00000000
     The Hubbard contrib.    to forces
     atom    1 type  1   force =     0.00000000    0.00000000    0.00000000
     atom    2 type  1   force =     0.00000000    0.00000000    0.00000000
     atom    3 type  1   force =     0.00000000    0.00000000    0.00000000
     atom    4 type  1   force =     0.00000000    0.00000000    0.00000000
     atom    5 type  1   force =     0.00000000    0.00000000    0.00000000
     atom    6 type  2   force =     0.00000000    0.00000000    0.00000000
     atom    7 type  2   force =     0.00000000    0.00000000    0.00000000
     atom    8 type  3   force =     0.00000000    0.00000000    0.00000000
     atom    9 type  3   force =     0.00000000    0.00000000    0.00000000
     atom   10 type  3   force =     0.00000000    0.00000000    0.00000000
     atom   11 type  3   force =     0.00000000    0.00000000    0.00000000
     atom   12 type  3   force =     0.00000000    0.00000000    0.00000000
     atom   13 type  3   force =     0.00000000    0.00000000    0.00000000
     atom   14 type  3   force =     0.00000000    0.00000000    0.00000000
     atom   15 type  3   force =     0.00000000    0.00000000    0.00000000
     atom   16 type  3   force =     0.00000000    0.00000000    0.00000000
     atom   17 type  3   force =     0.00000000    0.00000000    0.00000000
     atom   18 type  4   force =     0.00000000    0.00000000    0.00000000
     atom   19 type  4   force =     0.00000000    0.00000000    0.00000000
     atom   20 type  4   force =     0.00000000    0.00000000    0.00000000
     atom   21 type  4   force =     0.00000000    0.00000000    0.00000000
     atom   22 type  4   force =     0.00000000    0.00000000    0.00000000
     atom   23 type  5   force =     0.00000000    0.00000000    0.00000000
     The SCF correction term to forces
     atom    1 type  1   force =     0.00000000    0.00000000   -0.00000000
     atom    2 type  1   force =    -0.00207921   -0.00049496   -0.00349749
     atom    3 type  1   force =    -0.00258837    0.00032346   -0.00274226
     atom    4 type  1   force =     0.00304394    0.00549516   -0.00349598
     atom    5 type  1   force =     0.00080583   -0.00568479   -0.00397246
     atom    6 type  2   force =     0.00098520    0.00087766    0.00093869
     atom    7 type  2   force =     0.00600124   -0.00689401   -0.01146059
     atom    8 type  3   force =    -0.00481636   -0.00007649   -0.00522906
     atom    9 type  3   force =     0.00912896    0.01415507    0.00884490
     atom   10 type  3   force =     0.00264933    0.00059007    0.00889143
     atom   11 type  3   force =    -0.00272817   -0.00194782   -0.00573549
     atom   12 type  3   force =     0.00139314   -0.00297668    0.00816280
     atom   13 type  3   force =    -0.00516587   -0.00069971   -0.00569884
     atom   14 type  3   force =    -0.00175199    0.00065636    0.00770110
     atom   15 type  3   force =     0.00240741    0.00592268   -0.00687006
     atom   16 type  3   force =    -0.00083248   -0.00211529    0.00851087
     atom   17 type  3   force =     0.00025598   -0.00390513   -0.00751586
     atom   18 type  4   force =     0.00095479   -0.00147531    0.00041191
     atom   19 type  4   force =    -0.00035188    0.00198971    0.00851956
     atom   20 type  4   force =    -0.00246288    0.00189137   -0.00476402
     atom   21 type  4   force =     0.00075877    0.00081202    0.01199660
     atom   22 type  4   force =     0.00013742   -0.00159483   -0.00871965
     atom   23 type  5   force =     0.00001351    0.00033777   -0.00019627

     Total force =    10.735462     Total SCF correction =     0.040812

     Entering Dynamics:    iteration =     3
                           time      =   0.0006 pico-seconds


ATOMIC_POSITIONS (angstrom)
Hf            2.6699999570        2.8271230292        6.6039642186    0   0   0
Hf            1.2529560163        1.2862796262        5.0584658090
Hf            1.2554534404        7.3898075113        5.0880687661
Hf            4.0870450938        1.2862787438        5.0584669016
Hf            4.0845467474        7.3898071913        5.0880676323
Nb            2.6700138596        2.7969331100        3.5155906724
Nb            2.6699942543        5.8763860335        6.6349998608
Ta            1.2093380051        4.3409316575        5.0711288407
Ta            4.1301691179        4.3401514205        5.0703393150
Ta            1.3072424567        1.3141156657        2.0587642614
Ta            1.3027782689        1.3083830528        8.0945934051
Ta            1.3040013269        7.3758340530        2.0462218712
Ta            1.3077052214        7.3650893185        8.0860176965
Ta            4.0327550138        1.3141176964        2.0587646384
Ta            4.0372199066        1.3083840353        8.0945945116
Ta            4.0359975840        7.3758331704        2.0462236111
Ta            4.0322946827        7.3650886987        8.0860159085
Zr            2.6700052396        5.8662964244        3.5273789849
Zr            1.2437584438        4.3220747281        1.9999377801
Zr            1.2403089589        4.3541258131        8.1498163786
Zr            4.0962414959        4.3220760837        1.9999350990
Zr            4.0996906679        4.3541245526        8.1498176893
H             3.9380635062        4.9092123999        5.6421110951


     kinetic energy (Ekin) =          16.54217403 Ry
     temperature           =       79145.53657542 K 
     Ekin + Etot (const)   =       -2923.76875931 Ry

     Writing config-only to output data dir outdir/pwscf.save/
     NEW-OLD atomic charge density approx. for the potential

     Check: negative core charge=   -0.000002

     negative rho (up, down):  9.080E-01 9.081E-01
     Generating pointlists ...
     new r_m :   0.1056 (alat units)  1.4644 (a.u.) for type    2

     total cpu time spent up to now is     1223.5 secs

     Self-consistent Calculation

     iteration #  1     ecut=   120.00 Ry     beta= 0.70
     Davidson diagonalization with overlap
     ethr =  1.00E-06,  avg # of iterations = 11.0

     negative rho (up, down):  9.071E-01 9.072E-01

[...]
   -57.6333 -57.6089 -51.4279 -51.3801 -51.2869 -51.2416 -49.7433 -44.0342
   -43.2089 -38.6023 -38.5849 -38.5146 -38.4843 -36.7776 -25.0105 -24.8459
   -24.7979 -24.7860 -24.7614 -24.6587 -24.6186 -24.5607 -24.5236 -24.4667
   -24.3984 -24.3745 -24.3582 -24.3089 -24.2851 -24.2669 -24.2404 -24.2318
   -24.2095 -24.1926 -24.1611 -24.1245 -24.0874 -24.0573 -24.0180 -24.0053
   -23.9810 -23.9455 -23.9391 -23.9207 -22.0414 -21.2145 -20.9913 -20.6753
   -20.6000 -20.3175 -20.1821 -20.1545 -20.0415 -19.9559 -19.8868 -19.8688
   -19.6515 -19.4430 -19.3997 -19.3805 -19.2684 -19.2360 -18.8038 -18.7404
   -18.6749 -17.1398 -16.8478 -16.8120 -16.7703 -16.6195 -16.5938 -16.5774
   -16.5714 -16.5464 -16.5230 -16.2756 -16.2659 -15.1423 -14.9288 -14.7911
     3.3244   4.6084   5.8232   5.9906   6.1231   6.3566   6.4527   6.5275
     6.5618   6.7073   6.8550   7.0488   7.1415   7.3088   7.4249   7.4913
     7.6140   7.8000   7.9144   8.0112   8.1242   8.1670   8.2528   8.2841
     8.3511   8.4514   8.5666   8.6161   8.6313   8.6679   8.6972   8.7610
     8.8503   8.9965   9.0722   9.1592   9.1815   9.2310   9.2773   9.3575
     9.4181   9.4403   9.6944   9.7397   9.8469   9.9183   9.9668  10.0620
    10.1583  10.2886  10.3189  10.3805  10.4220  10.5083  10.5470  10.5985
    10.7603  10.8371  10.8758  10.9514  11.0257  11.0933  11.2111  11.2555
    11.2723  11.3489  11.3614  11.5885  11.7176  11.7505  11.7943  11.9152
    11.9760  12.0568  12.1334  12.1821  12.1858  12.2105  12.2273

     the Fermi energy is    10.2991 ev

!    total energy              =   -2942.46770302 Ry
     estimated scf accuracy    <       0.00037986 Ry
     smearing contrib. (-TS)   =      -0.09182511 Ry
     internal energy E=F+TS    =   -2942.37587791 Ry

     total magnetization       =     0.00 Bohr mag/cell
     absolute magnetization    =     0.00 Bohr mag/cell

     convergence has been achieved in   4 iterations

     negative rho (up, down):  9.081E-01 9.081E-01

     Forces acting on atoms (cartesian axes, Ry/au):

     atom    1 type  1   force =     0.00982239   -0.02544744    0.02763871
     atom    2 type  1   force =    -0.13464239   -0.01538241   -0.00326187
     atom    3 type  1   force =    -0.12999757    0.02070797   -0.00609683
     atom    4 type  1   force =     0.13313379   -0.01507870   -0.00421004
     atom    5 type  1   force =     0.12820614    0.01229350   -0.00196576
     atom    6 type  2   force =    -0.00214868   -0.01586555   -0.00452607
     atom    7 type  2   force =     1.04373744    1.11782931    1.16539283
     atom    8 type  3   force =    -0.18606934   -0.04326000   -0.06066074
     atom    9 type  3   force =     0.14134367   -0.00675611   -0.00988434
     atom   10 type  3   force =    -0.03320344   -0.02008699   -0.05161502
     atom   11 type  3   force =    -0.03849458   -0.02588873    0.05057716
     atom   12 type  3   force =    -0.03239077    0.02859231   -0.05135495
     atom   13 type  3   force =    -0.02573929    0.02690805    0.05617184
     atom   14 type  3   force =     0.03445752   -0.02384333   -0.05262893
     atom   15 type  3   force =     0.03368585   -0.04202525    0.05015363
     atom   16 type  3   force =     0.03202213    0.03015382   -0.05435099
     atom   17 type  3   force =     0.02467191    0.03107206    0.04658578
     atom   18 type  4   force =    -0.00003863    0.02821286   -0.01772390
     atom   19 type  4   force =    -0.14846626   -0.00513142   -0.11625883
     atom   20 type  4   force =    -0.15043744   -0.00561405    0.12867311
     atom   21 type  4   force =     0.14978862   -0.00664499   -0.11699161
     atom   22 type  4   force =     0.14551029    0.00327337    0.11762316
     atom   23 type  5   force =    -0.99475135   -1.04801827   -1.09128635
     The non-local contrib.  to forces
     atom    1 type  1   force =     0.00252091    0.00546939    0.04238543
     atom    2 type  1   force =    -0.24835246   -0.17375173    0.01915487
     atom    3 type  1   force =    -0.24244857    0.15770331   -0.03179192
     atom    4 type  1   force =     0.24819940   -0.16756457    0.01649633
     atom    5 type  1   force =     0.24618542    0.15809783   -0.02148714
     atom    6 type  2   force =    -0.00588913   -0.06725110   -0.04455024
     atom    7 type  2   force =     0.02238717    0.08790007    0.04829794
     atom    8 type  3   force =    -0.23539234    0.03055729    0.02532115
     atom    9 type  3   force =     0.26464144   -0.00121187    0.00378357
     atom   10 type  3   force =    -0.23439300    0.01150475   -0.21861888
     atom   11 type  3   force =    -0.24243454    0.01924774    0.20836075
     atom   12 type  3   force =    -0.22313707   -0.02810175   -0.18917819
     atom   13 type  3   force =    -0.22543928   -0.01459532    0.21095310
     atom   14 type  3   force =     0.23623409    0.00991457   -0.22163739
     atom   15 type  3   force =     0.22418403    0.03144474    0.19892058
     atom   16 type  3   force =     0.21974023   -0.03135080   -0.19473843
     atom   17 type  3   force =     0.18206793   -0.06139539    0.16763369
     atom   18 type  4   force =     0.00486050    0.07465149   -0.04164840
     atom   19 type  4   force =     0.07603518    0.00713774    0.06100587
     atom   20 type  4   force =     0.06403782   -0.01557292   -0.05318563
     atom   21 type  4   force =    -0.07452212    0.00099293    0.05778426
     atom   22 type  4   force =    -0.07256118    0.00200258   -0.05557538
     atom   23 type  5   force =     0.13553472    0.15295324    0.15648980
     The ionic contribution  to forces
     atom    1 type  1   force =     0.18108044   -5.39607405   15.01195931
     atom    2 type  1   force =   -27.88482615   -6.26599705    0.67228052
     atom    3 type  1   force =   -28.14703847    6.99554215   -1.13661779
     atom    4 type  1   force =    27.90517837   -6.26914302    0.70200206
     atom    5 type  1   force =    28.16090648    6.54883799   -0.93719967
     atom    6 type  2   force =     0.00687551   -3.87030030  -15.12573803
     atom    7 type  2   force =     3.97519764    7.74091819   19.10392014
     atom    8 type  3   force =   -40.09094837   -1.45215032   -1.63117857
     atom    9 type  3   force =    39.48315260   -0.28585515   -0.49218411
     atom   10 type  3   force =   -24.85971992   -2.11324516  -24.59187353
     atom   11 type  3   force =   -23.95808267   -0.88410193   23.67084059
     atom   12 type  3   force =   -24.07136399    0.87457951  -23.70494882
     atom   13 type  3   force =   -24.99243274    2.62617530   24.97767416
     atom   14 type  3   force =    24.86697496   -2.11850417  -24.58853619
     atom   15 type  3   force =    23.98166370   -0.86632002   23.64308400
     atom   16 type  3   force =    24.08895903    0.85568869  -23.67090185
     atom   17 type  3   force =    25.04104830    2.45077400   24.79986368
     atom   18 type  4   force =     0.16941571    4.57935420  -15.47660358
     atom   19 type  4   force =   -25.13912535    0.90842557  -27.12620052
     atom   20 type  4   force =   -25.37083467   -1.35186531   27.76863828
     atom   21 type  4   force =    25.15194341    0.93106636  -27.10652269
     atom   22 type  4   force =    25.38027221   -1.16213668   27.33066099
     atom   23 type  5   force =    -3.87829603   -2.47566881   -2.09241837
     The local contribution  to forces
     atom    1 type  1   force =    -0.17805100    5.35969025  -15.03730674
     atom    2 type  1   force =    28.00069021    6.43659245   -0.69348480
     atom    3 type  1   force =    28.26306818   -7.13319755    1.16219496
     atom    4 type  1   force =   -28.02300068    6.42788029   -0.72286647
     atom    5 type  1   force =   -28.28521984   -6.69772189    0.96131862
     atom    6 type  2   force =    -0.00819703    3.92312067   15.17897468
     atom    7 type  2   force =    -2.94443007   -6.70613312  -17.99116601
     atom    8 type  3   force =    40.16032887    1.36982684    1.53987029
     atom    9 type  3   force =   -39.63344006    0.27603643    0.47718111
     atom   10 type  3   force =    25.07758652    2.08632736   24.79673162
     atom   11 type  3   force =    24.19121640    0.84206782  -23.86560427
     atom   12 type  3   force =    24.28018002   -0.81102014   23.88341803
     atom   13 type  3   force =    25.22293526   -2.57500612  -25.17258639
     atom   14 type  3   force =   -25.08552728    2.08833741   24.79553663
     atom   15 type  3   force =   -24.19864717    0.78772427  -23.82720337
     atom   16 type  3   force =   -24.29359771   -0.78758119   23.85061350
     atom   17 type  3   force =   -25.22377725   -2.34901274  -24.95838216
     atom   18 type  4   force =    -0.17680096   -4.63151384   15.51482921
     atom   19 type  4   force =    24.91512611   -0.92812155   26.98039573
     atom   20 type  4   force =    25.16802313    1.35080242  -27.61308708
     atom   21 type  4   force =   -24.92917591   -0.94552738   26.95875543
     atom   22 type  4   force =   -25.17506588    1.15951505  -27.18402338
     atom   23 type  5   force =     2.74673824    1.27372094    0.84354096
     The core correction contribution to forces
     atom    1 type  1   force =     0.00026362    0.00565914    0.00286402
     atom    2 type  1   force =    -0.01195686   -0.00337792   -0.00048361
     atom    3 type  1   force =    -0.00962466    0.00083364   -0.00159974
     atom    4 type  1   force =     0.01131534   -0.00217548    0.00088340
     atom    5 type  1   force =     0.01178759    0.00313350   -0.00243858
     atom    6 type  2   force =     0.00016665    0.00326664    0.00148230
     atom    7 type  2   force =    -0.00230630   -0.00591471   -0.00299244
     atom    8 type  3   force =    -0.02851459    0.00039382    0.00159425
     atom    9 type  3   force =     0.03200364    0.00088731    0.00155231
     atom   10 type  3   force =    -0.02548373    0.00663272   -0.01603136
     atom   11 type  3   force =    -0.02699006    0.00677319    0.01668504
     atom   12 type  3   force =    -0.02517330   -0.00747752   -0.01579184
     atom   13 type  3   force =    -0.02325177   -0.00655070    0.01440267
     atom   14 type  3   force =     0.02465741    0.00612753   -0.01600254
     atom   15 type  3   force =     0.02411502    0.00857904    0.01545733
     atom   16 type  3   force =     0.02431425   -0.00694304   -0.01530994
     atom   17 type  3   force =     0.02323576   -0.00694662    0.01319320
     atom   18 type  4   force =    -0.00036158   -0.00404496    0.00195745
     atom   19 type  4   force =    -0.01042631    0.00016606   -0.00871520
     atom   20 type  4   force =    -0.00976348    0.00028040    0.00836778
     atom   21 type  4   force =     0.01030223    0.00051422   -0.00855899
     atom   22 type  4   force =     0.01015893   -0.00041324    0.00846040
     atom   23 type  5   force =     0.00000000    0.00000000    0.00000000
     The Hubbard contrib.    to forces
     atom    1 type  1   force =     0.00000000    0.00000000    0.00000000
     atom    2 type  1   force =     0.00000000    0.00000000    0.00000000
     atom    3 type  1   force =     0.00000000    0.00000000    0.00000000
     atom    4 type  1   force =     0.00000000    0.00000000    0.00000000
     atom    5 type  1   force =     0.00000000    0.00000000    0.00000000
     atom    6 type  2   force =     0.00000000    0.00000000    0.00000000
     atom    7 type  2   force =     0.00000000    0.00000000    0.00000000
     atom    8 type  3   force =     0.00000000    0.00000000    0.00000000
     atom    9 type  3   force =     0.00000000    0.00000000    0.00000000
     atom   10 type  3   force =     0.00000000    0.00000000    0.00000000
     atom   11 type  3   force =     0.00000000    0.00000000    0.00000000
     atom   12 type  3   force =     0.00000000    0.00000000    0.00000000
     atom   13 type  3   force =     0.00000000    0.00000000    0.00000000
     atom   14 type  3   force =     0.00000000    0.00000000    0.00000000
     atom   15 type  3   force =     0.00000000    0.00000000    0.00000000
     atom   16 type  3   force =     0.00000000    0.00000000    0.00000000
     atom   17 type  3   force =     0.00000000    0.00000000    0.00000000
     atom   18 type  4   force =     0.00000000    0.00000000    0.00000000
     atom   19 type  4   force =     0.00000000    0.00000000    0.00000000
     atom   20 type  4   force =     0.00000000    0.00000000    0.00000000
     atom   21 type  4   force =     0.00000000    0.00000000    0.00000000
     atom   22 type  4   force =     0.00000000    0.00000000    0.00000000
     atom   23 type  5   force =     0.00000000    0.00000000    0.00000000
     The SCF correction term to forces
     atom    1 type  1   force =     0.00000000   -0.00000000    0.00000000
     atom    2 type  1   force =     0.00968665   -0.00874457   -0.00070485
     atom    3 type  1   force =     0.00592974   -0.00006999    0.00174166
     atom    4 type  1   force =    -0.00867487   -0.00397234   -0.00070135
     atom    5 type  1   force =    -0.00556973    0.00004966   -0.00213500
     atom    6 type  2   force =     0.00477911   -0.00459787   -0.01467078
     atom    7 type  2   force =    -0.00722722    0.00116247    0.00735720
     atom    8 type  3   force =     0.00834088    0.00821595    0.00375614
     atom    9 type  3   force =    -0.00513016    0.00349076   -0.00019323
     atom   10 type  3   force =     0.00869047   -0.01120308   -0.02179888
     atom   11 type  3   force =    -0.00231993   -0.00977195    0.02031905
     atom   12 type  3   force =     0.00698736    0.00071580   -0.02483012
     atom   13 type  3   force =    -0.00766699   -0.00301152    0.02575230
     atom   14 type  3   force =    -0.00799788   -0.00961509   -0.02196545
     atom   15 type  3   force =     0.00225406   -0.00334970    0.01991909
     atom   16 type  3   force =    -0.00750989    0.00044375   -0.02399028
     atom   17 type  3   force =     0.00198095   -0.00224360    0.02430136
     atom   18 type  4   force =     0.00273148    0.00986955   -0.01623458
     atom   19 type  4   force =     0.00980790    0.00736435   -0.02272072
     atom   20 type  4   force =    -0.00201646    0.01084494    0.01796376
     atom   21 type  4   force =    -0.00887520    0.00641247   -0.01842562
     atom   22 type  4   force =     0.00258998    0.00440926    0.01812453
     atom   23 type  5   force =     0.00115551    0.00107995    0.00112526

     Total force =     2.700060     Total SCF correction =     0.089780

     Entering Dynamics:    iteration =    10
                           time      =   0.0020 pico-seconds


ATOMIC_POSITIONS (angstrom)
Hf            2.6699999570        2.8271230292        6.6039642186    0   0   0
Hf            1.2526111205        1.2862365548        5.0584584034
Hf            1.2551137016        7.3898433785        5.0880716848
Hf            4.0873933673        1.2862242786        5.0584696343
Hf            4.0848916583        7.3898507390        5.0880559028
Nb            2.6700549979        2.7968971704        3.5156108367
Nb            2.6699614321        5.8777952940        6.6364254593
Ta            1.2089800759        4.3409246998        5.0711098020
Ta            4.1296679309        4.3346236325        5.0647221194
Ta            1.3071564590        1.3140456615        2.0586133153
Ta            1.3026799446        1.3082877283        8.0947375240
Ta            1.3039153995        7.3759157051        2.0460742682
Ta            1.3076209059        7.3651762841        8.0861742999
Ta            4.0328330823        1.3140665815        2.0586234227
Ta            4.0373078139        1.3083114090        8.0947383151
Ta            4.0360729632        7.3759033366        2.0460810826
Ta            4.0323608536        7.3651500426        8.0861607062
Zr            2.6700349630        5.8664258701        3.5273022049
Zr            1.2429972450        4.3220474286        1.9993217717
Zr            1.2395321704        4.3541512469        8.1504489291
Zr            4.0969966934        4.3220620920        1.9993006375
Zr            4.1004710269        4.3541258901        8.1504709305
H             1.8148187271        5.3431042122        6.0797739270


     kinetic energy (Ekin) =          18.53968523 Ry
     temperature           =       88702.56914540 K 
     Ekin + Etot (const)   =       -2923.92801779 Ry

     The maximum number of steps has been reached.

     End of molecular dynamics calculation

     diffusion coefficients :
     atom     1   D =       0.00000000 cm^2/s
     atom     2   D =       0.00000000 cm^2/s
     atom     3   D =       0.00000000 cm^2/s
     atom     4   D =       0.00000000 cm^2/s
     atom     5   D =       0.00000000 cm^2/s
     atom     6   D =       0.00000000 cm^2/s
     atom     7   D =       0.00000003 cm^2/s
     atom     8   D =       0.00000000 cm^2/s
     atom     9   D =       0.00000067 cm^2/s
     atom    10   D =       0.00000000 cm^2/s
     atom    11   D =       0.00000000 cm^2/s
     atom    12   D =       0.00000000 cm^2/s
     atom    13   D =       0.00000000 cm^2/s
     atom    14   D =       0.00000000 cm^2/s
     atom    15   D =       0.00000000 cm^2/s
     atom    16   D =       0.00000000 cm^2/s
     atom    17   D =       0.00000000 cm^2/s
     atom    18   D =       0.00000000 cm^2/s
     atom    19   D =       0.00000001 cm^2/s
     atom    20   D =       0.00000001 cm^2/s
     atom    21   D =       0.00000001 cm^2/s
     atom    22   D =       0.00000001 cm^2/s
     atom    23   D =       0.07914560 cm^2/s

     < D > =       0.00359756 cm^2/s

     Writing all to output data dir outdir/pwscf.save/

     init_run     :     25.06s CPU     25.94s WALL (       1 calls)
     electrons    :   2720.09s CPU   2771.08s WALL (      10 calls)
     update_pot   :     23.23s CPU     23.34s WALL (       9 calls)
     forces       :    215.79s CPU    219.37s WALL (      10 calls)

     Called by init_run:
     wfcinit      :     19.92s CPU     20.10s WALL (       1 calls)
     potinit      :      1.06s CPU      1.21s WALL (       1 calls)
     hinit0       :      1.74s CPU      1.84s WALL (       1 calls)

     Called by electrons:
     c_bands      :   2262.05s CPU   2275.80s WALL (      49 calls)
     sum_band     :    313.96s CPU    335.59s WALL (      49 calls)
     v_of_rho     :     14.35s CPU     15.09s WALL (      59 calls)
     newd         :    156.81s CPU    174.29s WALL (      59 calls)
     mix_rho      :      1.12s CPU      1.15s WALL (      49 calls)

     Called by c_bands:
     init_us_2    :      3.03s CPU      3.06s WALL (     218 calls)
     init_us_2:cp :      3.03s CPU      3.06s WALL (     218 calls)
     regterg      :   2246.83s CPU   2260.53s WALL (      98 calls)

     Called by *egterg:
     rdiaghg      :     34.65s CPU     35.03s WALL (     699 calls)
     h_psi        :    818.91s CPU    828.17s WALL (     719 calls)
     s_psi        :    296.38s CPU    296.88s WALL (     719 calls)
     g_psi        :      0.63s CPU      0.63s WALL (     619 calls)

     Called by h_psi:
     h_psi:calbec :    362.26s CPU    363.01s WALL (     719 calls)
     vloc_psi     :    156.34s CPU    164.29s WALL (     719 calls)
     add_vuspsi   :    299.02s CPU    299.58s WALL (     719 calls)

     General routines
     calbec       :    619.00s CPU    620.21s WALL (     897 calls)
     fft          :     23.24s CPU     23.98s WALL (    1044 calls)
     ffts         :      0.30s CPU      0.35s WALL (      49 calls)
     fftw         :    162.48s CPU    170.59s WALL (   55308 calls)

     Parallel routines

     PWSCF        :  50m10.37s CPU  51m 9.09s WALL


   This run was terminated on:   4:34:36   8Jun2023            

=------------------------------------------------------------------------------=
   JOB DONE.
=------------------------------------------------------------------------------=
