
     Program PWSCF v.7.2 starts on  5Jun2023 at 18:55: 5 

     This program is part of the open-source Quantum ESPRESSO suite
     for quantum simulation of materials; please cite
         "P. Giannozzi et al., J. Phys.:Condens. Matter 21 395502 (2009);
         "P. Giannozzi et al., J. Phys.:Condens. Matter 29 465901 (2017);
         "P. Giannozzi et al., J. Chem. Phys. 152 154105 (2020);
          URL http://www.quantum-espresso.org", 
     in publications or presentations arising from this work. More details at
     http://www.quantum-espresso.org/quote

     Parallel version (MPI), running on    12 processors

     MPI processes distributed on     1 nodes
     67221 MiB available memory on the printing compute node when the environment starts

     Reading input from md_Hf5Nb2Ta10Zr5_equilibrate.in
Warning: card &CELL ignored
Warning: card / ignored

     Current dimensions of program PWSCF are:
     Max number of different atomic species (ntypx) = 10
     Max number of k-points (npk) =  40000
     Max angular momentum in pseudopotentials (lmaxx) =  4

     gamma-point specific algorithms are used

     R & G space division:  proc/nbgrp/npool/nimage =      12
     Subspace diagonalization in iterative solution of the eigenvalue problem:
     one sub-group per band group will be used
     custom distributed-memory algorithm (size of sub-group:  2*  2 procs)


     Parallelization info
     --------------------
     sticks:   dense  smooth     PW     G-vecs:    dense   smooth      PW
     Min         337     337     83                21965    21965    2747
     Max         340     340     86                21976    21976    2754
     Sum        4073    4073   1023               263661   263661   33015

     Using Slab Decomposition



     bravais-lattice index     =            0
     lattice parameter (alat)  =       7.6345  a.u.
     unit-cell volume          =    1484.8776 (a.u.)^3
     number of atoms/cell      =           22
     number of atomic types    =            4
     number of electrons       =       276.00
     number of Kohn-Sham states=          166
     kinetic-energy cutoff     =     120.0000  Ry
     charge density cutoff     =     480.0000  Ry
     scf convergence threshold =      1.0E-03
     mixing beta               =       0.7000
     number of iterations used =            8  TF        mixing
     energy convergence thresh.=      0.0E+00
     force convergence thresh. =      0.0E+00
     Exchange-correlation= SLA  PW   PBE  PBE
                           (   1   4   3   4   0   0   0)
     nstep                     =           10


     celldm(1)=   7.634493  celldm(2)=   0.000000  celldm(3)=   0.000000
     celldm(4)=   0.000000  celldm(5)=   0.000000  celldm(6)=   0.000000

     crystal axes: (cart. coord. in units of alat)
               a(1) = (   1.000000   0.000000   0.000000 )  
               a(2) = (   0.000000   1.826733   0.000000 )  
               a(3) = (   0.000000   0.000000   1.826733 )  

     reciprocal axes: (cart. coord. in units 2 pi/alat)
               b(1) = (  1.000000  0.000000  0.000000 )  
               b(2) = (  0.000000  0.547425  0.000000 )  
               b(3) = (  0.000000  0.000000  0.547425 )  


     PseudoPot. # 1 for Hf read from file:
     q-e/pseudo/hf_pbe_v1.uspp.F.UPF
     MD5 check sum: 8ee9378dfe14276e333edf04c5e4aa26
     Pseudo is Ultrasoft + core correction, Zval = 12.0
     Generated by new atomic code, or converted to UPF format
     Using radial grid of  921 points,  8 beta functions with: 
                l(1) =   0
                l(2) =   0
                l(3) =   0
                l(4) =   1
                l(5) =   1
                l(6) =   2
                l(7) =   2
                l(8) =   3
     Q(r) pseudized with  6 coefficients,  rinner =    1.200   1.200   1.200
                                                       1.200   1.200   1.200
                                                       1.200

     PseudoPot. # 2 for Nb read from file:
     q-e/pseudo/nb_pbe_v1.uspp.F.UPF
     MD5 check sum: 573aab8a2fa660278ed4a62cd769473f
     Pseudo is Ultrasoft + core correction, Zval = 13.0
     Generated by new atomic code, or converted to UPF format
     Using radial grid of  887 points,  6 beta functions with: 
                l(1) =   0
                l(2) =   0
                l(3) =   1
                l(4) =   1
                l(5) =   2
                l(6) =   2
     Q(r) pseudized with  6 coefficients,  rinner =    1.000   1.000   1.000
                                                       1.000   1.000

     PseudoPot. # 3 for Ta read from file:
     q-e/pseudo/ta_pbe_v1.uspp.F.UPF
     MD5 check sum: f8bbe9446314a3b8ea5d9f3e3836c939
     Pseudo is Ultrasoft + core correction, Zval = 13.0
     Generated by new atomic code, or converted to UPF format
     Using radial grid of  921 points,  7 beta functions with: 
                l(1) =   0
                l(2) =   0
                l(3) =   1
                l(4) =   1
                l(5) =   2
                l(6) =   2
                l(7) =   3
     Q(r) pseudized with  6 coefficients,  rinner =    1.300   1.300   1.300
                                                       1.300   1.300   1.300
                                                       1.300

     PseudoPot. # 4 for Zr read from file:
     q-e/pseudo/zr_pbe_v1.uspp.F.UPF
     MD5 check sum: 5db81b1e868ab7776c4564c113de050b
     Pseudo is Ultrasoft + core correction, Zval = 12.0
     Generated by new atomic code, or converted to UPF format
     Using radial grid of  887 points,  6 beta functions with: 
                l(1) =   0
                l(2) =   0
                l(3) =   1
                l(4) =   1
                l(5) =   2
                l(6) =   2
     Q(r) pseudized with  6 coefficients,  rinner =    1.200   1.200   1.200
                                                       1.200   1.200

     atomic species   valence    mass     pseudopotential
        Hf            12.00   178.49000     Hf( 1.00)
        Nb            13.00    92.90637     Nb( 1.00)
        Ta            13.00   180.94788     Ta( 1.00)
        Zr            12.00    91.22400     Zr( 1.00)

     Starting magnetic structure 
     atomic species   magnetization
        Hf           0.000
        Nb           0.000
        Ta           0.000
        Zr           0.000

     No symmetry found



   Cartesian axes

     site n.     atom                  positions (alat units)
         1           Hf  tau(   1) = (   0.4628713   0.4628713   1.2896041  )
         2           Hf  tau(   2) = (   0.0495050   0.0495050   0.8762376  )
         3           Hf  tau(   3) = (   0.0495050   1.7029703   0.8762376  )
         4           Hf  tau(   4) = (   0.8762376   0.0495050   0.8762376  )
         5           Hf  tau(   5) = (   0.8762376   1.7029703   0.8762376  )
         6           Nb  tau(   6) = (   0.4628713   0.4628713   0.4628713  )
         7           Nb  tau(   7) = (   0.4628713   1.2896041   1.2896041  )
         8           Ta  tau(   8) = (   0.0495050   0.8762376   0.8762376  )
         9           Ta  tau(   9) = (   0.8762376   0.8762376   0.8762376  )
        10           Ta  tau(  10) = (   0.0495050   0.0495050   0.0495050  )
        11           Ta  tau(  11) = (   0.0495050   0.0495050   1.7029703  )
        12           Ta  tau(  12) = (   0.0495050   1.7029703   0.0495050  )
        13           Ta  tau(  13) = (   0.0495050   1.7029703   1.7029703  )
        14           Ta  tau(  14) = (   0.8762376   0.0495050   0.0495050  )
        15           Ta  tau(  15) = (   0.8762376   0.0495050   1.7029703  )
        16           Ta  tau(  16) = (   0.8762376   1.7029703   0.0495050  )
        17           Ta  tau(  17) = (   0.8762376   1.7029703   1.7029703  )
        18           Zr  tau(  18) = (   0.4628713   1.2896041   0.4628713  )
        19           Zr  tau(  19) = (   0.0495050   0.8762376   0.0495050  )
        20           Zr  tau(  20) = (   0.0495050   0.8762376   1.7029703  )
        21           Zr  tau(  21) = (   0.8762376   0.8762376   0.0495050  )
        22           Zr  tau(  22) = (   0.8762376   0.8762376   1.7029703  )

     number of k points=     1  Gaussian smearing, width (Ry)=  0.0220
                       cart. coord. in units 2pi/alat
        k(    1) = (   0.0000000   0.0000000   0.0000000), wk =   1.0000000

     Dense  grid:   131831 G-vectors     FFT dimensions: (  54, 100, 100)

     Estimated max dynamical RAM per process >     120.43 MB

     Estimated total dynamical RAM >       1.41 GB

     Check: negative core charge=   -0.000001
     Generating pointlists ...
     new r_m :   0.0715 (alat units)  0.5457 (a.u.) for type    1
     new r_m :   0.2953 (alat units)  2.2548 (a.u.) for type    2
     new r_m :   0.0715 (alat units)  0.5457 (a.u.) for type    3
     new r_m :   0.0715 (alat units)  0.5457 (a.u.) for type    4

     Initial potential from superposition of free atoms

     starting charge     265.9727, renormalised to     276.0000

     negative rho (up, down):  1.119E-01 1.119E-01
     Starting wfcs are  286 randomized atomic wfcs

     total cpu time spent up to now is        8.5 secs

     Self-consistent Calculation

     iteration #  1     ecut=   120.00 Ry     beta= 0.70
     Davidson diagonalization with overlap
     ethr =  1.00E-02,  avg # of iterations =  8.0

     negative rho (up, down):  1.215E-01 1.213E-01

     total cpu time spent up to now is       32.7 secs

     total energy              =   -1335.10169790 Ry
     estimated scf accuracy    <     315.65052134 Ry

     total magnetization       =     0.03 Bohr mag/cell
     absolute magnetization    =     0.09 Bohr mag/cell

     iteration #  2     ecut=   120.00 Ry     beta= 0.70
     Davidson diagonalization with overlap
     ethr =  1.00E-02,  avg # of iterations =  5.0

     negative rho (up, down):  1.456E-01 1.455E-01

     total cpu time spent up to now is       46.6 secs

     total energy              =   -1365.94182805 Ry
     estimated scf accuracy    <     122.97054561 Ry

     total magnetization       =     0.00 Bohr mag/cell
     absolute magnetization    =     0.05 Bohr mag/cell

     iteration #  3     ecut=   120.00 Ry     beta= 0.70
     Davidson diagonalization with overlap
     ethr =  1.00E-02,  avg # of iterations =  3.0

     negative rho (up, down):  1.815E-01 1.816E-01

     total cpu time spent up to now is       57.6 secs

     total energy              =   -1364.66084125 Ry
     estimated scf accuracy    <      27.75210327 Ry

     total magnetization       =    -0.01 Bohr mag/cell
     absolute magnetization    =     0.07 Bohr mag/cell

     iteration #  4     ecut=   120.00 Ry     beta= 0.70
     Davidson diagonalization with overlap
     ethr =  1.00E-02,  avg # of iterations =  3.0

     negative rho (up, down):  1.806E-01 1.806E-01

     total cpu time spent up to now is       69.6 secs

     total energy              =   -1365.63240579 Ry
     estimated scf accuracy    <       5.05205213 Ry

     total magnetization       =    -0.00 Bohr mag/cell
     absolute magnetization    =     0.07 Bohr mag/cell

     iteration #  5     ecut=   120.00 Ry     beta= 0.70
     Davidson diagonalization with overlap
     ethr =  1.83E-03,  avg # of iterations =  7.0

     negative rho (up, down):  1.817E-01 1.817E-01

     total cpu time spent up to now is       80.7 secs

     total energy              =   -1365.69737756 Ry
     estimated scf accuracy    <       2.10535995 Ry

     total magnetization       =     0.00 Bohr mag/cell
     absolute magnetization    =     0.04 Bohr mag/cell

     iteration #  6     ecut=   120.00 Ry     beta= 0.70
     Davidson diagonalization with overlap
     ethr =  7.63E-04,  avg # of iterations =  4.5

     negative rho (up, down):  1.783E-01 1.783E-01

     total cpu time spent up to now is       91.5 secs

     total energy              =   -1365.69594917 Ry
     estimated scf accuracy    <       0.71696971 Ry

     total magnetization       =    -0.00 Bohr mag/cell
     absolute magnetization    =     0.03 Bohr mag/cell

     iteration #  7     ecut=   120.00 Ry     beta= 0.70
     Davidson diagonalization with overlap
     ethr =  2.60E-04,  avg # of iterations =  8.5

     negative rho (up, down):  1.772E-01 1.772E-01

     total cpu time spent up to now is      103.0 secs

     total energy              =   -1365.71799214 Ry
     estimated scf accuracy    <       0.12391138 Ry

     total magnetization       =    -0.00 Bohr mag/cell
     absolute magnetization    =     0.02 Bohr mag/cell

     iteration #  8     ecut=   120.00 Ry     beta= 0.70
     Davidson diagonalization with overlap
     ethr =  4.49E-05,  avg # of iterations =  5.5

     negative rho (up, down):  1.768E-01 1.768E-01

     total cpu time spent up to now is      114.0 secs

     total energy              =   -1365.71862482 Ry
     estimated scf accuracy    <       0.04695064 Ry

     total magnetization       =    -0.00 Bohr mag/cell
     absolute magnetization    =     0.01 Bohr mag/cell

     iteration #  9     ecut=   120.00 Ry     beta= 0.70
     Davidson diagonalization with overlap
     ethr =  1.70E-05,  avg # of iterations =  7.0

     negative rho (up, down):  1.766E-01 1.766E-01

     total cpu time spent up to now is      125.3 secs

     total energy              =   -1365.72041541 Ry
     estimated scf accuracy    <       0.00619599 Ry

     total magnetization       =    -0.00 Bohr mag/cell
     absolute magnetization    =     0.01 Bohr mag/cell

     iteration # 10     ecut=   120.00 Ry     beta= 0.70
     Davidson diagonalization with overlap
     ethr =  2.24E-06,  avg # of iterations =  9.0

     negative rho (up, down):  1.767E-01 1.767E-01

     total cpu time spent up to now is      137.6 secs

     total energy              =   -1365.72053601 Ry
     estimated scf accuracy    <       0.00433435 Ry

     total magnetization       =    -0.00 Bohr mag/cell
     absolute magnetization    =     0.01 Bohr mag/cell

     iteration # 11     ecut=   120.00 Ry     beta= 0.70
     Davidson diagonalization with overlap
     ethr =  1.57E-06,  avg # of iterations =  2.0

     negative rho (up, down):  1.769E-01 1.769E-01

     Magnetic moment per site  (integrated on atomic sphere of radius R)
     atom   1 (R=0.071)  charge=  0.0284  magn=  0.0000
     atom   2 (R=0.071)  charge=  0.8011  magn=  0.0000
     atom   3 (R=0.071)  charge=  0.8025  magn= -0.0000
     atom   4 (R=0.071)  charge=  0.8013  magn= -0.0000
     atom   5 (R=0.071)  charge=  0.8027  magn=  0.0000
     atom   6 (R=0.295)  charge= 10.9669  magn= -0.0046
     atom   7 (R=0.295)  charge= 10.9756  magn=  0.0018
     atom   8 (R=0.071)  charge=  0.3972  magn= -0.0000
     atom   9 (R=0.071)  charge=  0.3973  magn= -0.0000
     atom  10 (R=0.071)  charge=  1.8352  magn=  0.0000
     atom  11 (R=0.071)  charge=  1.8363  magn=  0.0000
     atom  12 (R=0.071)  charge=  1.8363  magn=  0.0000
     atom  13 (R=0.071)  charge=  1.8382  magn=  0.0000
     atom  14 (R=0.071)  charge=  1.8351  magn=  0.0000
     atom  15 (R=0.071)  charge=  1.8364  magn=  0.0000
     atom  16 (R=0.071)  charge=  1.8364  magn=  0.0000
     atom  17 (R=0.071)  charge=  1.8382  magn=  0.0000
     atom  18 (R=0.071)  charge=  0.0930  magn= -0.0000
     atom  19 (R=0.071)  charge=  1.0839  magn= -0.0000
     atom  20 (R=0.071)  charge=  1.0858  magn= -0.0000
     atom  21 (R=0.071)  charge=  1.0842  magn= -0.0000
     atom  22 (R=0.071)  charge=  1.0860  magn= -0.0000

     total cpu time spent up to now is      147.9 secs

     End of self-consistent calculation

 ------ SPIN UP ------------


          k = 0.0000 0.0000 0.0000 ( 16508 PWs)   bands (ev):

  -730.1280-384.4785-273.3343-273.2616-273.2212-147.7011-147.5940-141.6329
  -141.5293-134.5036-129.0969-118.7312-118.7140-118.6766 -97.8582 -95.4814
   -69.6290 -69.6187 -69.5749 -69.0193 -68.9748 -68.9324 -63.7891 -62.1914
   -62.1048 -62.0204 -54.3291 -50.8059 -50.7470 -47.7397 -40.4809 -40.4199
   -39.9541 -35.9988 -33.8721 -32.8487 -30.1260 -28.1413 -27.9673 -26.7045
   -26.6372 -22.5459 -22.5417 -18.9841 -18.0967 -17.1858 -17.0998 -16.7526
   -15.8835 -14.5688 -12.4955 -12.4668 -12.4084 -11.9959 -11.9368 -11.8555
   -11.0055 -10.9401 -10.8505 -10.0324  -9.9824  -7.0190  -6.9912  -6.9517
    -2.0585   0.2201   0.3775   0.9670   1.0914   1.1562   1.2110   1.2267
     1.3197   1.3518   1.4045   1.4256   1.4381   1.5310   4.5032   4.9406
     5.1270   5.1822   7.1351   7.3970   7.4734   7.5263   8.6465  12.9016
    13.0805  13.7829  15.0801  15.1610  15.3664  15.6935  16.3261  16.4121
    18.6843  20.7967  21.7684  21.8032  22.2807  23.5090  23.8459  23.9279
    23.9481  23.9781  24.2863  24.3507  25.4106  25.7041  25.7921  26.0988
    26.4154  26.6513  27.4541  27.9573  28.0994  28.3438  28.6167  28.8585
    29.1664  29.2184  29.2594  29.4720  29.4849  29.5355  30.5459  30.8289
    30.8738  30.9503  31.1485  31.3162  31.5819  31.7767  31.8886  31.9601
    32.0970  32.3470  32.5595  32.7037  32.7364  32.7895  32.8747  33.2688
    33.6208  33.8223  34.0828  34.1060  34.3049  34.4188  34.6297  34.7915
    34.8776  35.1534  35.5014  36.3358  36.3841  36.6949  36.9708  37.0283
    37.8715  38.0428  38.4602  38.5513  38.6179  38.7454

 ------ SPIN DOWN ----------


          k = 0.0000 0.0000 0.0000 ( 16508 PWs)   bands (ev):

  -730.1280-384.4785-273.3343-273.2616-273.2212-147.7011-147.5940-141.6329
  -141.5293-134.5036-129.0969-118.7312-118.7140-118.6766 -97.8583 -95.4814
   -69.6290 -69.6187 -69.5748 -69.0193 -68.9748 -68.9324 -63.7892 -62.1914
   -62.1049 -62.0204 -54.3291 -50.8060 -50.7470 -47.7397 -40.4809 -40.4200
   -39.9541 -35.9988 -33.8721 -32.8487 -30.1259 -28.1413 -27.9673 -26.7045
   -26.6372 -22.5486 -22.5404 -18.9841 -18.0967 -17.1858 -17.0998 -16.7528
   -15.8835 -14.5688 -12.4955 -12.4668 -12.4084 -11.9959 -11.9368 -11.8555
   -11.0056 -10.9401 -10.8505 -10.0324  -9.9824  -7.0190  -6.9912  -6.9517
    -2.0585   0.2200   0.3775   0.9674   1.0904   1.1552   1.2120   1.2268
     1.3181   1.3513   1.4034   1.4249   1.4379   1.5306   4.5032   4.9403
     5.1270   5.1819   7.1351   7.3970   7.4734   7.5262   8.6465  12.9017
    13.0805  13.7829  15.0801  15.1610  15.3664  15.6935  16.3261  16.4120
    18.6843  20.7966  21.7685  21.8033  22.2807  23.5090  23.8459  23.9279
    23.9480  23.9781  24.2863  24.3506  25.4107  25.7041  25.7921  26.0987
    26.4152  26.6512  27.4541  27.9573  28.0993  28.3438  28.6167  28.8584
    29.1662  29.2184  29.2594  29.4718  29.4846  29.5355  30.5458  30.8288
    30.8738  30.9499  31.1479  31.3158  31.5816  31.7766  31.8885  31.9602
    32.0968  32.3459  32.5585  32.7039  32.7354  32.7898  32.8737  33.2686
    33.6207  33.8220  34.0819  34.1059  34.3047  34.4183  34.6293  34.7913
    34.8777  35.1531  35.5013  36.3353  36.3839  36.6947  36.9707  37.0282
    37.8714  38.0427  38.4599  38.5510  38.6180  38.7454

     the Fermi energy is    32.4167 ev

!    total energy              =   -1365.72028874 Ry
     estimated scf accuracy    <       0.00086281 Ry
     smearing contrib. (-TS)   =      -0.04026810 Ry
     internal energy E=F+TS    =   -1365.68002064 Ry

     total magnetization       =    -0.00 Bohr mag/cell
     absolute magnetization    =     0.01 Bohr mag/cell

     convergence has been achieved in  11 iterations

     negative rho (up, down):  1.769E-01 1.769E-01

     Forces acting on atoms (cartesian axes, Ry/au):

     atom    1 type  1   force =    -0.00001837   -0.00323284   -0.00901989
     atom    2 type  1   force =    54.07137201   54.21963785   -0.01043578
     atom    3 type  1   force =    54.06946779  -54.22092574    0.01686860
     atom    4 type  1   force =   -54.07136881   54.21964447   -0.01041627
     atom    5 type  1   force =   -54.06941199  -54.22093963    0.01687983
     atom    6 type  2   force =    -0.00000320   -0.01954476    0.02535935
     atom    7 type  2   force =    -0.00002159    0.01355915   -0.01714119
     atom    8 type  3   force =   109.84304948   -0.00047042   -0.00000090
     atom    9 type  3   force =  -109.84306642   -0.00041263   -0.00002449
     atom   10 type  3   force =   179.15151026  178.88789200  179.10942431
     atom   11 type  3   force =   179.16822893  178.84849045 -179.05242158
     atom   12 type  3   force =   179.17006308 -178.84679015  179.04967412
     atom   13 type  3   force =   179.15265257 -178.88959591 -179.11637647
     atom   14 type  3   force =  -179.15153932  178.88790357  179.10944520
     atom   15 type  3   force =  -179.16825142  178.84849837 -179.05242231
     atom   16 type  3   force =  -179.17007622 -178.84680457  179.04967689
     atom   17 type  3   force =  -179.15267057 -178.88961209 -179.11637911
     atom   18 type  4   force =    -0.00000795    0.01269979    0.00497028
     atom   19 type  4   force =   120.79818611    0.00040219  120.66523569
     atom   20 type  4   force =   120.81271232   -0.00035114 -120.66408703
     atom   21 type  4   force =  -120.79816078    0.00038806  120.66526264
     atom   22 type  4   force =  -120.81264591   -0.00043604 -120.66407189
     The non-local contrib.  to forces
     atom    1 type  1   force =    -0.00002778   -0.01726996    0.07542066
     atom    2 type  1   force =  -104.49248159 -104.40364734    0.01605986
     atom    3 type  1   force =  -104.49451330  104.40422705   -0.00549346
     atom    4 type  1   force =   104.49247649 -104.40366226    0.01607792
     atom    5 type  1   force =   104.49452993  104.40420193   -0.00547690
     atom    6 type  2   force =    -0.00002581    0.05287250    0.04944926
     atom    7 type  2   force =     0.00003352   -0.03767241   -0.03499205
     atom    8 type  3   force =   -42.56003227   -0.00829582    0.01126754
     atom    9 type  3   force =    42.56000011   -0.00826246    0.01125284
     atom   10 type  3   force =   -67.26520333  -67.53168571  -67.34236598
     atom   11 type  3   force =   -67.24692373  -67.49754573   67.33598343
     atom   12 type  3   force =   -67.24290520   67.50667678  -67.34049024
     atom   13 type  3   force =   -67.26570438   67.52775187   67.33873114
     atom   14 type  3   force =    67.26515327  -67.53167533  -67.34234701
     atom   15 type  3   force =    67.24688309  -67.49754353   67.33599657
     atom   16 type  3   force =    67.24287644   67.50666960  -67.34049034
     atom   17 type  3   force =    67.26566137   67.52773413   67.33873163
     atom   18 type  4   force =     0.00000368   -0.07469926    0.03517887
     atom   19 type  4   force =    -4.82381451    0.02472884   -5.02602043
     atom   20 type  4   force =    -4.80981777   -0.02827703    5.01912108
     atom   21 type  4   force =     4.82385936    0.02469829   -5.02608884
     atom   22 type  4   force =     4.80978647   -0.02832343    5.01914467
     The ionic contribution  to forces
     atom    1 type  1   force =     0.00000000   27.94175594  -27.94176432
     atom    2 type  1   force =   213.93645076  219.32471758    0.21117404
     atom    3 type  1   force =   213.93645029 -219.32471416   -0.21117331
     atom    4 type  1   force =  -213.93645076  219.32471758    0.21117404
     atom    5 type  1   force =  -213.93645029 -219.32471416   -0.21117331
     atom    6 type  2   force =    -0.00000000   30.45341343   30.45341343
     atom    7 type  2   force =     0.00000000  -30.45342826  -30.45342826
     atom    8 type  3   force =   185.83591511    0.00000107    0.00000107
     atom    9 type  3   force =  -185.83591511    0.00000107    0.00000107
     atom   10 type  3   force =   347.74105187  356.84359794  356.84359794
     atom   11 type  3   force =   347.77378927  357.22572179 -357.22571895
     atom   12 type  3   force =   347.77378927 -357.22571895  357.22572179
     atom   13 type  3   force =   347.74105113 -356.84359441 -356.84359441
     atom   14 type  3   force =  -347.74105187  356.84359794  356.84359794
     atom   15 type  3   force =  -347.77378927  357.22572179 -357.22571895
     atom   16 type  3   force =  -347.77378927 -357.22571895  357.22572179
     atom   17 type  3   force =  -347.74105113 -356.84359441 -356.84359441
     atom   18 type  4   force =     0.00000000  -27.94176432   27.94175594
     atom   19 type  4   force =   213.93645076    0.21117404  219.32471758
     atom   20 type  4   force =   213.93645029   -0.21117331 -219.32471416
     atom   21 type  4   force =  -213.93645076    0.21117404  219.32471758
     atom   22 type  4   force =  -213.93645029   -0.21117331 -219.32471416
     The local contribution  to forces
     atom    1 type  1   force =    -0.00002011  -27.89510386   27.85862821
     atom    2 type  1   force =   -45.81813435  -51.17156373   -0.22593566
     atom    3 type  1   force =   -45.81840498   51.17164663    0.24681996
     atom    4 type  1   force =    45.81815662  -51.17155220   -0.22593428
     atom    5 type  1   force =    45.81844466   51.17165877    0.24681762
     atom    6 type  2   force =     0.00000178  -30.49752325  -30.47929415
     atom    7 type  2   force =    -0.00014352   30.47747382   30.48098467
     atom    8 type  3   force =   -28.32776238    0.00862447    0.00384404
     atom    9 type  3   force =    28.32774065    0.00864393    0.00382552
     atom   10 type  3   force =   -96.18332230 -105.25994307 -105.26013150
     atom   11 type  3   force =   -96.21509834 -105.71399970  105.67496266
     atom   12 type  3   force =   -96.21910729  105.71800113 -105.70251679
     atom   13 type  3   force =   -96.18134410  105.27193124  105.22694643
     atom   14 type  3   force =    96.18322499 -105.25995763 -105.26014606
     atom   15 type  3   force =    96.21500516 -105.71401347  105.67498133
     atom   16 type  3   force =    96.21900011  105.71800328 -105.70253083
     atom   17 type  3   force =    96.18124039  105.27193672  105.22696675
     atom   18 type  4   force =     0.00002990   28.00274927  -27.97202435
     atom   19 type  4   force =   -86.93334842   -0.23859321  -92.25657877
     atom   20 type  4   force =   -86.93164226    0.23711461   92.24068742
     atom   21 type  4   force =    86.93332731   -0.23855139  -92.25645559
     atom   22 type  4   force =    86.93181389    0.23708539   92.24072860
     The core correction contribution to forces
     atom    1 type  1   force =    -0.00000109   -0.01622825    0.00894445
     atom    2 type  1   force =    -9.56024291   -9.52908251    0.00093744
     atom    3 type  1   force =    -9.56065371    9.52990337   -0.00023114
     atom    4 type  1   force =     9.56024749   -9.52908434    0.00093991
     atom    5 type  1   force =     9.56066007    9.52990445   -0.00022961
     atom    6 type  2   force =     0.00000178   -0.00236887   -0.00501730
     atom    7 type  2   force =    -0.00000301    0.00158772    0.00428539
     atom    8 type  3   force =    -5.11129054   -0.00104735    0.00144553
     atom    9 type  3   force =     5.11128788   -0.00104600    0.00144477
     atom   10 type  3   force =    -5.13851630   -5.14903039   -5.14389898
     atom   11 type  3   force =    -5.13930519   -5.15002527    5.14505497
     atom   12 type  3   force =    -5.14007850    5.15017387   -5.14536614
     atom   13 type  3   force =    -5.13863647    5.14916842    5.14386889
     atom   14 type  3   force =     5.13851477   -5.14903177   -5.14390028
     atom   15 type  3   force =     5.13930286   -5.15002539    5.14505642
     atom   16 type  3   force =     5.14007631    5.15017519   -5.14536611
     atom   17 type  3   force =     5.13863358    5.14916725    5.14386917
     atom   18 type  4   force =    -0.00000070    0.00402962   -0.00395847
     atom   19 type  4   force =    -1.42092830   -0.00066927   -1.41471783
     atom   20 type  4   force =    -1.42101117    0.00076823    1.41453989
     atom   21 type  4   force =     1.42092493   -0.00066737   -1.41471266
     atom   22 type  4   force =     1.42101442    0.00076775    1.41454033
     The Hubbard contrib.    to forces
     atom    1 type  1   force =     0.00000000    0.00000000    0.00000000
     atom    2 type  1   force =     0.00000000    0.00000000    0.00000000
     atom    3 type  1   force =     0.00000000    0.00000000    0.00000000
     atom    4 type  1   force =     0.00000000    0.00000000    0.00000000
     atom    5 type  1   force =     0.00000000    0.00000000    0.00000000
     atom    6 type  2   force =     0.00000000    0.00000000    0.00000000
     atom    7 type  2   force =     0.00000000    0.00000000    0.00000000
     atom    8 type  3   force =     0.00000000    0.00000000    0.00000000
     atom    9 type  3   force =     0.00000000    0.00000000    0.00000000
     atom   10 type  3   force =     0.00000000    0.00000000    0.00000000
     atom   11 type  3   force =     0.00000000    0.00000000    0.00000000
     atom   12 type  3   force =     0.00000000    0.00000000    0.00000000
     atom   13 type  3   force =     0.00000000    0.00000000    0.00000000
     atom   14 type  3   force =     0.00000000    0.00000000    0.00000000
     atom   15 type  3   force =     0.00000000    0.00000000    0.00000000
     atom   16 type  3   force =     0.00000000    0.00000000    0.00000000
     atom   17 type  3   force =     0.00000000    0.00000000    0.00000000
     atom   18 type  4   force =     0.00000000    0.00000000    0.00000000
     atom   19 type  4   force =     0.00000000    0.00000000    0.00000000
     atom   20 type  4   force =     0.00000000    0.00000000    0.00000000
     atom   21 type  4   force =     0.00000000    0.00000000    0.00000000
     atom   22 type  4   force =     0.00000000    0.00000000    0.00000000
     The SCF correction term to forces
     atom    1 type  1   force =     0.00002859   -0.01600471   -0.00921405
     atom    2 type  1   force =     0.00577808   -0.00040415   -0.01163661
     atom    3 type  1   force =     0.00658747   -0.00160664   -0.01201861
     atom    4 type  1   force =    -0.00580067   -0.00039231   -0.01163901
     atom    5 type  1   force =    -0.00659839   -0.00160863   -0.01202314
     atom    6 type  2   force =     0.00001702   -0.02555656    0.00784296
     atom    7 type  2   force =     0.00008941    0.02598028   -0.01295609
     atom    8 type  3   force =     0.00621754    0.00062921   -0.01552424
     atom    9 type  3   force =    -0.00618197    0.00063282   -0.01551386
     atom   10 type  3   force =    -0.00250171   -0.01466477    0.01325767
     atom   11 type  3   force =    -0.00423510   -0.01527863    0.01833115
     atom   12 type  3   force =    -0.00163722    0.00445902    0.01336034
     atom   13 type  3   force =    -0.00271564    0.00552896    0.01870632
     atom   14 type  3   force =     0.00261749   -0.01464765    0.01327545
     atom   15 type  3   force =     0.00434472   -0.01525904    0.01829716
     atom   16 type  3   force =     0.00175817    0.00444831    0.01337722
     atom   17 type  3   force =     0.00284319    0.00552622    0.01868260
     atom   18 type  4   force =    -0.00004285    0.02276647    0.00505313
     atom   19 type  4   force =     0.03982455    0.00414381    0.03886998
     atom   20 type  4   force =     0.03873121    0.00159836   -0.01268642
     atom   21 type  4   force =    -0.03982364    0.00411649    0.03883699
     atom   22 type  4   force =    -0.03881242    0.00158955   -0.01273650

     Total force =   966.179166     Total SCF correction =     0.128172

     Molecular Dynamics Calculation

     Starting temperature  =   300.00 K

     temperature is set once at start

     mass Hf               =   178.49
     mass Nb               =    92.91
     mass Ta               =   180.95
     mass Zr               =    91.22
     Time step             = 21000.00 a.u.,******** femto-seconds

     Entering Dynamics:    iteration =     1
                           time      =   1.0159 pico-seconds


ATOMIC_POSITIONS (angstrom)
Hf            4.3635488592        1.0818891903       -1.8838743091
Hf        38781.1868868125    38889.5233169812       -3.2943852873
Hf        38780.3002424069   -38882.0369158846       16.3540063265
Hf       -38778.6920350499    38887.5032149146       -3.5368702351
Hf       -38779.5830087603   -38883.2719990976       18.1770666251
Nb            1.7286114705      -24.9700687292       36.2254607288
Nb            4.7376607064       26.1217610653      -17.9304094566
Ta        77713.2027972030        1.6145164270        3.5590451000
Ta       -77710.4750077059        3.7975227967        3.9503682080
Ta       126748.1643815977   126564.9741633937   126721.5069629394
Ta       126762.1446907508   126535.9346199302  -126674.6331150779
Ta       126763.5909517087  -126527.6030044805   126676.7332834466
Ta       126749.2620007885  -126558.7413783659  -126719.5224381793
Ta      -126746.6113675938   126563.5296386986   126718.5007220525
Ta      -126756.5631132726   126534.5781745448  -126669.7404471213
Ta      -126759.4199687160  -126526.2141481208   126676.4667818843
Ta      -126746.4486220546  -126559.5209051063  -126718.3938249010
Zr            3.1393249335       23.5866748337        7.2691348076
Zr       169522.9991858061        4.3850941207   169338.3403651133
Zr       169544.5341014536        3.2174446132  -169328.0145587515
Zr      -169517.2177736168        3.2291555550   169336.0092282506
Zr      -169539.7336059780        3.3615233807  -169327.9420455334


     kinetic energy (Ekin) =           0.05985274 Ry
     temperature           =         300.00000000 K 
     Ekin + Etot (const)   =       -1365.66043601 Ry

     Linear momentum :    0.0000000000   -0.0000000000   -0.0000000000

     File outdir/pwscf.msd.dat deleted, as requested

     Writing config-only to output data dir outdir/pwscf.save/
     NEW-OLD atomic charge density approx. for the potential

     negative rho (up, down):  2.562E+00 2.559E+00
     Generating pointlists ...
     new r_m :   0.0646 (alat units)  0.4932 (a.u.) for type    1
     new r_m :   0.0436 (alat units)  0.3326 (a.u.) for type    2
     new r_m :   0.0512 (alat units)  0.3912 (a.u.) for type    3
     new r_m :   0.0436 (alat units)  0.3326 (a.u.) for type    4

     total cpu time spent up to now is      154.6 secs

     Self-consistent Calculation

     iteration #  1     ecut=   120.00 Ry     beta= 0.70
     Davidson diagonalization with overlap
