
     Program PWSCF v.7.2 starts on  6Jun2023 at  0:50:47 

     This program is part of the open-source Quantum ESPRESSO suite
     for quantum simulation of materials; please cite
         "P. Giannozzi et al., J. Phys.:Condens. Matter 21 395502 (2009);
         "P. Giannozzi et al., J. Phys.:Condens. Matter 29 465901 (2017);
         "P. Giannozzi et al., J. Chem. Phys. 152 154105 (2020);
          URL http://www.quantum-espresso.org", 
     in publications or presentations arising from this work. More details at
     http://www.quantum-espresso.org/quote

     Parallel version (MPI), running on    12 processors

     MPI processes distributed on     1 nodes
     69784 MiB available memory on the printing compute node when the environment starts

     Reading input from md_Hf5Nb2Ta10Zr5H_10steps_100eVrelaxed_slab.in
Warning: card &CELL ignored
Warning: card / ignored

     Current dimensions of program PWSCF are:
     Max number of different atomic species (ntypx) = 10
     Max number of k-points (npk) =  40000
     Max angular momentum in pseudopotentials (lmaxx) =  4

     File outdir/pwscf.md deleted, as requested

     gamma-point specific algorithms are used

     R & G space division:  proc/nbgrp/npool/nimage =      12
     Subspace diagonalization in iterative solution of the eigenvalue problem:
     one sub-group per band group will be used
     custom distributed-memory algorithm (size of sub-group:  2*  2 procs)


     Parallelization info
     --------------------
     sticks:   dense  smooth     PW     G-vecs:    dense   smooth      PW
     Min         821     821    205                73378    73378    9174
     Max         824     824    206                73388    73388    9178
     Sum        9871    9871   2471               880587   880587  110101

     Using Slab Decomposition



     bravais-lattice index     =            0
     lattice parameter (alat)  =      15.7603  a.u.
     unit-cell volume          =    4958.3580 (a.u.)^3
     number of atoms/cell      =           23
     number of atomic types    =            5
     number of electrons       =       277.00
     number of Kohn-Sham states=          167
     kinetic-energy cutoff     =     120.0000  Ry
     charge density cutoff     =     480.0000  Ry
     scf convergence threshold =      1.0E-03
     mixing beta               =       0.7000
     number of iterations used =            8  TF        mixing
     energy convergence thresh.=      0.0E+00
     force convergence thresh. =      0.0E+00
     Exchange-correlation=  SLA  PW   PBX  PBC
                           (   1   4   3   4   0   0   0)
     nstep                     =           10


     celldm(1)=  15.760315  celldm(2)=   0.000000  celldm(3)=   0.000000
     celldm(4)=   0.000000  celldm(5)=   0.000000  celldm(6)=   0.000000

     crystal axes: (cart. coord. in units of alat)
               a(1) = (   1.000000   0.000000   0.000000 )  
               a(2) = (   0.000000   1.040767   0.000000 )  
               a(3) = (   0.000000   0.000000   1.216997 )  

     reciprocal axes: (cart. coord. in units 2 pi/alat)
               b(1) = (  1.000000  0.000000  0.000000 )  
               b(2) = (  0.000000  0.960830  0.000000 )  
               b(3) = (  0.000000  0.000000  0.821695 )  


     PseudoPot. # 1 for Hf read from file:
     q-e/pseudo/hf_pbe_v1.uspp.F.UPF
     MD5 check sum: 8ee9378dfe14276e333edf04c5e4aa26
     Pseudo is Ultrasoft + core correction, Zval = 12.0
     Generated by new atomic code, or converted to UPF format
     Using radial grid of  921 points,  8 beta functions with: 
                l(1) =   0
                l(2) =   0
                l(3) =   0
                l(4) =   1
                l(5) =   1
                l(6) =   2
                l(7) =   2
                l(8) =   3
     Q(r) pseudized with  6 coefficients,  rinner =    1.200   1.200   1.200
                                                       1.200   1.200   1.200
                                                       1.200

     PseudoPot. # 2 for Nb read from file:
     q-e/pseudo/nb_pbe_v1.uspp.F.UPF
     MD5 check sum: 573aab8a2fa660278ed4a62cd769473f
     Pseudo is Ultrasoft + core correction, Zval = 13.0
     Generated by new atomic code, or converted to UPF format
     Using radial grid of  887 points,  6 beta functions with: 
                l(1) =   0
                l(2) =   0
                l(3) =   1
                l(4) =   1
                l(5) =   2
                l(6) =   2
     Q(r) pseudized with  6 coefficients,  rinner =    1.000   1.000   1.000
                                                       1.000   1.000

     PseudoPot. # 3 for Ta read from file:
     q-e/pseudo/ta_pbe_v1.uspp.F.UPF
     MD5 check sum: f8bbe9446314a3b8ea5d9f3e3836c939
     Pseudo is Ultrasoft + core correction, Zval = 13.0
     Generated by new atomic code, or converted to UPF format
     Using radial grid of  921 points,  7 beta functions with: 
                l(1) =   0
                l(2) =   0
                l(3) =   1
                l(4) =   1
                l(5) =   2
                l(6) =   2
                l(7) =   3
     Q(r) pseudized with  6 coefficients,  rinner =    1.300   1.300   1.300
                                                       1.300   1.300   1.300
                                                       1.300

     PseudoPot. # 4 for Zr read from file:
     q-e/pseudo/zr_pbe_v1.uspp.F.UPF
     MD5 check sum: 5db81b1e868ab7776c4564c113de050b
     Pseudo is Ultrasoft + core correction, Zval = 12.0
     Generated by new atomic code, or converted to UPF format
     Using radial grid of  887 points,  6 beta functions with: 
                l(1) =   0
                l(2) =   0
                l(3) =   1
                l(4) =   1
                l(5) =   2
                l(6) =   2
     Q(r) pseudized with  6 coefficients,  rinner =    1.200   1.200   1.200
                                                       1.200   1.200

     PseudoPot. # 5 for H  read from file:
     q-e/pseudo/h_pbe_v1.4.uspp.F.UPF
     MD5 check sum: 761ae9a214b05c3daf00ab9f6b793d6f
     Pseudo is Ultrasoft, Zval =  1.0
     Generated by new atomic code, or converted to UPF format
     Using radial grid of  615 points,  2 beta functions with: 
                l(1) =   0
                l(2) =   0
     Q(r) pseudized with  8 coefficients,  rinner =    0.700

     atomic species   valence    mass     pseudopotential
        Hf            12.00   178.49000     Hf( 1.00)
        Nb            13.00    92.90637     Nb( 1.00)
        Ta            13.00   180.94788     Ta( 1.00)
        Zr            12.00    91.22400     Zr( 1.00)
        H              1.00     2.01400     H ( 1.00)

     Starting magnetic structure 
     atomic species   magnetization
        Hf           0.000
        Nb           0.000
        Ta           0.000
        Zr           0.000
        H            0.000

     No symmetry found



   Cartesian axes

     site n.     atom                  positions (alat units)
         1           Hf  tau(   1) = (   0.3201439   0.3389836   0.7918423  )
         2           Hf  tau(   2) = (   0.1502387   0.1542307   0.6065307  )
         3           Hf  tau(   3) = (   0.1505380   0.8860677   0.6100801  )
         4           Hf  tau(   4) = (   0.4900491   0.1542307   0.6065307  )
         5           Hf  tau(   5) = (   0.4897498   0.8860677   0.6100801  )
         6           Nb  tau(   6) = (   0.3201439   0.3353634   0.4215328  )
         7           Nb  tau(   7) = (   0.3201439   0.7046018   0.7955633  )
         8           Ta  tau(   8) = (   0.1450088   0.5204950   0.6080487  )
         9           Ta  tau(   9) = (   0.4952790   0.5204950   0.6080487  )
        10           Ta  tau(  10) = (   0.1567449   0.1575687   0.2468560  )
        11           Ta  tau(  11) = (   0.1562096   0.1568814   0.9705731  )
        12           Ta  tau(  12) = (   0.1563561   0.8843917   0.2453522  )
        13           Ta  tau(  13) = (   0.1567999   0.8831035   0.9695447  )
        14           Ta  tau(  14) = (   0.4835429   0.1575687   0.2468560  )
        15           Ta  tau(  15) = (   0.4840781   0.1568814   0.9705731  )
        16           Ta  tau(  16) = (   0.4839317   0.8843917   0.2453522  )
        17           Ta  tau(  17) = (   0.4834879   0.8831035   0.9695447  )
        18           Zr  tau(  18) = (   0.3201439   0.7033916   0.4229477  )
        19           Zr  tau(  19) = (   0.1491408   0.5182348   0.2398082  )
        20           Zr  tau(  20) = (   0.1487273   0.5220772   0.9771889  )
        21           Zr  tau(  21) = (   0.4911469   0.5182348   0.2398082  )
        22           Zr  tau(  22) = (   0.4915605   0.5220772   0.9771889  )
        23           H   tau(  23) = (   0.6751351   0.5203837   0.6081751  )

     number of k points=     1  Gaussian smearing, width (Ry)=  0.0220
                       cart. coord. in units 2pi/alat
        k(    1) = (   0.0000000   0.0000000   0.0000000), wk =   1.0000000

     Dense  grid:   440294 G-vectors     FFT dimensions: ( 120, 120, 135)

     Estimated max dynamical RAM per process >     369.12 MB

     Estimated total dynamical RAM >       4.33 GB

     Check: negative core charge=   -0.000002
     Generating pointlists ...
     new r_m :   0.1251 (alat units)  1.9717 (a.u.) for type    1
     new r_m :   0.1229 (alat units)  1.9374 (a.u.) for type    2
     new r_m :   0.0742 (alat units)  1.1693 (a.u.) for type    3
     new r_m :   0.1245 (alat units)  1.9625 (a.u.) for type    4
     new r_m :   0.0742 (alat units)  1.1693 (a.u.) for type    5

     Initial potential from superposition of free atoms

     starting charge     266.9726, renormalised to     277.0000

     negative rho (up, down):  9.206E-01 9.206E-01
     Starting wfcs are  287 randomized atomic wfcs

     total cpu time spent up to now is       27.0 secs

     Self-consistent Calculation

     iteration #  1     ecut=   120.00 Ry     beta= 0.70
     Davidson diagonalization with overlap
     ethr =  1.00E-02,  avg # of iterations =  3.0

     negative rho (up, down):  9.825E-01 9.822E-01

     total cpu time spent up to now is       70.8 secs

     total energy              =   -2932.09787611 Ry
     estimated scf accuracy    <     291.81665252 Ry

     total magnetization       =    -0.00 Bohr mag/cell
     absolute magnetization    =     0.08 Bohr mag/cell

     iteration #  2     ecut=   120.00 Ry     beta= 0.70
     Davidson diagonalization with overlap
     ethr =  1.00E-02,  avg # of iterations =  4.0

     negative rho (up, down):  9.369E-01 9.356E-01

     total cpu time spent up to now is      117.7 secs

     total energy              =   -2942.06874578 Ry
     estimated scf accuracy    <      36.66300283 Ry

     total magnetization       =     0.00 Bohr mag/cell
     absolute magnetization    =     0.14 Bohr mag/cell

     iteration #  3     ecut=   120.00 Ry     beta= 0.70
     Davidson diagonalization with overlap
     ethr =  1.00E-02,  avg # of iterations =  3.0

     negative rho (up, down):  9.663E-01 9.644E-01

     total cpu time spent up to now is      158.9 secs

     total energy              =   -2942.61255661 Ry
     estimated scf accuracy    <      15.37982620 Ry

     total magnetization       =    -0.02 Bohr mag/cell
     absolute magnetization    =     0.19 Bohr mag/cell

     iteration #  4     ecut=   120.00 Ry     beta= 0.70
     Davidson diagonalization with overlap
     ethr =  5.55E-03,  avg # of iterations =  3.0

     negative rho (up, down):  9.611E-01 9.597E-01

     total cpu time spent up to now is      199.0 secs

     total energy              =   -2942.85582914 Ry
     estimated scf accuracy    <       3.36190410 Ry

     total magnetization       =     0.03 Bohr mag/cell
     absolute magnetization    =     0.33 Bohr mag/cell

     iteration #  5     ecut=   120.00 Ry     beta= 0.70
     Davidson diagonalization with overlap
     ethr =  1.21E-03,  avg # of iterations =  6.5

     negative rho (up, down):  9.369E-01 9.359E-01

     total cpu time spent up to now is      247.8 secs

     total energy              =   -2943.00181240 Ry
     estimated scf accuracy    <       1.65203545 Ry

     total magnetization       =     0.03 Bohr mag/cell
     absolute magnetization    =     0.20 Bohr mag/cell

     iteration #  6     ecut=   120.00 Ry     beta= 0.70
     Davidson diagonalization with overlap
     ethr =  5.96E-04,  avg # of iterations =  2.0

     negative rho (up, down):  9.239E-01 9.234E-01

     total cpu time spent up to now is      286.9 secs

     total energy              =   -2943.00428502 Ry
     estimated scf accuracy    <       1.08129351 Ry

     total magnetization       =     0.01 Bohr mag/cell
     absolute magnetization    =     0.15 Bohr mag/cell

     iteration #  7     ecut=   120.00 Ry     beta= 0.70
     Davidson diagonalization with overlap
     ethr =  3.90E-04,  avg # of iterations =  2.0

     negative rho (up, down):  9.085E-01 9.084E-01

     total cpu time spent up to now is      324.8 secs

     total energy              =   -2942.98709709 Ry
     estimated scf accuracy    <       0.27992515 Ry

     total magnetization       =     0.02 Bohr mag/cell
     absolute magnetization    =     0.16 Bohr mag/cell

     iteration #  8     ecut=   120.00 Ry     beta= 0.70
     Davidson diagonalization with overlap
     ethr =  1.01E-04,  avg # of iterations = 13.5

     negative rho (up, down):  9.048E-01 9.048E-01

     total cpu time spent up to now is      374.9 secs

     total energy              =   -2942.98835689 Ry
     estimated scf accuracy    <       0.23542898 Ry

     total magnetization       =     0.02 Bohr mag/cell
     absolute magnetization    =     0.12 Bohr mag/cell

     iteration #  9     ecut=   120.00 Ry     beta= 0.70
     Davidson diagonalization with overlap
     ethr =  8.50E-05,  avg # of iterations =  2.0

     negative rho (up, down):  9.060E-01 9.060E-01

     total cpu time spent up to now is      414.2 secs

     total energy              =   -2942.99784426 Ry
     estimated scf accuracy    <       0.05698759 Ry

     total magnetization       =     0.01 Bohr mag/cell
     absolute magnetization    =     0.09 Bohr mag/cell

     iteration # 10     ecut=   120.00 Ry     beta= 0.70
     Davidson diagonalization with overlap
     ethr =  2.06E-05,  avg # of iterations =  8.5

     negative rho (up, down):  9.069E-01 9.069E-01

     total cpu time spent up to now is      459.8 secs

     total energy              =   -2943.00237879 Ry
     estimated scf accuracy    <       0.02867001 Ry

     total magnetization       =     0.00 Bohr mag/cell
     absolute magnetization    =     0.08 Bohr mag/cell

     iteration # 11     ecut=   120.00 Ry     beta= 0.70
     Davidson diagonalization with overlap
     ethr =  1.04E-05,  avg # of iterations =  4.0

     negative rho (up, down):  9.077E-01 9.077E-01

     total cpu time spent up to now is      500.3 secs

     total energy              =   -2943.00460001 Ry
     estimated scf accuracy    <       0.00513755 Ry

     total magnetization       =     0.00 Bohr mag/cell
     absolute magnetization    =     0.07 Bohr mag/cell

     iteration # 12     ecut=   120.00 Ry     beta= 0.70
     Davidson diagonalization with overlap
     ethr =  1.85E-06,  avg # of iterations = 12.0

     negative rho (up, down):  9.078E-01 9.078E-01

     Magnetic moment per site  (integrated on atomic sphere of radius R)
     atom   1 (R=0.125)  charge=  9.4607   -0.0000
     atom   2 (R=0.125)  charge=  9.0586    0.0003
     atom   3 (R=0.125)  charge=  9.0582    0.0000
     atom   4 (R=0.125)  charge=  9.0565    0.0003
     atom   5 (R=0.125)  charge=  9.0561   -0.0002
     atom   6 (R=0.123)  charge= 10.3453   -0.0000
     atom   7 (R=0.123)  charge= 10.3469   -0.0001
     atom   8 (R=0.074)  charge=  5.2336    0.0001
     atom   9 (R=0.074)  charge=  5.2523    0.0001
     atom  10 (R=0.074)  charge=  5.2165    0.0002
     atom  11 (R=0.074)  charge=  5.2160    0.0001
     atom  12 (R=0.074)  charge=  5.2167   -0.0002
     atom  13 (R=0.074)  charge=  5.2164   -0.0003
     atom  14 (R=0.074)  charge=  5.2164    0.0004
     atom  15 (R=0.074)  charge=  5.2162    0.0001
     atom  16 (R=0.074)  charge=  5.2177   -0.0005
     atom  17 (R=0.074)  charge=  5.2156   -0.0003
     atom  18 (R=0.125)  charge=  9.4559   -0.0001
     atom  19 (R=0.125)  charge=  9.0006    0.0016
     atom  20 (R=0.125)  charge=  8.9992   -0.0017
     atom  21 (R=0.125)  charge=  8.9970    0.0014
     atom  22 (R=0.125)  charge=  8.9971   -0.0014
     atom  23 (R=0.074)  charge=  0.8828    0.0000

     total cpu time spent up to now is      569.2 secs

     End of self-consistent calculation

 ------ SPIN UP ------------


          k = 0.0000 0.0000 0.0000 ( 55051 PWs)   bands (ev):

   -59.4835 -59.4792 -59.4383 -59.4341 -59.4051 -59.4005 -59.3613 -59.3568
   -59.2289 -58.7539 -53.0943 -53.0370 -52.9704 -52.9136 -51.3633 -44.9047
   -44.9022 -40.3153 -40.3042 -40.2129 -40.2093 -38.4707 -26.4831 -26.4774
   -26.3989 -26.3897 -26.3024 -26.2977 -26.1788 -26.1696 -26.0539 -26.0250
   -25.9890 -25.9612 -25.9542 -25.9266 -25.9161 -25.8665 -25.8562 -25.8353
   -25.7983 -25.6685 -25.6644 -25.6535 -25.6450 -25.5915 -25.5874 -25.5689
   -25.5657 -25.5010 -25.4764 -25.4288 -22.8717 -22.6621 -22.3480 -22.2720
   -22.0102 -21.8682 -21.8452 -21.7436 -21.6277 -21.5586 -21.5419 -21.3266
   -21.1531 -21.1059 -21.0626 -21.0112 -20.9555 -20.8982 -20.4339 -20.3630
   -20.2984 -18.8783 -18.5973 -18.5243 -18.5043 -18.2909 -18.2830 -18.2623
   -18.2540 -18.2470 -18.2047 -18.0442 -18.0304 -16.8211 -16.6133 -16.4934
     2.7024   3.9277   4.2250   4.4616   4.6068   4.8257   4.8418   4.9452
     5.0337   5.2292   5.2491   5.4660   5.5984   5.8092   5.9085   5.9973
     6.0814   6.0985   6.3459   6.3476   6.4227   6.5675   6.6145   6.6407
     6.7071   6.8613   6.8944   7.0087   7.0474   7.0546   7.0759   7.1150
     7.2330   7.4581   7.4708   7.5630   7.5758   7.6167   7.6574   7.6941
     7.8737   7.9052   7.9327   8.0292   8.1794   8.2806   8.3166   8.3318
     8.4573   8.5184   8.6027   8.6178   8.6321   8.8290   8.8546   8.8570
     8.9144   8.9597   9.1873   9.2622   9.3627   9.3828   9.5708   9.6158
     9.6389   9.6444   9.6715   9.6872   9.7390   9.8871  10.0106  10.0887
    10.1450  10.2455  10.3742  10.4208  10.4283  10.5556  10.5777

 ------ SPIN DOWN ----------


          k = 0.0000 0.0000 0.0000 ( 55051 PWs)   bands (ev):

   -59.4835 -59.4798 -59.4383 -59.4347 -59.4057 -59.4005 -59.3619 -59.3568
   -59.2283 -58.7534 -53.0942 -53.0368 -52.9703 -52.9134 -51.3633 -44.9042
   -44.9020 -40.3143 -40.3057 -40.2146 -40.2082 -38.4706 -26.4833 -26.4776
   -26.3991 -26.3900 -26.3025 -26.2980 -26.1788 -26.1703 -26.0539 -26.0254
   -25.9891 -25.9612 -25.9549 -25.9271 -25.9169 -25.8666 -25.8568 -25.8351
   -25.7976 -25.6685 -25.6652 -25.6536 -25.6453 -25.5916 -25.5879 -25.5693
   -25.5660 -25.5005 -25.4759 -25.4281 -22.8714 -22.6617 -22.3480 -22.2719
   -22.0099 -21.8679 -21.8450 -21.7434 -21.6274 -21.5583 -21.5416 -21.3262
   -21.1529 -21.1057 -21.0625 -21.0110 -20.9551 -20.8979 -20.4340 -20.3630
   -20.2984 -18.8766 -18.6004 -18.5223 -18.5029 -18.2913 -18.2834 -18.2633
   -18.2551 -18.2478 -18.2064 -18.0423 -18.0328 -16.8212 -16.6129 -16.4931
     2.7028   3.9277   4.2249   4.4619   4.6081   4.8256   4.8416   4.9451
     5.0346   5.2293   5.2488   5.4661   5.5984   5.8096   5.9088   5.9973
     6.0817   6.0983   6.3459   6.3476   6.4226   6.5676   6.6138   6.6409
     6.7071   6.8612   6.8949   7.0085   7.0471   7.0548   7.0757   7.1158
     7.2324   7.4580   7.4709   7.5626   7.5761   7.6169   7.6575   7.6945
     7.8736   7.9047   7.9324   8.0288   8.1795   8.2815   8.3168   8.3303
     8.4575   8.5186   8.6021   8.6177   8.6320   8.8293   8.8542   8.8568
     8.9137   8.9596   9.1875   9.2628   9.3626   9.3824   9.5708   9.6156
     9.6387   9.6447   9.6713   9.6876   9.7395   9.8871  10.0101  10.0885
    10.1449  10.2450  10.3732  10.4206  10.4276  10.5558  10.5775

     the Fermi energy is     8.5676 ev

!    total energy              =   -2943.00591118 Ry
     estimated scf accuracy    <       0.00075727 Ry
     smearing contrib. (-TS)   =      -0.10128077 Ry
     internal energy E=F+TS    =   -2942.90463041 Ry

     total magnetization       =    -0.00 Bohr mag/cell
     absolute magnetization    =     0.05 Bohr mag/cell

     convergence has been achieved in  12 iterations

     negative rho (up, down):  9.078E-01 9.078E-01

     Forces acting on atoms (cartesian axes, Ry/au):

     atom    1 type  1   force =    -0.00995053   -0.02772771    0.01245311
     atom    2 type  1   force =    -0.12221735   -0.01735409   -0.00125435
     atom    3 type  1   force =    -0.12040823    0.01387524    0.00187895
     atom    4 type  1   force =     0.12307570   -0.01857750   -0.00274443
     atom    5 type  1   force =     0.12142901    0.01557916    0.00278265
     atom    6 type  2   force =    -0.00914113   -0.01722345    0.00423305
     atom    7 type  2   force =    -0.00921555    0.01536975   -0.00285352
     atom    8 type  3   force =    -0.13943856    0.00405641   -0.00409819
     atom    9 type  3   force =    -0.09496072    0.00330600   -0.00497508
     atom   10 type  3   force =    -0.02482911   -0.03034666   -0.05850174
     atom   11 type  3   force =    -0.02310057   -0.03636282    0.05595841
     atom   12 type  3   force =    -0.01901730    0.03514314   -0.05485305
     atom   13 type  3   force =    -0.02060764    0.02970272    0.05922167
     atom   14 type  3   force =     0.02664497   -0.03080185   -0.05665088
     atom   15 type  3   force =     0.02428627   -0.03365624    0.05270489
     atom   16 type  3   force =     0.02028440    0.03386744   -0.05130476
     atom   17 type  3   force =     0.02181169    0.02950423    0.05719784
     atom   18 type  4   force =    -0.01046415    0.02672334   -0.01527948
     atom   19 type  4   force =    -0.13618181   -0.00300895   -0.11377452
     atom   20 type  4   force =    -0.13914613    0.00590371    0.11678627
     atom   21 type  4   force =     0.13681088   -0.00424395   -0.11854024
     atom   22 type  4   force =     0.13975388    0.00650100    0.12071221
     atom   23 type  5   force =     0.26458199   -0.00022893    0.00090119
     The non-local contrib.  to forces
     atom    1 type  1   force =    -0.00675449   -0.01886951    0.03411562
     atom    2 type  1   force =    -0.24409374   -0.16487278    0.01850715
     atom    3 type  1   force =    -0.23841924    0.15930001   -0.02827194
     atom    4 type  1   force =     0.25825736   -0.16087197    0.01684928
     atom    5 type  1   force =     0.25284602    0.15551885   -0.02766157
     atom    6 type  2   force =    -0.00888286   -0.06007829   -0.07087519
     atom    7 type  2   force =    -0.01015348    0.07133083    0.06359089
     atom    8 type  3   force =    -0.26933141    0.00049679   -0.00505183
     atom    9 type  3   force =    -0.06100994    0.00127706   -0.00673915
     atom   10 type  3   force =    -0.21831640    0.00679081   -0.21141258
     atom   11 type  3   force =    -0.22265043    0.00785719    0.20098630
     atom   12 type  3   force =    -0.20421070   -0.02125848   -0.18523873
     atom   13 type  3   force =    -0.21417872   -0.00669681    0.21061924
     atom   14 type  3   force =     0.21997153    0.00358895   -0.21299995
     atom   15 type  3   force =     0.22447193    0.00884056    0.20163100
     atom   16 type  3   force =     0.20529947   -0.02032296   -0.18586430
     atom   17 type  3   force =     0.21457126   -0.00442246    0.21232418
     atom   18 type  4   force =    -0.01079249    0.06662407   -0.06878629
     atom   19 type  4   force =     0.06952316    0.00823401    0.06518363
     atom   20 type  4   force =     0.06452744   -0.00966863   -0.05926281
     atom   21 type  4   force =    -0.06653092    0.00769741    0.06774733
     atom   22 type  4   force =    -0.06204638   -0.00949116   -0.06212926
     atom   23 type  5   force =    -0.10039927    0.00003843    0.00007306
     The ionic contribution  to forces
     atom    1 type  1   force =    -0.24768728   -4.75281381   14.44854351
     atom    2 type  1   force =   -34.49625394   -6.24608621    0.77897172
     atom    3 type  1   force =   -34.47877231    6.23232259   -0.71247644
     atom    4 type  1   force =    34.30682273   -6.48352303    0.77770459
     atom    5 type  1   force =    34.28833849    6.47031599   -0.71100486
     atom    6 type  2   force =    -0.26169896   -3.72140580  -14.38243299
     atom    7 type  2   force =    -0.26172725    3.75740632   14.41618489
     atom    8 type  3   force =   -46.17661811    0.07250906   -0.06585871
     atom    9 type  3   force =    43.13987372    0.07433966   -0.06794179
     atom   10 type  3   force =   -31.09913046   -2.14726556  -23.64568899
     atom   11 type  3   force =   -30.16771256   -0.89464002   22.64765206
     atom   12 type  3   force =   -30.28327514    0.84284555  -22.69590239
     atom   13 type  3   force =   -31.07556260    2.23383566   23.62832406
     atom   14 type  3   force =    31.02319869   -2.20609484  -23.71967923
     atom   15 type  3   force =    30.09267973   -0.95295237   22.72122415
     atom   16 type  3   force =    30.20842294    0.90077631  -22.76910157
     atom   17 type  3   force =    30.99958542    2.29266377   23.70231771
     atom   18 type  4   force =    -0.24473043    4.51989144  -14.30817241
     atom   19 type  4   force =   -31.10349444    0.96129748  -26.14177245
     atom   20 type  4   force =   -31.07500870   -0.95698037   26.12018806
     atom   21 type  4   force =    30.92883452    0.95976936  -26.39908372
     atom   22 type  4   force =    30.90171665   -0.95578085   26.37685893
     atom   23 type  5   force =     5.08219928   -0.00043034    0.00114588
     The local contribution  to forces
     atom    1 type  1   force =     0.23865289    4.74152632  -14.47769677
     atom    2 type  1   force =    34.62590484    6.39124841   -0.79851957
     atom    3 type  1   force =    34.60595647   -6.37907793    0.74147965
     atom    4 type  1   force =   -34.45101056    6.61824977   -0.79761715
     atom    5 type  1   force =   -34.43039282   -6.60599229    0.73959410
     atom    6 type  2   force =     0.25390939    3.77002014   14.47040409
     atom    7 type  2   force =     0.25463231   -3.81667976  -14.49495341
     atom    8 type  3   force =    46.31974315   -0.06568849    0.06251975
     atom    9 type  3   force =   -43.16813072   -0.06929175    0.06586642
     atom   10 type  3   force =    31.30656781    2.09478393   23.81738048
     atom   11 type  3   force =    30.38820426    0.83651040  -22.81563055
     atom   12 type  3   force =    30.48882940   -0.77762442   22.84294335
     atom   13 type  3   force =    31.28543567   -2.18654461  -23.79612054
     atom   14 type  3   force =   -31.23071867    2.15175060   23.89236242
     atom   15 type  3   force =   -30.31486213    0.89627812  -22.89080122
     atom   16 type  3   force =   -30.41437443   -0.83214468   22.91814361
     atom   17 type  3   force =   -31.21156496   -2.24515194  -23.87149137
     atom   18 type  4   force =     0.23772880   -4.56005423   14.36779825
     atom   19 type  4   force =    30.90062314   -0.96696516   25.97428942
     atom   20 type  4   force =    30.87620092    0.97437556  -25.95154341
     atom   21 type  4   force =   -30.73078843   -0.96704611   26.21848085
     atom   22 type  4   force =   -30.70626482    0.97160030  -26.19670049
     atom   23 type  5   force =    -4.71589711    0.00023911   -0.00059814
     The core correction contribution to forces
     atom    1 type  1   force =     0.00101029    0.00303701   -0.00146912
     atom    2 type  1   force =    -0.01187389   -0.00152842    0.00089119
     atom    3 type  1   force =    -0.01209845    0.00233886   -0.00160463
     atom    4 type  1   force =     0.01232485   -0.00168998    0.00095563
     atom    5 type  1   force =     0.01241218    0.00249890   -0.00180161
     atom    6 type  2   force =     0.00026020    0.00266504    0.00271152
     atom    7 type  2   force =     0.00031719   -0.00324334   -0.00218326
     atom    8 type  3   force =    -0.03115632    0.00037196   -0.00058791
     atom    9 type  3   force =     0.00142157    0.00006569   -0.00046752
     atom   10 type  3   force =    -0.02220206    0.00881925   -0.01636184
     atom   11 type  3   force =    -0.02401070    0.00919111    0.01719980
     atom   12 type  3   force =    -0.02224162   -0.00912840   -0.01594391
     atom   13 type  3   force =    -0.02213579   -0.00835704    0.01690049
     atom   14 type  3   force =     0.02338999    0.00983193   -0.01468303
     atom   15 type  3   force =     0.02474635    0.01089477    0.01535657
     atom   16 type  3   force =     0.02291985   -0.01083256   -0.01398269
     atom   17 type  3   force =     0.02308354   -0.00951815    0.01513591
     atom   18 type  4   force =     0.00043112   -0.00358230    0.00332020
     atom   19 type  4   force =    -0.01027463    0.00016727   -0.00903091
     atom   20 type  4   force =    -0.01010328    0.00013478    0.00889187
     atom   21 type  4   force =     0.01034405    0.00019248   -0.00915716
     atom   22 type  4   force =     0.01019213    0.00011228    0.00901458
     atom   23 type  5   force =     0.00000000    0.00000000    0.00000000
     The Hubbard contrib.    to forces
     atom    1 type  1   force =     0.00000000    0.00000000    0.00000000
     atom    2 type  1   force =     0.00000000    0.00000000    0.00000000
     atom    3 type  1   force =     0.00000000    0.00000000    0.00000000
     atom    4 type  1   force =     0.00000000    0.00000000    0.00000000
     atom    5 type  1   force =     0.00000000    0.00000000    0.00000000
     atom    6 type  2   force =     0.00000000    0.00000000    0.00000000
     atom    7 type  2   force =     0.00000000    0.00000000    0.00000000
     atom    8 type  3   force =     0.00000000    0.00000000    0.00000000
     atom    9 type  3   force =     0.00000000    0.00000000    0.00000000
     atom   10 type  3   force =     0.00000000    0.00000000    0.00000000
     atom   11 type  3   force =     0.00000000    0.00000000    0.00000000
     atom   12 type  3   force =     0.00000000    0.00000000    0.00000000
     atom   13 type  3   force =     0.00000000    0.00000000    0.00000000
     atom   14 type  3   force =     0.00000000    0.00000000    0.00000000
     atom   15 type  3   force =     0.00000000    0.00000000    0.00000000
     atom   16 type  3   force =     0.00000000    0.00000000    0.00000000
     atom   17 type  3   force =     0.00000000    0.00000000    0.00000000
     atom   18 type  4   force =     0.00000000    0.00000000    0.00000000
     atom   19 type  4   force =     0.00000000    0.00000000    0.00000000
     atom   20 type  4   force =     0.00000000    0.00000000    0.00000000
     atom   21 type  4   force =     0.00000000    0.00000000    0.00000000
     atom   22 type  4   force =     0.00000000    0.00000000    0.00000000
     atom   23 type  5   force =     0.00000000    0.00000000    0.00000000
     The SCF correction term to forces
     atom    1 type  1   force =     0.00000000   -0.00000000    0.00000000
     atom    2 type  1   force =     0.00000000    0.00000000   -0.00000000
     atom    3 type  1   force =     0.00000000   -0.00000000    0.00000000
     atom    4 type  1   force =    -0.00000000    0.00000000   -0.00000000
     atom    5 type  1   force =    -0.00000000   -0.00000000    0.00000000
     atom    6 type  2   force =     0.00000000   -0.00000000   -0.00000000
     atom    7 type  2   force =     0.00000000    0.00000000    0.00000000
     atom    8 type  3   force =     0.00000000   -0.00000000    0.00000000
     atom    9 type  3   force =    -0.00000000   -0.00000000    0.00000000
     atom   10 type  3   force =     0.00000000    0.00000000   -0.00000000
     atom   11 type  3   force =     0.00000000    0.00000000    0.00000000
     atom   12 type  3   force =     0.00000000    0.00000000   -0.00000000
     atom   13 type  3   force =     0.00000000   -0.00000000   -0.00000000
     atom   14 type  3   force =    -0.00945294    0.01005650   -0.00171516
     atom   15 type  3   force =    -0.00300598    0.00321766    0.00523031
     atom   16 type  3   force =    -0.00223979   -0.00367369   -0.00056388
     atom   17 type  3   force =    -0.00411993   -0.00413201   -0.00115267
     atom   18 type  4   force =     0.00664249    0.00377935   -0.00950330
     atom   19 type  4   force =     0.00718460   -0.00580757   -0.00250828
     atom   20 type  4   force =     0.00498113   -0.00202264   -0.00155151
     atom   21 type  4   force =    -0.00530471   -0.00492211    0.00340837
     atom   22 type  4   force =    -0.00410008   -0.00000459   -0.00639562
     atom   23 type  5   force =    -0.00157727   -0.00014115    0.00021631

     Total force =     0.469793     Total SCF correction =     0.026274

     Molecular Dynamics Calculation

     Starting temperature  =   300.00 K

     temperature is set once at start

     mass Hf               =   178.49
     mass Nb               =    92.91
     mass Ta               =   180.95
     mass Zr               =    91.22
     mass H                =     2.01
     Time step             =    10.50 a.u.,  0.5080 femto-seconds

     Entering Dynamics:    iteration =     1
                           time      =   0.0005 pico-seconds


ATOMIC_POSITIONS (angstrom)
Hf            2.6699999570        2.8271230292        6.6039642186    0   0   0
Hf            1.2529906802        1.2862841814        5.0584662261    0   0   0
Hf            1.2554868986        7.3898042948        5.0880677674    0   0   0
Hf            4.0870092338        1.2862841814        5.0584662261    0   0   0
Hf            4.0845130154        7.3898042948        5.0880677674    0   0   0
Nb            2.6699999570        2.7969306055        3.5155832167    0   0   0
Nb            2.6699999570        5.8763786763        6.6349979432    0   0   0
Ta            1.2093730560        4.3409278516        5.0711258323    0   0   0
Ta            4.1306268580        4.3409278516        5.0711258323    0   0   0
Ta            1.3072526841        1.3141225894        2.0587791101    0   0   0
Ta            1.3027883142        1.3083911360        8.0945792024    0   0   0
Ta            1.3040096221        7.3758261241        2.0462371798    0   0   0
Ta            1.3077107984        7.3650829484        8.0860022208    0   0   0
Ta            4.0327519427        1.3141171413        2.0587690900
Ta            4.0372158954        1.3083851831        8.0945885246
Ta            4.0359938797        7.3758321144        2.0462281053
Ta            4.0322929735        7.3650881670        8.0860123377
Zr            2.6699962857        5.8662952190        3.5273785697
Zr            1.2437868408        4.3220769088        1.9999600832
Zr            1.2403365945        4.3541253558        8.1497965227
Zr            4.0962132939        4.3220764755        1.9999584112
Zr            4.0996635327        4.3541255653        8.1497979001
H             5.3862398385        4.3399963122        5.0721941159


     kinetic energy (Ekin) =           1.83717927 Ry
     temperature           =       19337.84431332 K 
     Ekin + Etot (const)   =       -2941.16873191 Ry

     File outdir/pwscf.msd.dat deleted, as requested

     Writing config-only to output data dir outdir/pwscf.save/
     NEW-OLD atomic charge density approx. for the potential

     Check: negative core charge=   -0.000002

     negative rho (up, down):  9.075E-01 9.075E-01
     Generating pointlists ...
     new r_m :   0.0621 (alat units)  0.9788 (a.u.) for type    3
     new r_m :   0.0621 (alat units)  0.9788 (a.u.) for type    5

     total cpu time spent up to now is      596.8 secs

     Self-consistent Calculation

     iteration #  1     ecut=   120.00 Ry     beta= 0.70
     Davidson diagonalization with overlap
     ethr =  1.00E-06,  avg # of iterations = 14.5

     negative rho (up, down):  9.077E-01 9.077E-01

     total cpu time spent up to now is      689.7 secs

     total energy              =   -2942.77225425 Ry
     estimated scf accuracy    <       0.08122684 Ry

     total magnetization       =    -0.00 Bohr mag/cell
     absolute magnetization    =     0.04 Bohr mag/cell

     iteration #  2     ecut=   120.00 Ry     beta= 0.70
     Davidson diagonalization with overlap
     ethr =  2.93E-05,  avg # of iterations =  3.0

     negative rho (up, down):  9.075E-01 9.075E-01

     total cpu time spent up to now is      734.7 secs

     total energy              =   -2942.78395298 Ry
     estimated scf accuracy    <       0.01869180 Ry

     total magnetization       =    -0.00 Bohr mag/cell
     absolute magnetization    =     0.04 Bohr mag/cell

     iteration #  3     ecut=   120.00 Ry     beta= 0.70
     Davidson diagonalization with overlap
     ethr =  6.75E-06,  avg # of iterations =  2.0

     negative rho (up, down):  9.073E-01 9.073E-01

     total cpu time spent up to now is      781.4 secs

     total energy              =   -2942.78480879 Ry
     estimated scf accuracy    <       0.00261457 Ry

     total magnetization       =    -0.00 Bohr mag/cell
     absolute magnetization    =     0.04 Bohr mag/cell

     iteration #  4     ecut=   120.00 Ry     beta= 0.70
     Davidson diagonalization with overlap
     ethr =  9.44E-07,  avg # of iterations = 12.0

     negative rho (up, down):  9.072E-01 9.072E-01

     Magnetic moment per site  (integrated on atomic sphere of radius R)
     atom   1 (R=0.125)  charge=  9.4631    0.0000
     atom   2 (R=0.125)  charge=  9.0581    0.0000
     atom   3 (R=0.125)  charge=  9.0586   -0.0000
     atom   4 (R=0.125)  charge=  9.0545    0.0001
     atom   5 (R=0.125)  charge=  9.0551   -0.0001
     atom   6 (R=0.123)  charge= 10.3510   -0.0001
     atom   7 (R=0.123)  charge= 10.3506    0.0000
     atom   8 (R=0.062)  charge=  3.2836    0.0000
     atom   9 (R=0.062)  charge=  3.3093    0.0000
     atom  10 (R=0.062)  charge=  3.2710    0.0001
     atom  11 (R=0.062)  charge=  3.2691    0.0000
     atom  12 (R=0.062)  charge=  3.2696   -0.0001
     atom  13 (R=0.062)  charge=  3.2702   -0.0001
     atom  14 (R=0.062)  charge=  3.2708    0.0001
     atom  15 (R=0.062)  charge=  3.2694    0.0000
     atom  16 (R=0.062)  charge=  3.2693   -0.0001
     atom  17 (R=0.062)  charge=  3.2700   -0.0001
     atom  18 (R=0.125)  charge=  9.4564   -0.0000
     atom  19 (R=0.125)  charge=  9.0026    0.0012
     atom  20 (R=0.125)  charge=  8.9983   -0.0012
     atom  21 (R=0.125)  charge=  8.9982    0.0011
     atom  22 (R=0.125)  charge=  8.9943   -0.0010
     atom  23 (R=0.062)  charge=  0.8344    0.0000

     total cpu time spent up to now is      835.9 secs

     End of self-consistent calculation

 ------ SPIN UP ------------


          k = 0.0000 0.0000 0.0000 ( 55051 PWs)   bands (ev):

   -59.4979 -59.4823 -59.4525 -59.4368 -59.4196 -59.4008 -59.3757 -59.3570
   -59.2412 -58.6839 -53.0958 -53.0467 -52.9718 -52.9230 -51.3932 -44.9380
   -44.9233 -40.3264 -40.3049 -40.2228 -40.2171 -38.4967 -26.4998 -26.4836
   -26.4139 -26.3934 -26.3215 -26.3049 -26.1870 -26.1846 -26.1682 -26.0403
   -26.0212 -25.9775 -25.9612 -25.9388 -25.9248 -25.8783 -25.8647 -25.8414
   -25.8085 -25.8053 -25.6822 -25.6675 -25.6591 -25.6558 -25.6014 -25.5937
   -25.5821 -25.5679 -25.3833 -25.3065 -22.8786 -22.6675 -22.3612 -22.2799
   -22.0198 -21.8789 -21.8553 -21.7552 -21.6367 -21.5661 -21.5483 -21.3329
   -21.1834 -21.1298 -21.0815 -21.0309 -20.9733 -20.9164 -20.4568 -20.3855
   -20.3279 -18.8895 -18.6010 -18.5335 -18.5188 -18.3007 -18.2872 -18.2759
   -18.2658 -18.2511 -18.2118 -18.0543 -18.0330 -16.8498 -16.6353 -16.5155
     2.6220   3.5982   4.2120   4.4492   4.5959   4.8117   4.8241   4.9148
     5.0129   5.2135   5.2352   5.4746   5.5858   5.7861   5.8967   5.9833
     6.0582   6.1092   6.3310   6.3338   6.4129   6.5556   6.6053   6.6271
     6.7026   6.8467   6.8719   6.9961   7.0413   7.0521   7.0600   7.1173
     7.2217   7.4501   7.4609   7.5514   7.5666   7.6249   7.6522   7.6796
     7.8801   7.9200   7.9465   8.0190   8.1744   8.2691   8.3118   8.3226
     8.4402   8.5107   8.5933   8.6080   8.6164   8.8203   8.8433   8.8593
     8.9051   8.9461   9.1790   9.2372   9.3497   9.3771   9.5624   9.5906
     9.6291   9.6344   9.6589   9.6632   9.7320   9.8815  10.0064  10.0999
    10.1280  10.2476  10.3271  10.4094  10.4159  10.5516  10.5740

 ------ SPIN DOWN ----------


          k = 0.0000 0.0000 0.0000 ( 55051 PWs)   bands (ev):

   -59.4977 -59.4826 -59.4523 -59.4371 -59.4199 -59.4008 -59.3759 -59.3570
   -59.2411 -58.6839 -53.0958 -53.0467 -52.9717 -52.9230 -51.3931 -44.9381
   -44.9233 -40.3254 -40.3060 -40.2218 -40.2182 -38.4967 -26.4998 -26.4838
   -26.4139 -26.3936 -26.3213 -26.3051 -26.1872 -26.1847 -26.1681 -26.0401
   -26.0215 -25.9772 -25.9616 -25.9391 -25.9249 -25.8785 -25.8647 -25.8413
   -25.8084 -25.8051 -25.6819 -25.6679 -25.6592 -25.6559 -25.6015 -25.5938
   -25.5822 -25.5680 -25.3833 -25.3065 -22.8786 -22.6675 -22.3612 -22.2799
   -22.0197 -21.8789 -21.8553 -21.7552 -21.6367 -21.5662 -21.5483 -21.3329
   -21.1834 -21.1299 -21.0816 -21.0309 -20.9733 -20.9164 -20.4569 -20.3855
   -20.3279 -18.8882 -18.6030 -18.5321 -18.5174 -18.3004 -18.2876 -18.2756
   -18.2663 -18.2521 -18.2128 -18.0526 -18.0346 -16.8498 -16.6352 -16.5153
     2.6220   3.5982   4.2120   4.4492   4.5960   4.8116   4.8240   4.9147
     5.0131   5.2135   5.2351   5.4746   5.5858   5.7860   5.8966   5.9832
     6.0583   6.1090   6.3309   6.3338   6.4130   6.5558   6.6050   6.6270
     6.7025   6.8466   6.8718   6.9959   7.0413   7.0521   7.0599   7.1174
     7.2216   7.4500   7.4609   7.5514   7.5666   7.6249   7.6522   7.6795
     7.8800   7.9199   7.9464   8.0188   8.1744   8.2696   8.3118   8.3220
     8.4402   8.5106   8.5930   8.6078   8.6163   8.8205   8.8432   8.8587
     8.9048   8.9463   9.1790   9.2373   9.3497   9.3770   9.5622   9.5906
     9.6289   9.6344   9.6590   9.6631   9.7320   9.8814  10.0063  10.0998
    10.1279  10.2476  10.3269  10.4093  10.4156  10.5516  10.5738

     the Fermi energy is     8.5576 ev

!    total energy              =   -2942.78467688 Ry
     estimated scf accuracy    <       0.00067165 Ry
     smearing contrib. (-TS)   =      -0.10124669 Ry
     internal energy E=F+TS    =   -2942.68343019 Ry

     total magnetization       =    -0.00 Bohr mag/cell
     absolute magnetization    =     0.03 Bohr mag/cell

     convergence has been achieved in   4 iterations

     negative rho (up, down):  9.072E-01 9.072E-01

     Forces acting on atoms (cartesian axes, Ry/au):

     atom    1 type  1   force =    -0.00671426   -0.02632041    0.01274416
     atom    2 type  1   force =    -0.11964350   -0.01689881   -0.00514585
     atom    3 type  1   force =    -0.11814364    0.01426204   -0.00099711
     atom    4 type  1   force =     0.12007639   -0.01563479   -0.00638122
     atom    5 type  1   force =     0.11885040    0.01319816    0.00017445
     atom    6 type  2   force =    -0.00691851   -0.01887585    0.00242295
     atom    7 type  2   force =    -0.00696480    0.01638659    0.00008126
     atom    8 type  3   force =    -0.14026699    0.00323525   -0.00389650
     atom    9 type  3   force =    -0.60449835    0.00302877   -0.00542608
     atom   10 type  3   force =    -0.02370572   -0.03016069   -0.05850388
     atom   11 type  3   force =    -0.02428473   -0.03399832    0.05886426
     atom   12 type  3   force =    -0.01813739    0.03545297   -0.05387746
     atom   13 type  3   force =    -0.02124131    0.02763323    0.06066167
     atom   14 type  3   force =     0.02496205   -0.02959225   -0.05684794
     atom   15 type  3   force =     0.02504893   -0.03164047    0.05592823
     atom   16 type  3   force =     0.01922107    0.03349941   -0.05089817
     atom   17 type  3   force =     0.02225810    0.02675895    0.05916182
     atom   18 type  4   force =    -0.00721965    0.02905461   -0.01861890
     atom   19 type  4   force =    -0.13490868   -0.00426226   -0.11298305
     atom   20 type  4   force =    -0.13967165    0.00489675    0.11722198
     atom   21 type  4   force =     0.13458386   -0.00528182   -0.11581092
     atom   22 type  4   force =     0.13948413    0.00603561    0.11945113
     atom   23 type  5   force =     0.76783423   -0.00077666    0.00267519
     The non-local contrib.  to forces
     atom    1 type  1   force =    -0.00417001   -0.01482717    0.03121188
     atom    2 type  1   force =    -0.24497491   -0.16225538    0.01614061
     atom    3 type  1   force =    -0.23967955    0.15737808   -0.03028654
     atom    4 type  1   force =     0.25588833   -0.15756016    0.01491201
     atom    5 type  1   force =     0.25111109    0.15284023   -0.02970630
     atom    6 type  2   force =    -0.00999794   -0.06028106   -0.07110736
     atom    7 type  2   force =    -0.01128135    0.07216447    0.06434994
     atom    8 type  3   force =    -0.24235706   -0.00030376   -0.00557004
     atom    9 type  3   force =     0.16096255    0.00049465   -0.00694300
     atom   10 type  3   force =    -0.21574568    0.00691939   -0.21428743
     atom   11 type  3   force =    -0.22299599    0.00983583    0.20495959
     atom   12 type  3   force =    -0.20259413   -0.02199101   -0.18704304
     atom   13 type  3   force =    -0.21296082   -0.00823661    0.21397258
     atom   14 type  3   force =     0.21714690    0.00494455   -0.21538812
     atom   15 type  3   force =     0.22512804    0.01039382    0.20535463
     atom   16 type  3   force =     0.20455689   -0.02169472   -0.18780603
     atom   17 type  3   force =     0.21340595   -0.00672178    0.21560910
     atom   18 type  4   force =    -0.01052991    0.06797802   -0.07212784
     atom   19 type  4   force =     0.07153039    0.00754407    0.06673025
     atom   20 type  4   force =     0.06488596   -0.01040190   -0.06027903
     atom   21 type  4   force =    -0.06926939    0.00705107    0.06892649
     atom   22 type  4   force =    -0.06341049   -0.00958488   -0.06270782
     atom   23 type  5   force =    -0.15972317    0.00005451    0.00016736
     The ionic contribution  to forces
     atom    1 type  1   force =    -0.29851692   -4.78278167   14.48067211
     atom    2 type  1   force =   -34.52668199   -6.24456218    0.77899031
     atom    3 type  1   force =   -34.50928334    6.23085541   -0.71243042
     atom    4 type  1   force =    34.31795936   -6.52569728    0.77749323
     atom    5 type  1   force =    34.29939924    6.51268580   -0.71072732
     atom    6 type  2   force =    -0.31487538   -3.75323417  -14.41649071
     atom    7 type  2   force =    -0.31492009    3.78912970   14.45036435
     atom    8 type  3   force =   -46.28092340    0.07251637   -0.06588036
     atom    9 type  3   force =    41.74056957    0.07580726   -0.06965519
     atom   10 type  3   force =   -31.11365106   -2.14699773  -23.64512361
     atom   11 type  3   force =   -30.18214443   -0.89434913   22.64705741
     atom   12 type  3   force =   -30.29775305    0.84264109  -22.69539849
     atom   13 type  3   force =   -31.09008753    2.23360288   23.62775168
     atom   14 type  3   force =    31.02898138   -2.21438854  -23.72970647
     atom   15 type  3   force =    30.09849719   -0.96114206   22.73115258
     atom   16 type  3   force =    30.21429029    0.90894861  -22.77902878
     atom   17 type  3   force =    31.00535436    2.30099742   23.71234901
     atom   18 type  4   force =    -0.29474473    4.54936819  -14.33987544
     atom   19 type  4   force =   -31.13050534    0.96124265  -26.13869531
     atom   20 type  4   force =   -31.10191716   -0.95697700   26.11704603
     atom   21 type  4   force =    30.93836962    0.95948366  -26.44181637
     atom   22 type  4   force =    30.91136048   -0.95556757   26.41934742
     atom   23 type  5   force =     6.90122294   -0.00158173    0.00260433
     The local contribution  to forces
     atom    1 type  1   force =     0.29298800    4.77349698  -14.51172271
     atom    2 type  1   force =    34.66750163    6.38805176   -0.81485272
     atom    3 type  1   force =    34.64658015   -6.37325286    0.72869150
     atom    4 type  1   force =   -34.47364701    6.67121069   -0.81359504
     atom    5 type  1   force =   -34.45161430   -6.65673700    0.72792774
     atom    6 type  2   force =     0.31493391    3.79135091   14.47824705
     atom    7 type  2   force =     0.31627528   -3.84776207  -14.53011316
     atom    8 type  3   force =    46.42584879   -0.06919975    0.05473343
     atom    9 type  3   force =   -42.53971606   -0.07344725    0.05866634
     atom   10 type  3   force =    31.32800536    2.09445855   23.81545564
     atom   11 type  3   force =    30.39568361    0.84595403  -22.80491860
     atom   12 type  3   force =    30.50615072   -0.77111121   22.84561724
     atom   13 type  3   force =    31.29430167   -2.19318004  -23.79437567
     atom   14 type  3   force =   -31.24921288    2.16261412   23.90066657
     atom   15 type  3   force =   -30.31910391    0.91158596  -22.88986599
     atom   16 type  3   force =   -30.42894129   -0.83694360   22.93014798
     atom   17 type  3   force =   -31.21420138   -2.26124626  -23.87942082
     atom   18 type  4   force =     0.29493539   -4.58152570   14.37995016
     atom   19 type  4   force =    30.93436812   -0.97246927   25.96763983
     atom   20 type  4   force =    30.90068069    0.97129118  -25.94439423
     atom   21 type  4   force =   -30.75001277   -0.97138334   26.26953507
     atom   22 type  4   force =   -30.71676918    0.97078821  -26.24590920
     atom   23 type  5   force =    -5.98036006    0.00077508   -0.00187038
     The core correction contribution to forces
     atom    1 type  1   force =     0.00115293    0.00355556   -0.00185238
     atom    2 type  1   force =    -0.01194022   -0.00126261    0.00089969
     atom    3 type  1   force =    -0.01216504    0.00212477   -0.00154927
     atom    4 type  1   force =     0.01230106   -0.00138627    0.00101967
     atom    5 type  1   force =     0.01243435    0.00223534   -0.00176812
     atom    6 type  2   force =     0.00039727    0.00269956    0.00277144
     atom    7 type  2   force =     0.00045150   -0.00333075   -0.00226716
     atom    8 type  3   force =    -0.02960174    0.00037330   -0.00061580
     atom    9 type  3   force =     0.00976511    0.00001139   -0.00042473
     atom   10 type  3   force =    -0.02189159    0.00891273   -0.01648824
     atom   11 type  3   force =    -0.02373566    0.00940604    0.01728402
     atom   12 type  3   force =    -0.02183572   -0.00933786   -0.01603078
     atom   13 type  3   force =    -0.02180717   -0.00854596    0.01705020
     atom   14 type  3   force =     0.02320006    0.00972743   -0.01502436
     atom   15 type  3   force =     0.02459027    0.01081528    0.01565648
     atom   16 type  3   force =     0.02268650   -0.01073407   -0.01433944
     atom   17 type  3   force =     0.02287254   -0.00947707    0.01554274
     atom   18 type  4   force =     0.00051292   -0.00361582    0.00343879
     atom   19 type  4   force =    -0.01028748    0.00017308   -0.00919805
     atom   20 type  4   force =    -0.01008980    0.00014843    0.00897491
     atom   21 type  4   force =     0.01033754    0.00020574   -0.00923184
     atom   22 type  4   force =     0.01018562    0.00010585    0.00901013
     atom   23 type  5   force =     0.00000000    0.00000000    0.00000000
     The Hubbard contrib.    to forces
     atom    1 type  1   force =     0.00000000    0.00000000    0.00000000
     atom    2 type  1   force =     0.00000000    0.00000000    0.00000000
     atom    3 type  1   force =     0.00000000    0.00000000    0.00000000
     atom    4 type  1   force =     0.00000000    0.00000000    0.00000000
     atom    5 type  1   force =     0.00000000    0.00000000    0.00000000
     atom    6 type  2   force =     0.00000000    0.00000000    0.00000000
     atom    7 type  2   force =     0.00000000    0.00000000    0.00000000
     atom    8 type  3   force =     0.00000000    0.00000000    0.00000000
     atom    9 type  3   force =     0.00000000    0.00000000    0.00000000
     atom   10 type  3   force =     0.00000000    0.00000000    0.00000000
     atom   11 type  3   force =     0.00000000    0.00000000    0.00000000
     atom   12 type  3   force =     0.00000000    0.00000000    0.00000000
     atom   13 type  3   force =     0.00000000    0.00000000    0.00000000
     atom   14 type  3   force =     0.00000000    0.00000000    0.00000000
     atom   15 type  3   force =     0.00000000    0.00000000    0.00000000
     atom   16 type  3   force =     0.00000000    0.00000000    0.00000000
     atom   17 type  3   force =     0.00000000    0.00000000    0.00000000
     atom   18 type  4   force =     0.00000000    0.00000000    0.00000000
     atom   19 type  4   force =     0.00000000    0.00000000    0.00000000
     atom   20 type  4   force =     0.00000000    0.00000000    0.00000000
     atom   21 type  4   force =     0.00000000    0.00000000    0.00000000
     atom   22 type  4   force =     0.00000000    0.00000000    0.00000000
     atom   23 type  5   force =     0.00000000    0.00000000    0.00000000
     The SCF correction term to forces
     atom    1 type  1   force =     0.00000000   -0.00000000    0.00000000
     atom    2 type  1   force =    -0.00000000    0.00000000    0.00000000
     atom    3 type  1   force =    -0.00000000   -0.00000000    0.00000000
     atom    4 type  1   force =     0.00000000   -0.00000000    0.00000000
     atom    5 type  1   force =     0.00000000    0.00000000    0.00000000
     atom    6 type  2   force =     0.00000000    0.00000000    0.00000000
     atom    7 type  2   force =     0.00000000    0.00000000    0.00000000
     atom    8 type  3   force =    -0.00000000   -0.00000000    0.00000000
     atom    9 type  3   force =     0.00000000    0.00000000    0.00000000
     atom   10 type  3   force =    -0.00000000    0.00000000    0.00000000
     atom   11 type  3   force =     0.00000000   -0.00000000   -0.00000000
     atom   12 type  3   force =    -0.00000000   -0.00000000   -0.00000000
     atom   13 type  3   force =     0.00000000    0.00000000   -0.00000000
     atom   14 type  3   force =     0.00436664    0.00756031    0.00153018
     atom   15 type  3   force =    -0.00454261   -0.00324334   -0.00744373
     atom   16 type  3   force =     0.00614871   -0.00602669   -0.00094616
     atom   17 type  3   force =    -0.00565332    0.00325676   -0.00599247
     atom   18 type  4   force =     0.00212671   -0.00309995    0.00892117
     atom   19 type  4   force =    -0.00049432   -0.00070265   -0.00053402
     atom   20 type  4   force =     0.00628871    0.00088617   -0.00519997
     atom   21 type  4   force =     0.00467891   -0.00058882   -0.00429853
     atom   22 type  4   force =    -0.00236226    0.00034413   -0.00136366
     atom   23 type  5   force =     0.00621456    0.00002560    0.00069963

     Total force =     0.859460     Total SCF correction =     0.023836

     Entering Dynamics:    iteration =     2
                           time      =   0.0010 pico-seconds


ATOMIC_POSITIONS (angstrom)
Hf            2.6699999570        2.8271230292        6.6039642186    0   0   0
Hf            1.2529906802        1.2862841814        5.0584662261    0   0   0
Hf            1.2554868986        7.3898042948        5.0880677674    0   0   0
Hf            4.0870092338        1.2862841814        5.0584662261    0   0   0
Hf            4.0845130154        7.3898042948        5.0880677674    0   0   0
Nb            2.6699999570        2.7969306055        3.5155832167    0   0   0
Nb            2.6699999570        5.8763786763        6.6349979432    0   0   0
Ta            1.2093730560        4.3409278516        5.0711258323    0   0   0
Ta            4.1306268580        4.3409278516        5.0711258323    0   0   0
Ta            1.3072526841        1.3141225894        2.0587791101    0   0   0
Ta            1.3027883142        1.3083911360        8.0945792024    0   0   0
Ta            1.3040096221        7.3758261241        2.0462371798    0   0   0
Ta            1.3077107984        7.3650829484        8.0860022208    0   0   0
Ta            4.0327654859        1.3141012250        2.0587389599
Ta            4.0372290521        1.3083680373        8.0946176313
Ta            4.0360042669        7.3758499551        2.0462010255
Ta            4.0323047053        7.3651028515        8.0860433830
Zr            2.6699875486        5.8663249818        3.5273601445
Zr            1.2436443996        4.3220728624        1.9998408882
Zr            1.2401897712        4.3541308630        8.1499197487
Zr            4.0963557279        4.3220712804        1.9998355599
Zr            4.0998104377        4.3541320812        8.1499240677
H             5.1662566286        4.3399679898        5.0722934617


     kinetic energy (Ekin) =           1.60277585 Ry
     temperature           =       16870.55284041 K 
     Ekin + Etot (const)   =       -2941.18190103 Ry

     Writing config-only to output data dir outdir/pwscf.save/
     NEW-OLD atomic charge density approx. for the potential

     Check: negative core charge=   -0.000002

     negative rho (up, down):  9.067E-01 9.067E-01
     Generating pointlists ...
     new r_m :   0.0512 (alat units)  0.8073 (a.u.) for type    3
     new r_m :   0.0512 (alat units)  0.8073 (a.u.) for type    5

     total cpu time spent up to now is      863.7 secs

     Self-consistent Calculation

     iteration #  1     ecut=   120.00 Ry     beta= 0.70
     Davidson diagonalization with overlap
     ethr =  1.00E-06,  avg # of iterations = 20.0

     negative rho (up, down):  9.070E-01 9.070E-01

     total cpu time spent up to now is      958.9 secs

     total energy              =   -2942.23732903 Ry
     estimated scf accuracy    <       0.18993368 Ry

     total magnetization       =    -0.00 Bohr mag/cell
     absolute magnetization    =     0.03 Bohr mag/cell

     iteration #  2     ecut=   120.00 Ry     beta= 0.70
     Davidson diagonalization with overlap
     ethr =  6.86E-05,  avg # of iterations =  2.0

     negative rho (up, down):  9.069E-01 9.069E-01

     total cpu time spent up to now is     1002.8 secs

     total energy              =   -2942.25677989 Ry
     estimated scf accuracy    <       0.09676540 Ry

     total magnetization       =    -0.00 Bohr mag/cell
     absolute magnetization    =     0.03 Bohr mag/cell

     iteration #  3     ecut=   120.00 Ry     beta= 0.70
     Davidson diagonalization with overlap
     ethr =  3.49E-05,  avg # of iterations =  1.0

     negative rho (up, down):  9.067E-01 9.067E-01

     total cpu time spent up to now is     1036.8 secs

     total energy              =   -2942.26123440 Ry
     estimated scf accuracy    <       0.00575927 Ry

     total magnetization       =    -0.00 Bohr mag/cell
     absolute magnetization    =     0.02 Bohr mag/cell

     iteration #  4     ecut=   120.00 Ry     beta= 0.70
     Davidson diagonalization with overlap
     ethr =  2.08E-06,  avg # of iterations = 15.0

     negative rho (up, down):  9.066E-01 9.066E-01

     Magnetic moment per site  (integrated on atomic sphere of radius R)
     atom   1 (R=0.125)  charge=  9.4622    0.0000
     atom   2 (R=0.125)  charge=  9.0576   -0.0000
     atom   3 (R=0.125)  charge=  9.0584   -0.0000
     atom   4 (R=0.125)  charge=  9.0541    0.0001
     atom   5 (R=0.125)  charge=  9.0551   -0.0001
     atom   6 (R=0.123)  charge= 10.3504   -0.0001
     atom   7 (R=0.123)  charge= 10.3498    0.0000
     atom   8 (R=0.051)  charge=  1.5802    0.0000
     atom   9 (R=0.051)  charge=  1.5973    0.0000
     atom  10 (R=0.051)  charge=  1.5753    0.0000
     atom  11 (R=0.051)  charge=  1.5742    0.0000
     atom  12 (R=0.051)  charge=  1.5743   -0.0000
     atom  13 (R=0.051)  charge=  1.5750   -0.0000
     atom  14 (R=0.051)  charge=  1.5755    0.0000
     atom  15 (R=0.051)  charge=  1.5738    0.0000
     atom  16 (R=0.051)  charge=  1.5744   -0.0000
     atom  17 (R=0.051)  charge=  1.5748   -0.0000
     atom  18 (R=0.125)  charge=  9.4545   -0.0000
     atom  19 (R=0.125)  charge=  8.9999    0.0009
     atom  20 (R=0.125)  charge=  8.9985   -0.0009
     atom  21 (R=0.125)  charge=  8.9971    0.0008
     atom  22 (R=0.125)  charge=  8.9952   -0.0008
     atom  23 (R=0.051)  charge=  0.7755    0.0000

     total cpu time spent up to now is     1079.5 secs

     End of self-consistent calculation

 ------ SPIN UP ------------


          k = 0.0000 0.0000 0.0000 ( 55051 PWs)   bands (ev):

   -59.5068 -59.4992 -59.4606 -59.4528 -59.4257 -59.4179 -59.3812 -59.3733
   -59.3145 -58.9663 -53.0912 -53.0446 -52.9670 -52.9208 -51.4176 -44.9584
   -44.9346 -40.3294 -40.3107 -40.2254 -40.2237 -38.5209 -27.3655 -26.5011
   -26.4959 -26.4189 -26.4085 -26.3183 -26.3149 -26.1954 -26.1866 -26.0685
   -26.0499 -26.0237 -25.9859 -25.9761 -25.9546 -25.9382 -25.9035 -25.8788
   -25.8676 -25.8616 -25.6885 -25.6823 -25.6716 -25.6648 -25.6089 -25.6061
   -25.5864 -25.5827 -25.3347 -25.2551 -22.8793 -22.6668 -22.3641 -22.2778
   -22.0211 -21.8807 -21.8558 -21.7574 -21.6380 -21.5633 -21.5474 -21.3294
   -21.2054 -21.1436 -21.0900 -21.0407 -20.9814 -20.9251 -20.4746 -20.4040
   -20.3510 -18.8928 -18.6052 -18.5375 -18.5216 -18.3052 -18.2939 -18.2802
   -18.2731 -18.2576 -18.2200 -18.0546 -18.0373 -16.8743 -16.6545 -16.5342
     2.6010   3.4326   4.2093   4.4462   4.5894   4.7940   4.8178   4.8885
     4.9922   5.1962   5.2284   5.4836   5.5780   5.7826   5.9179   5.9761
     6.0446   6.1599   6.3184   6.3294   6.4175   6.5503   6.6019   6.6134
     6.7095   6.8321   6.8434   6.9851   7.0404   7.0513   7.0568   7.1221
     7.2154   7.4411   7.4503   7.5479   7.5609   7.6319   7.6513   7.6722
     7.8571   7.9071   8.0103   8.0532   8.1681   8.2647   8.3057   8.3303
     8.4348   8.5131   8.5912   8.6033   8.6108   8.8119   8.8407   8.8867
     8.8970   8.9327   9.1765   9.1937   9.3400   9.3735   9.5506   9.5526
     9.5988   9.6257   9.6398   9.6577   9.7254   9.8808  10.0036  10.1011
    10.1134  10.2454  10.2671  10.4058  10.4104  10.5484  10.5783

 ------ SPIN DOWN ----------


          k = 0.0000 0.0000 0.0000 ( 55051 PWs)   bands (ev):

   -59.5066 -59.4995 -59.4605 -59.4531 -59.4259 -59.4179 -59.3813 -59.3733
   -59.3144 -58.9663 -53.0913 -53.0446 -52.9670 -52.9208 -51.4176 -44.9585
   -44.9346 -40.3287 -40.3116 -40.2251 -40.2241 -38.5209 -27.3654 -26.5011
   -26.4961 -26.4189 -26.4087 -26.3180 -26.3152 -26.1954 -26.1869 -26.0684
   -26.0499 -26.0237 -25.9857 -25.9764 -25.9547 -25.9383 -25.9034 -25.8790
   -25.8676 -25.8615 -25.6883 -25.6826 -25.6717 -25.6649 -25.6090 -25.6062
   -25.5865 -25.5828 -25.3347 -25.2551 -22.8793 -22.6668 -22.3641 -22.2779
   -22.0211 -21.8807 -21.8558 -21.7574 -21.6380 -21.5633 -21.5474 -21.3294
   -21.2054 -21.1436 -21.0901 -21.0407 -20.9814 -20.9252 -20.4746 -20.4040
   -20.3510 -18.8919 -18.6067 -18.5365 -18.5205 -18.3050 -18.2943 -18.2802
   -18.2733 -18.2583 -18.2208 -18.0534 -18.0385 -16.8744 -16.6545 -16.5341
     2.6010   3.4327   4.2092   4.4462   4.5894   4.7938   4.8177   4.8884
     4.9923   5.1962   5.2283   5.4835   5.5780   5.7825   5.9179   5.9760
     6.0446   6.1598   6.3183   6.3294   6.4176   6.5504   6.6017   6.6133
     6.7095   6.8321   6.8433   6.9849   7.0405   7.0512   7.0567   7.1221
     7.2153   7.4410   7.4502   7.5478   7.5609   7.6318   7.6513   7.6721
     7.8570   7.9071   8.0101   8.0532   8.1681   8.2649   8.3057   8.3299
     8.4348   8.5129   8.5910   8.6031   8.6106   8.8119   8.8405   8.8863
     8.8968   8.9329   9.1766   9.1937   9.3399   9.3734   9.5506   9.5524
     9.5987   9.6256   9.6398   9.6576   9.7254   9.8807  10.0035  10.1011
    10.1132  10.2454  10.2671  10.4058  10.4101  10.5484  10.5782

     the Fermi energy is     8.5558 ev

!    total energy              =   -2942.26115802 Ry
     estimated scf accuracy    <       0.00093075 Ry
     smearing contrib. (-TS)   =      -0.10165772 Ry
     internal energy E=F+TS    =   -2942.15950029 Ry

     total magnetization       =    -0.00 Bohr mag/cell
     absolute magnetization    =     0.02 Bohr mag/cell

     convergence has been achieved in   4 iterations

     negative rho (up, down):  9.066E-01 9.066E-01

     Forces acting on atoms (cartesian axes, Ry/au):

     atom    1 type  1   force =    -0.00513923   -0.03248831    0.02035760
     atom    2 type  1   force =    -0.12306247   -0.01490475    0.00376403
     atom    3 type  1   force =    -0.12170771    0.01279228    0.00839697
     atom    4 type  1   force =     0.12427743   -0.01781158    0.00279010
     atom    5 type  1   force =     0.12296808    0.01564675    0.00920893
     atom    6 type  2   force =    -0.00353581   -0.02072840   -0.00171723
     atom    7 type  2   force =    -0.00335946    0.01887400    0.00056700
     atom    8 type  3   force =    -0.14039909    0.00375686   -0.00223411
     atom    9 type  3   force =    -1.78637341    0.00417565   -0.00558558
     atom   10 type  3   force =    -0.02467682   -0.02781353   -0.05968839
     atom   11 type  3   force =    -0.02348421   -0.03452433    0.05282892
     atom   12 type  3   force =    -0.01966015    0.03368651   -0.05611375
     atom   13 type  3   force =    -0.02034114    0.02855105    0.05517919
     atom   14 type  3   force =     0.02611554   -0.02601441   -0.05819264
     atom   15 type  3   force =     0.02457247   -0.03140433    0.05031769
     atom   16 type  3   force =     0.02142650    0.03071589   -0.05320940
     atom   17 type  3   force =     0.02127341    0.02672267    0.05377615
     atom   18 type  4   force =    -0.00478480    0.03030064   -0.02030976
     atom   19 type  4   force =    -0.13636067   -0.00438219   -0.11472448
     atom   20 type  4   force =    -0.14127747    0.00544585    0.11366576
     atom   21 type  4   force =     0.13633611   -0.00516502   -0.11957850
     atom   22 type  4   force =     0.14144659    0.00618559    0.11793027
     atom   23 type  5   force =     1.93574631   -0.00161687    0.00257124
     The non-local contrib.  to forces
     atom    1 type  1   force =    -0.00465664   -0.01408781    0.03238397
     atom    2 type  1   force =    -0.24731044   -0.16034443    0.02178197
     atom    3 type  1   force =    -0.24223051    0.15578216   -0.02445369
     atom    4 type  1   force =     0.25456398   -0.15889057    0.02080915
     atom    5 type  1   force =     0.24998584    0.15405845   -0.02385333
     atom    6 type  2   force =    -0.01146407   -0.06243207   -0.07175775
     atom    7 type  2   force =    -0.01285812    0.07446038    0.06621945
     atom    8 type  3   force =    -0.21501365   -0.00048811   -0.00164382
     atom    9 type  3   force =     0.80934392   -0.00050259   -0.00310438
     atom   10 type  3   force =    -0.21730960    0.00853626   -0.21468805
     atom   11 type  3   force =    -0.22333580    0.00953091    0.20183794
     atom   12 type  3   force =    -0.20580905   -0.02431854   -0.18812189
     atom   13 type  3   force =    -0.21142453   -0.00707914    0.21138089
     atom   14 type  3   force =     0.21892546    0.00627082   -0.21614315
     atom   15 type  3   force =     0.22603834    0.00924643    0.20266770
     atom   16 type  3   force =     0.20905084   -0.02322234   -0.18885547
     atom   17 type  3   force =     0.21165065   -0.00524380    0.21319060
     atom   18 type  4   force =    -0.01115482    0.07046791   -0.07250068
     atom   19 type  4   force =     0.07179611    0.00740349    0.06554784
     atom   20 type  4   force =     0.06557569   -0.01055046   -0.06088651
     atom   21 type  4   force =    -0.07020735    0.00735041    0.06607334
     atom   22 type  4   force =    -0.06444867   -0.01003561   -0.06157539
     atom   23 type  5   force =    -0.20157297    0.00012333    0.00012731
     The ionic contribution  to forces
     atom    1 type  1   force =    -0.34337690   -4.81517021   14.51748374
     atom    2 type  1   force =   -34.55363003   -6.24614473    0.77901368
     atom    3 type  1   force =   -34.53633928    6.23252116   -0.71225587
     atom    4 type  1   force =    34.33575613   -6.56236304    0.77732003
     atom    5 type  1   force =    34.31719945    6.54950938   -0.71041466
     atom    6 type  2   force =    -0.36148730   -3.78739529  -14.45530511
     atom    7 type  2   force =    -0.36157960    3.82323192   14.48929625
     atom    8 type  3   force =   -46.37337429    0.07258418   -0.06598238
     atom    9 type  3   force =    39.55449615    0.07881199   -0.07354520
     atom   10 type  3   force =   -31.12606647   -2.14759167  -23.64522577
     atom   11 type  3   force =   -30.19446855   -0.89491199   22.64711623
     atom   12 type  3   force =   -30.31033693    0.84342597  -22.69571168
     atom   13 type  3   force =   -31.10249538    2.23428833   23.62782248
     atom   14 type  3   force =    31.03606232   -2.22060578  -23.73690980
     atom   15 type  3   force =    30.10558631   -0.96730255   22.73827286
     atom   16 type  3   force =    30.22162228    0.91516762  -22.78628284
     atom   17 type  3   force =    31.01239033    2.30733662   23.71954715
     atom   18 type  4   force =    -0.33876399    4.58071516  -14.37585624
     atom   19 type  4   force =   -31.15271256    0.96105509  -26.13668900
     atom   20 type  4   force =   -31.12400267   -0.95691734   26.11494042
     atom   21 type  4   force =    30.95253043    0.95918617  -26.47585527
     atom   22 type  4   force =    30.92551982   -0.95535374   26.45320468
     atom   23 type  5   force =     9.41747071   -0.00407726    0.00601630
     The local contribution  to forces
     atom    1 type  1   force =     0.33303978    4.78236843  -14.51133763
     atom    2 type  1   force =    34.68248368    6.39124440   -0.77773488
     atom    3 type  1   force =    34.66156361   -6.37624033    0.76618631
     atom    4 type  1   force =   -34.47369370    6.69904043   -0.77614411
     atom    5 type  1   force =   -34.45221281   -6.68444520    0.76363336
     atom    6 type  2   force =     0.35684373    3.82180902   14.52312033
     atom    7 type  2   force =     0.35918213   -3.86455305  -14.53540333
     atom    8 type  3   force =    46.45879976   -0.06860221    0.08233648
     atom    9 type  3   force =   -42.22370246   -0.07411901    0.08910779
     atom   10 type  3   force =    31.33652235    2.11180731   23.81848756
     atom   11 type  3   force =    30.41558861    0.84247157  -22.82752898
     atom   12 type  3   force =    30.51525323   -0.78430040   22.84506945
     atom   13 type  3   force =    31.30962633   -2.19126342  -23.81332902
     atom   14 type  3   force =   -31.24844272    2.18259517   23.90714383
     atom   15 type  3   force =   -30.32998858    0.91231276  -22.91576354
     atom   16 type  3   force =   -30.42857805   -0.85504708   22.93374027
     atom   17 type  3   force =   -31.22139354   -2.26106383  -23.90183320
     atom   18 type  4   force =     0.33484982   -4.61354049   14.42641139
     atom   19 type  4   force =    30.95054644   -0.97343067   25.96342527
     atom   20 type  4   force =    30.91800532    0.97237902  -25.95327613
     atom   21 type  4   force =   -30.75565953   -0.97144682   26.28892146
     atom   22 type  4   force =   -30.72439870    0.97023713  -26.27910665
     atom   23 type  5   force =    -7.28532029    0.00222579   -0.00124022
     The core correction contribution to forces
     atom    1 type  1   force =     0.00108809    0.00401240   -0.00228915
     atom    2 type  1   force =    -0.01210816   -0.00088127    0.00081321
     atom    3 type  1   force =    -0.01232540    0.00176280   -0.00145024
     atom    4 type  1   force =     0.01215425   -0.00134957    0.00096043
     atom    5 type  1   force =     0.01231443    0.00219950   -0.00154583
     atom    6 type  2   force =     0.00052510    0.00288983    0.00290637
     atom    7 type  2   force =     0.00059166   -0.00354959   -0.00244766
     atom    8 type  3   force =    -0.02782528    0.00041044   -0.00061870
     atom    9 type  3   force =     0.04862028   -0.00016541   -0.00051484
     atom   10 type  3   force =    -0.02172225    0.00896734   -0.01649444
     atom   11 type  3   force =    -0.02346400    0.00959453    0.01714357
     atom   12 type  3   force =    -0.02161071   -0.00954706   -0.01606465
     atom   13 type  3   force =    -0.02137703   -0.00859396    0.01688955
     atom   14 type  3   force =     0.02307146    0.00945341   -0.01532240
     atom   15 type  3   force =     0.02432914    0.01052000    0.01583560
     atom   16 type  3   force =     0.02259138   -0.01044761   -0.01467494
     atom   17 type  3   force =     0.02245045   -0.00921641    0.01563863
     atom   18 type  4   force =     0.00051531   -0.00382887    0.00358525
     atom   19 type  4   force =    -0.01030264    0.00017655   -0.00911932
     atom   20 type  4   force =    -0.01013366    0.00015961    0.00891906
     atom   21 type  4   force =     0.01034711    0.00018617   -0.00919037
     atom   22 type  4   force =     0.01019595    0.00012956    0.00897643
     atom   23 type  5   force =     0.00000000    0.00000000    0.00000000
     The Hubbard contrib.    to forces
     atom    1 type  1   force =     0.00000000    0.00000000    0.00000000
     atom    2 type  1   force =     0.00000000    0.00000000    0.00000000
     atom    3 type  1   force =     0.00000000    0.00000000    0.00000000
     atom    4 type  1   force =     0.00000000    0.00000000    0.00000000
     atom    5 type  1   force =     0.00000000    0.00000000    0.00000000
     atom    6 type  2   force =     0.00000000    0.00000000    0.00000000
     atom    7 type  2   force =     0.00000000    0.00000000    0.00000000
     atom    8 type  3   force =     0.00000000    0.00000000    0.00000000
     atom    9 type  3   force =     0.00000000    0.00000000    0.00000000
     atom   10 type  3   force =     0.00000000    0.00000000    0.00000000
     atom   11 type  3   force =     0.00000000    0.00000000    0.00000000
     atom   12 type  3   force =     0.00000000    0.00000000    0.00000000
     atom   13 type  3   force =     0.00000000    0.00000000    0.00000000
     atom   14 type  3   force =     0.00000000    0.00000000    0.00000000
     atom   15 type  3   force =     0.00000000    0.00000000    0.00000000
     atom   16 type  3   force =     0.00000000    0.00000000    0.00000000
     atom   17 type  3   force =     0.00000000    0.00000000    0.00000000
     atom   18 type  4   force =     0.00000000    0.00000000    0.00000000
     atom   19 type  4   force =     0.00000000    0.00000000    0.00000000
     atom   20 type  4   force =     0.00000000    0.00000000    0.00000000
     atom   21 type  4   force =     0.00000000    0.00000000    0.00000000
     atom   22 type  4   force =     0.00000000    0.00000000    0.00000000
     atom   23 type  5   force =     0.00000000    0.00000000    0.00000000
     The SCF correction term to forces
     atom    1 type  1   force =     0.00000000    0.00000000   -0.00000000
     atom    2 type  1   force =     0.00000000    0.00000000   -0.00000000
     atom    3 type  1   force =     0.00000000   -0.00000000   -0.00000000
     atom    4 type  1   force =    -0.00000000    0.00000000   -0.00000000
     atom    5 type  1   force =    -0.00000000   -0.00000000   -0.00000000
     atom    6 type  2   force =     0.00000000    0.00000000    0.00000000
     atom    7 type  2   force =     0.00000000   -0.00000000   -0.00000000
     atom    8 type  3   force =     0.00000000   -0.00000000   -0.00000000
     atom    9 type  3   force =     0.00000000    0.00000000   -0.00000000
     atom   10 type  3   force =     0.00000000   -0.00000000   -0.00000000
     atom   11 type  3   force =     0.00000000   -0.00000000    0.00000000
     atom   12 type  3   force =     0.00000000    0.00000000   -0.00000000
     atom   13 type  3   force =     0.00000000    0.00000000    0.00000000
     atom   14 type  3   force =    -0.00431064   -0.00382986    0.00392250
     atom   15 type  3   force =    -0.00220239    0.00371718    0.01018870
     atom   16 type  3   force =    -0.00406960    0.00416346    0.00374722
     atom   17 type  3   force =    -0.00463412   -0.00519175    0.00811661
     atom   18 type  4   force =     0.00895924   -0.00361490   -0.00106584
     atom   19 type  4   force =     0.00350233    0.00031151    0.00299437
     atom   20 type  4   force =     0.00846820    0.00027317    0.00485257
     atom   21 type  4   force =    -0.00148419   -0.00054279    0.01135597
     atom   22 type  4   force =    -0.00623146    0.00110643   -0.00268516
     atom   23 type  5   force =     0.00435920    0.00000943   -0.00144851

     Total force =     1.974129     Total SCF correction =     0.027282

     Entering Dynamics:    iteration =     3
                           time      =   0.0015 pico-seconds


ATOMIC_POSITIONS (angstrom)
Hf            2.6699999570        2.8271230292        6.6039642186    0   0   0
Hf            1.2529906802        1.2862841814        5.0584662261    0   0   0
Hf            1.2554868986        7.3898042948        5.0880677674    0   0   0
Hf            4.0870092338        1.2862841814        5.0584662261    0   0   0
Hf            4.0845130154        7.3898042948        5.0880677674    0   0   0
Nb            2.6699999570        2.7969306055        3.5155832167    0   0   0
Nb            2.6699999570        5.8763786763        6.6349979432    0   0   0
Ta            1.2093730560        4.3409278516        5.0711258323    0   0   0
Ta            4.1306268580        4.3409278516        5.0711258323    0   0   0
Ta            1.3072526841        1.3141225894        2.0587791101    0   0   0
Ta            1.3027883142        1.3083911360        8.0945792024    0   0   0
Ta            1.3040096221        7.3758261241        2.0462371798    0   0   0
Ta            1.3077107984        7.3650829484        8.0860022208    0   0   0
Ta            4.0327882674        1.3140761061        2.0586882442
Ta            4.0372509013        1.3083397823        8.0946645380
Ta            4.0360222338        7.3758786615        2.0461551230
Ta            4.0323239625        7.3651269892        8.0860934516
Zr            2.6699754540        5.8663760060        3.5273274683
Zr            1.2434062765        4.3220657411        1.9996411931
Zr            1.2399438160        4.3541401915        8.1501227320
Zr            4.0965938265        4.3220624611        1.9996288026
Zr            4.1000565932        4.3541429374        8.1501329848
H             5.0077965735        4.3398882790        5.0724745282


     kinetic energy (Ekin) =           1.06481184 Ry
     temperature           =       11208.03287759 K 
     Ekin + Etot (const)   =       -2941.19634617 Ry

     Writing config-only to output data dir outdir/pwscf.save/
     NEW-OLD atomic charge density approx. for the potential

     Check: negative core charge=   -0.000002

     negative rho (up, down):  9.059E-01 9.059E-01
     Generating pointlists ...
     new r_m :   0.0434 (alat units)  0.6838 (a.u.) for type    3
     new r_m :   0.0434 (alat units)  0.6838 (a.u.) for type    5

     total cpu time spent up to now is     1103.5 secs

     Self-consistent Calculation

     iteration #  1     ecut=   120.00 Ry     beta= 0.70
     Davidson diagonalization with overlap
[...]
   -26.3884 -26.3754 -26.2890 -26.2822 -26.1620 -26.1539 -26.0742 -26.0151
   -25.9918 -25.9511 -25.9393 -25.9196 -25.9033 -25.8640 -25.8450 -25.8303
   -25.8068 -25.7190 -25.6570 -25.6506 -25.6350 -25.6343 -25.6208 -25.5744
   -25.5729 -25.5532 -25.5458 -25.5401 -22.8686 -22.6583 -22.3464 -22.2680
   -22.0041 -21.8652 -21.8411 -21.7404 -21.6253 -21.5538 -21.5395 -21.3217
   -21.1657 -21.1174 -21.0652 -21.0180 -20.9569 -20.9049 -20.4322 -20.3651
   -20.3007 -18.8752 -18.6056 -18.5300 -18.5077 -18.3035 -18.2933 -18.2729
   -18.2636 -18.2588 -18.2144 -18.0624 -18.0494 -16.8148 -16.6135 -16.4948
     2.7694   4.2255   4.3467   4.4719   4.6080   4.8326   4.8561   4.9679
     5.0424   5.2242   5.2540   5.4648   5.6055   5.8207   5.9583   6.0021
     6.0859   6.1701   6.3495   6.3522   6.4242   6.5702   6.6202   6.6484
     6.7154   6.8663   6.8902   7.0141   7.0517   7.0547   7.0856   7.0985
     7.2396   7.4607   7.4747   7.5701   7.5776   7.5934   7.6603   7.6964
     7.8520   7.9088   7.9393   8.0290   8.1853   8.2837   8.3217   8.3484
     8.4965   8.5227   8.6031   8.6202   8.6369   8.8316   8.8565   8.8885
     8.9224   8.9652   9.1997   9.2679   9.3700   9.4002   9.5698   9.6249
     9.6430   9.6477   9.6794   9.6964   9.7457   9.8798  10.0153  10.0441
    10.1520  10.2375  10.4065  10.4245  10.4423  10.5433  10.5767

     the Fermi energy is     8.5772 ev

!    total energy              =   -2943.08766627 Ry
     estimated scf accuracy    <       0.00028141 Ry
     smearing contrib. (-TS)   =      -0.10180101 Ry
     internal energy E=F+TS    =   -2942.98586526 Ry

     total magnetization       =    -0.00 Bohr mag/cell
     absolute magnetization    =     0.00 Bohr mag/cell

     convergence has been achieved in   5 iterations

     negative rho (up, down):  9.081E-01 9.081E-01

     Forces acting on atoms (cartesian axes, Ry/au):

     atom    1 type  1   force =    -0.00943882   -0.02500543    0.01731730
     atom    2 type  1   force =    -0.11916064   -0.01695320   -0.00636964
     atom    3 type  1   force =    -0.11780358    0.01447822   -0.00193369
     atom    4 type  1   force =     0.12057414   -0.01657482   -0.00737948
     atom    5 type  1   force =     0.11955202    0.01443521   -0.00054877
     atom    6 type  2   force =    -0.00846568   -0.01529208    0.00415576
     atom    7 type  2   force =    -0.00858821    0.01238035   -0.00119579
     atom    8 type  3   force =    -0.13312656    0.00298802   -0.00411009
     atom    9 type  3   force =     0.16069562    0.00248864   -0.00430390
     atom   10 type  3   force =    -0.02353353   -0.03070067   -0.05915364
     atom   11 type  3   force =    -0.02162273   -0.03481853    0.05968582
     atom   12 type  3   force =    -0.01852595    0.03634810   -0.05487070
     atom   13 type  3   force =    -0.01893706    0.02843275    0.06232759
     atom   14 type  3   force =     0.02467768   -0.02951112   -0.05682615
     atom   15 type  3   force =     0.02236040   -0.03217353    0.05648223
     atom   16 type  3   force =     0.01920853    0.03410061   -0.05150367
     atom   17 type  3   force =     0.01977302    0.02715891    0.06000176
     atom   18 type  4   force =    -0.00988021    0.02694718   -0.02037117
     atom   19 type  4   force =    -0.13075133   -0.00422638   -0.11319075
     atom   20 type  4   force =    -0.13232157    0.00507133    0.11706904
     atom   21 type  4   force =     0.13311169   -0.00530766   -0.11619616
     atom   22 type  4   force =     0.13502752    0.00594201    0.11945366
     atom   23 type  5   force =    -0.00282473   -0.00020789    0.00146045
     The non-local contrib.  to forces
     atom    1 type  1   force =    -0.00822944   -0.02299942    0.03740067
     atom    2 type  1   force =    -0.24745776   -0.16373900    0.01588883
     atom    3 type  1   force =    -0.24175559    0.15902283   -0.03024655
     atom    4 type  1   force =     0.26187057   -0.15813678    0.01491620
     atom    5 type  1   force =     0.25656691    0.15365791   -0.02935730
     atom    6 type  2   force =    -0.00791073   -0.06133432   -0.06728792
     atom    7 type  2   force =    -0.00902363    0.07224856    0.05988803
     atom    8 type  3   force =    -0.30340975   -0.00051876   -0.00467615
     atom    9 type  3   force =     0.00722324    0.00082981   -0.00624093
     atom   10 type  3   force =    -0.21384698    0.00734865   -0.21144592
     atom   11 type  3   force =    -0.21886338    0.00981158    0.20226788
     atom   12 type  3   force =    -0.19899317   -0.02140396   -0.18514072
     atom   13 type  3   force =    -0.21086916   -0.00878257    0.21123761
     atom   14 type  3   force =     0.21602946    0.00529289   -0.21386428
     atom   15 type  3   force =     0.22169166    0.01071268    0.20364539
     atom   16 type  3   force =     0.20071693   -0.02133238   -0.18713378
     atom   17 type  3   force =     0.21216566   -0.00721193    0.21375862
     atom   18 type  4   force =    -0.01010802    0.06963630   -0.06875397
     atom   19 type  4   force =     0.06857118    0.00740310    0.06020965
     atom   20 type  4   force =     0.06447665   -0.00966158   -0.05400267
     atom   21 type  4   force =    -0.06549015    0.00698893    0.06758346
     atom   22 type  4   force =    -0.06220072   -0.00926826   -0.06168647
     atom   23 type  5   force =    -0.04834655    0.00008769   -0.00012569
     The ionic contribution  to forces
     atom    1 type  1   force =    -0.15681787   -4.65317535   14.43734843
     atom    2 type  1   force =   -34.43046152   -6.24362720    0.77937439
     atom    3 type  1   force =   -34.41448737    6.22985474   -0.70915008
     atom    4 type  1   force =    34.29225285   -6.40234495    0.77778316
     atom    5 type  1   force =    34.27633467    6.38689535   -0.70915384
     atom    6 type  2   force =    -0.16452883   -3.60972735  -14.36726600
     atom    7 type  2   force =    -0.16521847    3.64864542   14.39882139
     atom    8 type  3   force =   -45.94275072    0.07545096   -0.07043526
     atom    9 type  3   force =    44.35907548    0.08000124   -0.07755035
     atom   10 type  3   force =   -31.05386389   -2.14185862  -23.62032314
     atom   11 type  3   force =   -30.12202244   -0.88908907   22.62256684
     atom   12 type  3   force =   -30.24587140    0.84233339  -22.67640391
     atom   13 type  3   force =   -31.03016414    2.23058853   23.60240295
     atom   14 type  3   force =    30.99125849   -2.16386974  -23.65756426
     atom   15 type  3   force =    30.06078886   -0.91189060   22.66026324
     atom   16 type  3   force =    30.18452143    0.86297123  -22.71258523
     atom   17 type  3   force =    30.96667274    2.25323377   23.64038977
     atom   18 type  4   force =    -0.15456686    4.40229469  -14.28555442
     atom   19 type  4   force =   -30.97730668    0.95740033  -26.04007483
     atom   20 type  4   force =   -30.94798358   -0.95547732   26.01923979
     atom   21 type  4   force =    30.84898653    0.95823126  -26.20746019
     atom   22 type  4   force =    30.81939499   -0.95497481   26.18896732
     atom   23 type  5   force =     3.00675774   -0.00186590    0.00636424
     The local contribution  to forces
     atom    1 type  1   force =     0.15123136    4.64789377  -14.45713248
     atom    2 type  1   force =    34.57437338    6.39059344   -0.81772105
     atom    3 type  1   force =    34.55416722   -6.37479456    0.72303201
     atom    4 type  1   force =   -34.44941312    6.54258589   -0.81622227
     atom    5 type  1   force =   -34.42951551   -6.52476571    0.72489567
     atom    6 type  2   force =     0.15899690    3.64396682   14.41470190
     atom    7 type  2   force =     0.16185105   -3.70460341  -14.45809511
     atom    8 type  3   force =    46.14386891   -0.07287472    0.05775818
     atom    9 type  3   force =   -44.21397918   -0.07913103    0.06663502
     atom   10 type  3   force =    31.26737046    2.09042880   23.78696392
     atom   11 type  3   force =    30.34642152    0.84044240  -22.77481838
     atom   12 type  3   force =    30.44927605   -0.77132957   22.82118173
     atom   13 type  3   force =    31.24800276   -2.18949203  -23.76015081
     atom   14 type  3   force =   -31.20970344    2.11598705   23.82772828
     atom   15 type  3   force =   -30.29002550    0.86332752  -22.81549186
     atom   16 type  3   force =   -30.39313236   -0.79288106   22.86052147
     atom   17 type  3   force =   -31.18741445   -2.21441729  -23.80182928
     atom   18 type  4   force =     0.14920976   -4.43274371   14.31086596
     atom   19 type  4   force =    30.78878674   -0.96910605   25.87076682
     atom   20 type  4   force =    30.77003020    0.96937680  -25.84793446
     atom   21 type  4   force =   -30.66229138   -0.97121445   26.02553940
     atom   22 type  4   force =   -30.64167671    0.96983652  -26.00563015
     atom   23 type  5   force =    -2.95994289    0.00156561   -0.00736905
     The core correction contribution to forces
     atom    1 type  1   force =     0.00080835    0.00276172   -0.00090245
     atom    2 type  1   force =    -0.01241909   -0.00143384    0.00095561
     atom    3 type  1   force =    -0.01260317    0.00227485   -0.00162841
     atom    4 type  1   force =     0.01254804   -0.00183735    0.00108159
     atom    5 type  1   force =     0.01266063    0.00264732   -0.00181550
     atom    6 type  2   force =     0.00018261    0.00264285    0.00247823
     atom    7 type  2   force =     0.00023186   -0.00322735   -0.00196633
     atom    8 type  3   force =    -0.03358186    0.00022517   -0.00040380
     atom    9 type  3   force =     0.00779968    0.00009777   -0.00035396
     atom   10 type  3   force =    -0.02230219    0.00869011   -0.01630690
     atom   11 type  3   force =    -0.02402813    0.00911559    0.01708183
     atom   12 type  3   force =    -0.02220854   -0.00896958   -0.01590223
     atom   13 type  3   force =    -0.02229067   -0.00830773    0.01686149
     atom   14 type  3   force =     0.02346568    0.00999759   -0.01460860
     atom   15 type  3   force =     0.02482575    0.01103202    0.01524002
     atom   16 type  3   force =     0.02296409   -0.01086906   -0.01398728
     atom   17 type  3   force =     0.02314386   -0.00976333    0.01509175
     atom   18 type  4   force =     0.00038047   -0.00352381    0.00302112
     atom   19 type  4   force =    -0.01020247    0.00017051   -0.00882205
     atom   20 type  4   force =    -0.01006307    0.00011584    0.00859686
     atom   21 type  4   force =     0.01027893    0.00019566   -0.00916404
     atom   22 type  4   force =     0.01018879    0.00009194    0.00893812
     atom   23 type  5   force =     0.00000000    0.00000000    0.00000000
     The Hubbard contrib.    to forces
     atom    1 type  1   force =     0.00000000    0.00000000    0.00000000
     atom    2 type  1   force =     0.00000000    0.00000000    0.00000000
     atom    3 type  1   force =     0.00000000    0.00000000    0.00000000
     atom    4 type  1   force =     0.00000000    0.00000000    0.00000000
     atom    5 type  1   force =     0.00000000    0.00000000    0.00000000
     atom    6 type  2   force =     0.00000000    0.00000000    0.00000000
     atom    7 type  2   force =     0.00000000    0.00000000    0.00000000
     atom    8 type  3   force =     0.00000000    0.00000000    0.00000000
     atom    9 type  3   force =     0.00000000    0.00000000    0.00000000
     atom   10 type  3   force =     0.00000000    0.00000000    0.00000000
     atom   11 type  3   force =     0.00000000    0.00000000    0.00000000
     atom   12 type  3   force =     0.00000000    0.00000000    0.00000000
     atom   13 type  3   force =     0.00000000    0.00000000    0.00000000
     atom   14 type  3   force =     0.00000000    0.00000000    0.00000000
     atom   15 type  3   force =     0.00000000    0.00000000    0.00000000
     atom   16 type  3   force =     0.00000000    0.00000000    0.00000000
     atom   17 type  3   force =     0.00000000    0.00000000    0.00000000
     atom   18 type  4   force =     0.00000000    0.00000000    0.00000000
     atom   19 type  4   force =     0.00000000    0.00000000    0.00000000
     atom   20 type  4   force =     0.00000000    0.00000000    0.00000000
     atom   21 type  4   force =     0.00000000    0.00000000    0.00000000
     atom   22 type  4   force =     0.00000000    0.00000000    0.00000000
     atom   23 type  5   force =     0.00000000    0.00000000    0.00000000
     The SCF correction term to forces
     atom    1 type  1   force =     0.00000000    0.00000000   -0.00000000
     atom    2 type  1   force =    -0.00000000    0.00000000    0.00000000
     atom    3 type  1   force =    -0.00000000   -0.00000000    0.00000000
     atom    4 type  1   force =     0.00000000    0.00000000    0.00000000
     atom    5 type  1   force =     0.00000000   -0.00000000    0.00000000
     atom    6 type  2   force =     0.00000000    0.00000000    0.00000000
     atom    7 type  2   force =     0.00000000   -0.00000000   -0.00000000
     atom    8 type  3   force =     0.00000000    0.00000000    0.00000000
     atom    9 type  3   force =     0.00000000    0.00000000    0.00000000
     atom   10 type  3   force =    -0.00000000    0.00000000    0.00000000
     atom   11 type  3   force =    -0.00000000   -0.00000000   -0.00000000
     atom   12 type  3   force =    -0.00000000   -0.00000000    0.00000000
     atom   13 type  3   force =    -0.00000000    0.00000000   -0.00000000
     atom   14 type  3   force =     0.00350166    0.00312878    0.00049707
     atom   15 type  3   force =     0.00495379   -0.00530745   -0.00816022
     atom   16 type  3   force =     0.00401261   -0.00374043    0.00069549
     atom   17 type  3   force =     0.00507937    0.00536538   -0.00839476
     atom   18 type  4   force =     0.00507859   -0.00866859    0.01906449
     atom   19 type  4   force =    -0.00072593   -0.00004657    0.00374401
     atom   20 type  4   force =    -0.00890762    0.00076529   -0.00981614
     atom   21 type  4   force =     0.00150192    0.00053864    0.00631955
     atom   22 type  4   force =     0.00919532    0.00030432   -0.01212081
     atom   23 type  5   force =    -0.00141888    0.00005242    0.00160530

     Total force =     0.380194     Total SCF correction =     0.035087

     Entering Dynamics:    iteration =    10
                           time      =   0.0051 pico-seconds


ATOMIC_POSITIONS (angstrom)
Hf            2.6699999570        2.8271230292        6.6039642186    0   0   0
Hf            1.2529906802        1.2862841814        5.0584662261    0   0   0
Hf            1.2554868986        7.3898042948        5.0880677674    0   0   0
Hf            4.0870092338        1.2862841814        5.0584662261    0   0   0
Hf            4.0845130154        7.3898042948        5.0880677674    0   0   0
Nb            2.6699999570        2.7969306055        3.5155832167    0   0   0
Nb            2.6699999570        5.8763786763        6.6349979432    0   0   0
Ta            1.2093730560        4.3409278516        5.0711258323    0   0   0
Ta            4.1306268580        4.3409278516        5.0711258323    0   0   0
Ta            1.3072526841        1.3141225894        2.0587791101    0   0   0
Ta            1.3027883142        1.3083911360        8.0945792024    0   0   0
Ta            1.3040096221        7.3758261241        2.0462371798    0   0   0
Ta            1.3077107984        7.3650829484        8.0860022208    0   0   0
Ta            4.0331898481        1.3136386109        2.0577684195
Ta            4.0376336474        1.3078322036        8.0955200325
Ta            4.0363472181        7.3763895945        2.0453165071
Ta            4.0326493036        7.3655545488        8.0869990329
Zr            2.6698537597        5.8672820154        3.5267426800
Zr            1.2390562991        4.3219238803        1.9960029233
Zr            1.2354624064        4.3543117799        8.1538078558
Zr            4.1009229750        4.3218918024        1.9959205692
Zr            4.1045196856        4.3543419466        8.1538758652
H             6.2927720263        4.3360938800        5.0794815893


     kinetic energy (Ekin) =           1.93472655 Ry
     temperature           =       20364.61083966 K 
     Ekin + Etot (const)   =       -2941.15293972 Ry

     The maximum number of steps has been reached.

     End of molecular dynamics calculation

     diffusion coefficients :
     atom     1   D =       0.00000000 cm^2/s
     atom     2   D =       0.00000000 cm^2/s
     atom     3   D =       0.00000000 cm^2/s
     atom     4   D =       0.00000000 cm^2/s
     atom     5   D =       0.00000000 cm^2/s
     atom     6   D =       0.00000000 cm^2/s
     atom     7   D =       0.00000000 cm^2/s
     atom     8   D =       0.00000000 cm^2/s
     atom     9   D =       0.00000000 cm^2/s
     atom    10   D =       0.00000000 cm^2/s
     atom    11   D =       0.00000000 cm^2/s
     atom    12   D =       0.00000000 cm^2/s
     atom    13   D =       0.00000000 cm^2/s
     atom    14   D =       0.00000000 cm^2/s
     atom    15   D =       0.00000000 cm^2/s
     atom    16   D =       0.00000000 cm^2/s
     atom    17   D =       0.00000000 cm^2/s
     atom    18   D =       0.00000000 cm^2/s
     atom    19   D =       0.00000013 cm^2/s
     atom    20   D =       0.00000013 cm^2/s
     atom    21   D =       0.00000013 cm^2/s
     atom    22   D =       0.00000013 cm^2/s
     atom    23   D =       0.00143876 cm^2/s

     < D > =       0.00014393 cm^2/s

     Writing all to output data dir outdir/pwscf.save/

     init_run     :     25.80s CPU     26.30s WALL (       1 calls)
     electrons    :   2418.40s CPU   2455.89s WALL (      10 calls)
     update_pot   :     23.55s CPU     23.69s WALL (       9 calls)
     forces       :    192.45s CPU    195.11s WALL (      10 calls)

     Called by init_run:
     wfcinit      :     20.30s CPU     20.50s WALL (       1 calls)
     potinit      :      1.18s CPU      1.22s WALL (       1 calls)
     hinit0       :      1.97s CPU      2.01s WALL (       1 calls)

     Called by electrons:
     c_bands      :   1966.98s CPU   1979.81s WALL (      49 calls)
     sum_band     :    321.60s CPU    334.96s WALL (      49 calls)
     v_of_rho     :     14.96s CPU     15.50s WALL (      59 calls)
     newd         :    138.35s CPU    150.76s WALL (      59 calls)
     mix_rho      :      1.11s CPU      1.14s WALL (      49 calls)

     Called by c_bands:
     init_us_2    :      3.17s CPU      3.19s WALL (     218 calls)
     init_us_2:cp :      3.16s CPU      3.19s WALL (     218 calls)
     regterg      :   1951.92s CPU   1964.65s WALL (      98 calls)

     Called by *egterg:
     rdiaghg      :     31.74s CPU     32.19s WALL (     715 calls)
     h_psi        :    816.26s CPU    825.05s WALL (     735 calls)
     s_psi        :    294.85s CPU    295.25s WALL (     735 calls)
     g_psi        :      0.60s CPU      0.60s WALL (     635 calls)

     Called by h_psi:
     h_psi:calbec :    362.07s CPU    362.74s WALL (     735 calls)
     vloc_psi     :    157.03s CPU    164.73s WALL (     735 calls)
     add_vuspsi   :    295.83s CPU    296.24s WALL (     735 calls)

     General routines
     calbec       :    613.81s CPU    614.90s WALL (     913 calls)
     fft          :     13.45s CPU     14.07s WALL (    1044 calls)
     ffts         :      0.30s CPU      0.33s WALL (      49 calls)
     fftw         :    159.65s CPU    167.41s WALL (   52062 calls)

     Parallel routines

     PWSCF        :  44m42.95s CPU  45m26.33s WALL


   This run was terminated on:   1:36:13   6Jun2023            

=------------------------------------------------------------------------------=
   JOB DONE.
=------------------------------------------------------------------------------=
