
     Program PWSCF v.7.2 starts on  4Jun2023 at 21:19:21 

     This program is part of the open-source Quantum ESPRESSO suite
     for quantum simulation of materials; please cite
         "P. Giannozzi et al., J. Phys.:Condens. Matter 21 395502 (2009);
         "P. Giannozzi et al., J. Phys.:Condens. Matter 29 465901 (2017);
         "P. Giannozzi et al., J. Chem. Phys. 152 154105 (2020);
          URL http://www.quantum-espresso.org", 
     in publications or presentations arising from this work. More details at
     http://www.quantum-espresso.org/quote

     Parallel version (MPI), running on    12 processors

     MPI processes distributed on     1 nodes
     76451 MiB available memory on the printing compute node when the environment starts

     Reading input from md_Hf5Nb2Ta10Zr5H_10steps.in
Warning: card &CELL ignored
Warning: card / ignored

     Current dimensions of program PWSCF are:
     Max number of different atomic species (ntypx) = 10
     Max number of k-points (npk) =  40000
     Max angular momentum in pseudopotentials (lmaxx) =  4

     gamma-point specific algorithms are used

     R & G space division:  proc/nbgrp/npool/nimage =      12
     Subspace diagonalization in iterative solution of the eigenvalue problem:
     one sub-group per band group will be used
     custom distributed-memory algorithm (size of sub-group:  2*  2 procs)


     Parallelization info
     --------------------
     sticks:   dense  smooth     PW     G-vecs:    dense   smooth      PW
     Min         463     463    115                43615    43615    5452
     Max         466     466    120                43622    43622    5458
     Sum        5573    5573   1397               523405   523405   65439

     Using Slab Decomposition



     bravais-lattice index     =            0
     lattice parameter (alat)  =      10.4691  a.u.
     unit-cell volume          =    2946.6867 (a.u.)^3
     number of atoms/cell      =           23
     number of atomic types    =            5
     number of electrons       =       277.00
     number of Kohn-Sham states=          167
     kinetic-energy cutoff     =     120.0000  Ry
     charge density cutoff     =     480.0000  Ry
     scf convergence threshold =      1.0E-03
     mixing beta               =       0.7000
     number of iterations used =            8  TF        mixing
     energy convergence thresh.=      0.0E+00
     force convergence thresh. =      0.0E+00
     Exchange-correlation=  SLA  PW   PBX  PBC
                           (   1   4   3   4   0   0   0)
     nstep                     =           10


     celldm(1)=  10.469083  celldm(2)=   0.000000  celldm(3)=   0.000000
     celldm(4)=   0.000000  celldm(5)=   0.000000  celldm(6)=   0.000000

     crystal axes: (cart. coord. in units of alat)
               a(1) = (   1.000000   0.000000   0.000000 )  
               a(2) = (   0.000000   1.332130   0.000000 )  
               a(3) = (   0.000000   0.000000   1.927798 )  

     reciprocal axes: (cart. coord. in units 2 pi/alat)
               b(1) = (  1.000000  0.000000  0.000000 )  
               b(2) = (  0.000000  0.750678  0.000000 )  
               b(3) = (  0.000000  0.000000  0.518727 )  


     PseudoPot. # 1 for Hf read from file:
     q-e/pseudo/hf_pbe_v1.uspp.F.UPF
     MD5 check sum: 8ee9378dfe14276e333edf04c5e4aa26
     Pseudo is Ultrasoft + core correction, Zval = 12.0
     Generated by new atomic code, or converted to UPF format
     Using radial grid of  921 points,  8 beta functions with: 
                l(1) =   0
                l(2) =   0
                l(3) =   0
                l(4) =   1
                l(5) =   1
                l(6) =   2
                l(7) =   2
                l(8) =   3
     Q(r) pseudized with  6 coefficients,  rinner =    1.200   1.200   1.200
                                                       1.200   1.200   1.200
                                                       1.200

     PseudoPot. # 2 for Nb read from file:
     q-e/pseudo/nb_pbe_v1.uspp.F.UPF
     MD5 check sum: 573aab8a2fa660278ed4a62cd769473f
     Pseudo is Ultrasoft + core correction, Zval = 13.0
     Generated by new atomic code, or converted to UPF format
     Using radial grid of  887 points,  6 beta functions with: 
                l(1) =   0
                l(2) =   0
                l(3) =   1
                l(4) =   1
                l(5) =   2
                l(6) =   2
     Q(r) pseudized with  6 coefficients,  rinner =    1.000   1.000   1.000
                                                       1.000   1.000

     PseudoPot. # 3 for Ta read from file:
     q-e/pseudo/ta_pbe_v1.uspp.F.UPF
     MD5 check sum: f8bbe9446314a3b8ea5d9f3e3836c939
     Pseudo is Ultrasoft + core correction, Zval = 13.0
     Generated by new atomic code, or converted to UPF format
     Using radial grid of  921 points,  7 beta functions with: 
                l(1) =   0
                l(2) =   0
                l(3) =   1
                l(4) =   1
                l(5) =   2
                l(6) =   2
                l(7) =   3
     Q(r) pseudized with  6 coefficients,  rinner =    1.300   1.300   1.300
                                                       1.300   1.300   1.300
                                                       1.300

     PseudoPot. # 4 for Zr read from file:
     q-e/pseudo/zr_pbe_v1.uspp.F.UPF
     MD5 check sum: 5db81b1e868ab7776c4564c113de050b
     Pseudo is Ultrasoft + core correction, Zval = 12.0
     Generated by new atomic code, or converted to UPF format
     Using radial grid of  887 points,  6 beta functions with: 
                l(1) =   0
                l(2) =   0
                l(3) =   1
                l(4) =   1
                l(5) =   2
                l(6) =   2
     Q(r) pseudized with  6 coefficients,  rinner =    1.200   1.200   1.200
                                                       1.200   1.200

     PseudoPot. # 5 for H  read from file:
     q-e/pseudo/h_pbe_v1.4.uspp.F.UPF
     MD5 check sum: 761ae9a214b05c3daf00ab9f6b793d6f
     Pseudo is Ultrasoft, Zval =  1.0
     Generated by new atomic code, or converted to UPF format
     Using radial grid of  615 points,  2 beta functions with: 
                l(1) =   0
                l(2) =   0
     Q(r) pseudized with  8 coefficients,  rinner =    0.700

     atomic species   valence    mass     pseudopotential
        Hf            12.00   178.49000     Hf( 1.00)
        Nb            13.00    92.90637     Nb( 1.00)
        Ta            13.00   180.94788     Ta( 1.00)
        Zr            12.00    91.22400     Zr( 1.00)
        H              1.00     2.01400     H ( 1.00)

     Starting magnetic structure 
     atomic species   magnetization
        Hf           0.000
        Nb           0.000
        Ta           0.000
        Zr           0.000
        H            0.000

     No symmetry found



   Cartesian axes

     site n.     atom                  positions (alat units)
         1           Hf  tau(   1) = (   0.3375451   0.3375451   1.2653430  )
         2           Hf  tau(   2) = (   0.0361011   0.0361011   0.9638989  )
         3           Hf  tau(   3) = (   0.0361011   1.2418772   0.9638989  )
         4           Hf  tau(   4) = (   0.6389892   0.0361011   0.9638989  )
         5           Hf  tau(   5) = (   0.6389892   1.2418772   0.9638989  )
         6           Nb  tau(   6) = (   0.3375451   0.3375451   0.6624549  )
         7           Nb  tau(   7) = (   0.3375451   0.9404333   1.2653430  )
         8           Ta  tau(   8) = (   0.0361011   0.6389892   0.9638989  )
         9           Ta  tau(   9) = (   0.6389892   0.6389892   0.9638989  )
        10           Ta  tau(  10) = (   0.0361011   0.0361011   0.3610108  )
        11           Ta  tau(  11) = (   0.0361011   0.0361011   1.5667870  )
        12           Ta  tau(  12) = (   0.0361011   1.2418772   0.3610108  )
        13           Ta  tau(  13) = (   0.0361011   1.2418772   1.5667870  )
        14           Ta  tau(  14) = (   0.6389892   0.0361011   0.3610108  )
        15           Ta  tau(  15) = (   0.6389892   0.0361011   1.5667870  )
        16           Ta  tau(  16) = (   0.6389892   1.2418772   0.3610108  )
        17           Ta  tau(  17) = (   0.6389892   1.2418772   1.5667870  )
        18           Zr  tau(  18) = (   0.3375451   0.9404333   0.6624549  )
        19           Zr  tau(  19) = (   0.0361011   0.6389892   0.3610108  )
        20           Zr  tau(  20) = (   0.0361011   0.6389892   1.5667870  )
        21           Zr  tau(  21) = (   0.6389892   0.6389892   0.3610108  )
        22           Zr  tau(  22) = (   0.6389892   0.6389892   1.5667870  )
        23           H   tau(  23) = (   0.9097473   0.6389892   0.9638989  )

     number of k points=     1  Gaussian smearing, width (Ry)=  0.0220
                       cart. coord. in units 2pi/alat
        k(    1) = (   0.0000000   0.0000000   0.0000000), wk =   1.0000000

     Dense  grid:   261703 G-vectors     FFT dimensions: (  75, 100, 144)

     Estimated max dynamical RAM per process >     226.66 MB

     Estimated total dynamical RAM >       2.66 GB

     Check: negative core charge=   -0.000002
     Generating pointlists ...
     new r_m :   0.0521 (alat units)  0.5457 (a.u.) for type    1
     new r_m :   0.2154 (alat units)  2.2548 (a.u.) for type    2
     new r_m :   0.0521 (alat units)  0.5457 (a.u.) for type    3
     new r_m :   0.1638 (alat units)  1.7149 (a.u.) for type    4
     new r_m :   0.0521 (alat units)  0.5457 (a.u.) for type    5

     Initial potential from superposition of free atoms

     starting charge     266.9726, renormalised to     277.0000

     negative rho (up, down):  4.613E-01 4.613E-01
     Starting wfcs are  287 randomized atomic wfcs

     total cpu time spent up to now is       14.7 secs

     Self-consistent Calculation

     iteration #  1     ecut=   120.00 Ry     beta= 0.70
     Davidson diagonalization with overlap
     ethr =  1.00E-02,  avg # of iterations =  6.5

     negative rho (up, down):  5.448E-01 5.450E-01

     total cpu time spent up to now is       53.1 secs

     total energy              =   -2620.09574305 Ry
     estimated scf accuracy    <     503.99808646 Ry

     total magnetization       =    -0.00 Bohr mag/cell
     absolute magnetization    =     0.10 Bohr mag/cell

     iteration #  2     ecut=   120.00 Ry     beta= 0.70
     Davidson diagonalization with overlap
     ethr =  1.00E-02,  avg # of iterations =  4.5

     negative rho (up, down):  6.690E-01 6.690E-01

     total cpu time spent up to now is       77.0 secs

     total energy              =   -2625.16737748 Ry
     estimated scf accuracy    <     123.35717795 Ry

     total magnetization       =     0.00 Bohr mag/cell
     absolute magnetization    =     0.20 Bohr mag/cell

     iteration #  3     ecut=   120.00 Ry     beta= 0.70
     Davidson diagonalization with overlap
     ethr =  1.00E-02,  avg # of iterations =  4.5

     negative rho (up, down):  7.055E-01 7.054E-01

     total cpu time spent up to now is       99.6 secs

     total energy              =   -2624.63521195 Ry
     estimated scf accuracy    <      37.71294848 Ry

     total magnetization       =     0.12 Bohr mag/cell
     absolute magnetization    =     0.39 Bohr mag/cell

     iteration #  4     ecut=   120.00 Ry     beta= 0.70
     Davidson diagonalization with overlap
     ethr =  1.00E-02,  avg # of iterations =  5.0

     negative rho (up, down):  6.954E-01 6.952E-01

     total cpu time spent up to now is      121.3 secs

     total energy              =   -2625.39603949 Ry
     estimated scf accuracy    <      11.07646444 Ry

     total magnetization       =    -0.08 Bohr mag/cell
     absolute magnetization    =     0.64 Bohr mag/cell

     iteration #  5     ecut=   120.00 Ry     beta= 0.70
     Davidson diagonalization with overlap
     ethr =  4.00E-03,  avg # of iterations =  2.5

     negative rho (up, down):  6.866E-01 6.866E-01

     total cpu time spent up to now is      141.7 secs

     total energy              =   -2624.20115954 Ry
     estimated scf accuracy    <       6.00003986 Ry

     total magnetization       =     0.06 Bohr mag/cell
     absolute magnetization    =     0.30 Bohr mag/cell

     iteration #  6     ecut=   120.00 Ry     beta= 0.70
     Davidson diagonalization with overlap
     ethr =  2.17E-03,  avg # of iterations =  6.5

     negative rho (up, down):  6.824E-01 6.825E-01

     total cpu time spent up to now is      166.1 secs

     total energy              =   -2624.16401764 Ry
     estimated scf accuracy    <       3.20791049 Ry

     total magnetization       =     0.06 Bohr mag/cell
     absolute magnetization    =     0.20 Bohr mag/cell

     iteration #  7     ecut=   120.00 Ry     beta= 0.70
     Davidson diagonalization with overlap
     ethr =  1.16E-03,  avg # of iterations =  3.5

     negative rho (up, down):  6.765E-01 6.766E-01

     total cpu time spent up to now is      187.1 secs

     total energy              =   -2624.34995414 Ry
     estimated scf accuracy    <       1.13010842 Ry

     total magnetization       =     0.09 Bohr mag/cell
     absolute magnetization    =     0.18 Bohr mag/cell

     iteration #  8     ecut=   120.00 Ry     beta= 0.70
     Davidson diagonalization with overlap
     ethr =  4.08E-04,  avg # of iterations =  2.0

     negative rho (up, down):  6.759E-01 6.760E-01

     total cpu time spent up to now is      207.1 secs

     total energy              =   -2624.36108810 Ry
     estimated scf accuracy    <       0.46175851 Ry

     total magnetization       =     0.07 Bohr mag/cell
     absolute magnetization    =     0.13 Bohr mag/cell

     iteration #  9     ecut=   120.00 Ry     beta= 0.70
     Davidson diagonalization with overlap
     ethr =  1.67E-04,  avg # of iterations = 11.0

     negative rho (up, down):  6.765E-01 6.765E-01

     total cpu time spent up to now is      229.7 secs

     total energy              =   -2624.39210501 Ry
     estimated scf accuracy    <       0.07673791 Ry

     total magnetization       =     0.08 Bohr mag/cell
     absolute magnetization    =     0.13 Bohr mag/cell

     iteration # 10     ecut=   120.00 Ry     beta= 0.70
     Davidson diagonalization with overlap
     ethr =  2.77E-05,  avg # of iterations = 14.5

     negative rho (up, down):  6.779E-01 6.779E-01

     total cpu time spent up to now is      252.1 secs

     total energy              =   -2624.39371969 Ry
     estimated scf accuracy    <       0.02961217 Ry

     total magnetization       =     0.09 Bohr mag/cell
     absolute magnetization    =     0.12 Bohr mag/cell

     iteration # 11     ecut=   120.00 Ry     beta= 0.70
     Davidson diagonalization with overlap
     ethr =  1.07E-05,  avg # of iterations =  2.0

     negative rho (up, down):  6.780E-01 6.781E-01

     total cpu time spent up to now is      272.2 secs

     total energy              =   -2624.39497812 Ry
     estimated scf accuracy    <       0.01610362 Ry

     total magnetization       =     0.10 Bohr mag/cell
     absolute magnetization    =     0.13 Bohr mag/cell

     iteration # 12     ecut=   120.00 Ry     beta= 0.70
     Davidson diagonalization with overlap
     ethr =  5.81E-06,  avg # of iterations =  2.0

     negative rho (up, down):  6.781E-01 6.781E-01

     total cpu time spent up to now is      292.0 secs

     total energy              =   -2624.39573856 Ry
     estimated scf accuracy    <       0.00332935 Ry

     total magnetization       =     0.10 Bohr mag/cell
     absolute magnetization    =     0.13 Bohr mag/cell

     iteration # 13     ecut=   120.00 Ry     beta= 0.70
     Davidson diagonalization with overlap
     ethr =  1.20E-06,  avg # of iterations = 10.5

     negative rho (up, down):  6.780E-01 6.780E-01

     Magnetic moment per site  (integrated on atomic sphere of radius R)
     atom   1 (R=0.052)  charge=  0.0282   -0.0000
     atom   2 (R=0.052)  charge=  0.2792    0.0000
     atom   3 (R=0.052)  charge=  0.2800    0.0000
     atom   4 (R=0.052)  charge=  0.2826    0.0000
     atom   5 (R=0.052)  charge=  0.2823    0.0000
     atom   6 (R=0.215)  charge= 10.9912    0.0524
     atom   7 (R=0.215)  charge= 10.9753    0.0011
     atom   8 (R=0.052)  charge=  0.0979    0.0000
     atom   9 (R=0.052)  charge=  0.0888    0.0000
     atom  10 (R=0.052)  charge=  0.3949    0.0001
     atom  11 (R=0.052)  charge=  0.3946    0.0000
     atom  12 (R=0.052)  charge=  0.3958    0.0001
     atom  13 (R=0.052)  charge=  0.3961    0.0000
     atom  14 (R=0.052)  charge=  0.3979    0.0001
     atom  15 (R=0.052)  charge=  0.3975    0.0000
     atom  16 (R=0.052)  charge=  0.3977    0.0001
     atom  17 (R=0.052)  charge=  0.3981   -0.0000
     atom  18 (R=0.164)  charge=  8.0635    0.0066
     atom  19 (R=0.164)  charge=  8.1519   -0.0008
     atom  20 (R=0.164)  charge=  8.1502    0.0001
     atom  21 (R=0.164)  charge=  8.1539   -0.0007
     atom  22 (R=0.164)  charge=  8.1520    0.0001
     atom  23 (R=0.052)  charge=  0.6136    0.0003

     total cpu time spent up to now is      313.8 secs

     End of self-consistent calculation

 ------ SPIN UP ------------


          k = 0.0000 0.0000 0.0000 ( 32720 PWs)   bands (ev):

  -151.8498-151.8494-151.8169-151.8153-144.8546-144.8071 -59.2953 -59.2904
   -57.8173 -57.8167 -57.6830 -57.6828 -57.6363 -57.6316 -54.4006 -53.6038
   -53.6000 -53.2223 -53.2189 -51.4127 -47.8334 -47.0452 -46.6049 -46.3942
   -46.1695 -45.9377 -45.7982 -38.4520 -38.4342 -32.6054 -32.1866 -32.1600
   -31.1969 -31.1773 -28.8935 -28.8891 -27.8274 -27.8229 -24.0755 -22.1035
   -20.8931 -18.5912 -18.4622 -17.9291 -17.8137 -17.6702 -14.8227 -14.7692
   -14.7205 -14.6955 -14.6079 -14.5653 -14.5289 -14.5245 -14.5119 -11.9510
   -11.9062 -11.7828 -11.7458 -10.8478 -10.8103 -10.7356 -10.2122 -10.1535
   -10.0952 -10.0253  -9.9237  -9.8985  -9.5223  -9.4913  -9.4535  -9.4356
    -9.4082  -9.3655  -8.8375  -8.8333  -7.6861  -7.6657  -5.5220  -5.5138
    -5.4850  -3.4776  -3.4566  -3.4168  -2.8531  -1.7934   0.0590   0.2832
     0.4111   0.4404   0.5005   0.5449   0.6781   2.4664   4.8446   5.4947
     5.8878   6.3788   7.0170   7.7674   7.9622   9.2139   9.3137   9.4379
     9.8891  10.0826  10.2373  10.8629  11.0092  11.4740  11.6570  11.7050
    11.8005  12.2614  12.4694  12.7859  12.8884  12.9861  13.8025  14.0769
    14.2846  14.2909  14.3920  14.7288  14.7583  14.8219  14.9625  14.9807
    15.2034  15.3271  15.4024  15.4610  15.5589  15.8557  16.0934  16.1658
    16.1907  16.2648  16.3883  16.4536  16.5876  16.6483  16.7075  16.7952
    16.8847  16.9424  16.9986  17.4628  18.0972  18.1578  18.2507  18.2575
    18.3704  18.5490  18.6234  18.7175  18.8661  18.8827  18.9609  19.0281
    19.1445  19.2234  19.4089  19.6161  19.7221  19.8440  19.8455

 ------ SPIN DOWN ----------


          k = 0.0000 0.0000 0.0000 ( 32720 PWs)   bands (ev):

  -151.8494-151.8494-151.8169-151.8147-144.8546-144.8071 -59.2943 -59.2905
   -57.8170 -57.8165 -57.6831 -57.6818 -57.6359 -57.6317 -54.3968 -53.6025
   -53.6001 -53.2210 -53.2190 -51.4103 -47.8334 -47.0452 -46.6048 -46.3941
   -46.1695 -45.9381 -45.7982 -38.4350 -38.4224 -32.5984 -32.1865 -32.1609
   -31.1968 -31.1782 -28.8915 -28.8888 -27.8253 -27.8228 -24.0697 -22.1035
   -20.8931 -18.5872 -18.4582 -17.9258 -17.8107 -17.6671 -14.8133 -14.7670
   -14.7147 -14.6865 -14.6089 -14.5321 -14.5192 -14.5145 -14.4924 -11.9483
   -11.9064 -11.7840 -11.7456 -10.8435 -10.8011 -10.7262 -10.2122 -10.1547
   -10.0952 -10.0255  -9.9237  -9.8972  -9.5222  -9.4922  -9.4535  -9.4349
    -9.4081  -9.3657  -8.8358  -8.8334  -7.6861  -7.6669  -5.5198  -5.5137
    -5.4849  -3.4775  -3.4559  -3.4162  -2.8531  -1.7934   0.0596   0.2836
     0.4116   0.4409   0.5011   0.5453   0.6783   2.4665   4.8449   5.4955
     5.8889   6.3793   7.0172   7.7706   7.9687   9.2150   9.3160   9.4399
     9.8915  10.0843  10.2439  10.8661  11.0096  11.4753  11.6582  11.7071
    11.8037  12.2638  12.4711  12.7937  12.8933  12.9900  13.8072  14.0790
    14.2912  14.2959  14.3978  14.7316  14.7595  14.8236  14.9680  14.9812
    15.2077  15.3276  15.4062  15.4641  15.5648  15.8585  16.1005  16.1676
    16.2036  16.2740  16.4088  16.4637  16.6004  16.6524  16.7106  16.8016
    16.8940  16.9507  16.9993  17.4687  18.0992  18.1716  18.2577  18.2601
    18.3712  18.5546  18.6283  18.7227  18.8698  18.8863  18.9644  19.0384
    19.1479  19.2262  19.4108  19.6200  19.7248  19.8465  19.8466

     the Fermi energy is    16.3864 ev

!    total energy              =   -2624.39564831 Ry
     estimated scf accuracy    <       0.00091417 Ry
     smearing contrib. (-TS)   =      -0.07615399 Ry
     internal energy E=F+TS    =   -2624.31949432 Ry

     total magnetization       =     0.12 Bohr mag/cell
     absolute magnetization    =     0.14 Bohr mag/cell

     convergence has been achieved in  13 iterations

     negative rho (up, down):  6.780E-01 6.780E-01

     Forces acting on atoms (cartesian axes, Ry/au):

     atom    1 type  1   force =    -0.00257889    0.07349615   -0.01156584
     atom    2 type  1   force =     0.65388540   63.81960641    0.01010355
     atom    3 type  1   force =     0.65178595  -63.81616478   -0.01304824
     atom    4 type  1   force =    -0.65531081   63.79521726    0.01230056
     atom    5 type  1   force =    -0.65341231  -63.79181302   -0.01589000
     atom    6 type  2   force =     0.00301123    0.06263496    0.00770917
     atom    7 type  2   force =     0.00336305   -0.06346905   -0.00171700
     atom    8 type  3   force =     9.82915276   -0.00267276   -0.00373597
     atom    9 type  3   force =    -0.49383755   -0.00364970   -0.00122076
     atom   10 type  3   force =     0.74454662  110.13013743   -0.06366557
     atom   11 type  3   force =     0.76213941  110.11442070    0.05534493
     atom   12 type  3   force =     0.75717877 -110.11938623   -0.05580448
     atom   13 type  3   force =     0.73924268 -110.12538288    0.06374347
     atom   14 type  3   force =    -0.75118351  110.11371096   -0.05927266
     atom   15 type  3   force =    -0.75793367  110.10024624    0.05572665
     atom   16 type  3   force =    -0.75214040 -110.10282284   -0.05663535
     atom   17 type  3   force =    -0.74495818 -110.11120765    0.05963931
     atom   18 type  4   force =    -0.00130892   -0.06130210    0.01789262
     atom   19 type  4   force =     0.19021844   -0.01339229   -0.02547600
     atom   20 type  4   force =     0.19512065    0.00909251    0.02302985
     atom   21 type  4   force =    -0.19024124   -0.01339883   -0.02423551
     atom   22 type  4   force =    -0.19499823    0.00930468    0.02168734
     atom   23 type  5   force =    -9.33174126   -0.00320517    0.00508996
     The non-local contrib.  to forces
     atom    1 type  1   force =    -0.00100294   -0.29887118   -0.03521789
     atom    2 type  1   force =    -0.39096518  -60.65352723    0.01553339
     atom    3 type  1   force =    -0.39239722   60.65486573   -0.01862911
     atom    4 type  1   force =     0.39238412  -60.67336719    0.01606073
     atom    5 type  1   force =     0.39374397   60.67529909   -0.02004319
     atom    6 type  2   force =    -0.00229969   -0.00960968    0.00507157
     atom    7 type  2   force =    -0.00263203    0.01992067   -0.00723761
     atom    8 type  3   force =    -1.98604001    0.00845457   -0.01088245
     atom    9 type  3   force =     0.38089368    0.00822204   -0.01051349
     atom   10 type  3   force =    -0.65788460  -42.47811225    0.00513889
     atom   11 type  3   force =    -0.63286708  -42.46157171   -0.02654903
     atom   12 type  3   force =    -0.63474548   42.45589853    0.02208361
     atom   13 type  3   force =    -0.66229132   42.48311707   -0.00581226
     atom   14 type  3   force =     0.64963187  -42.49107702    0.01037260
     atom   15 type  3   force =     0.62962992  -42.47158142   -0.02954893
     atom   16 type  3   force =     0.63211185   42.46854815    0.02474268
     atom   17 type  3   force =     0.65444943   42.49439357   -0.01142199
     atom   18 type  4   force =     0.00282807    0.02646336   -0.00347912
     atom   19 type  4   force =    -0.15002269    0.00380839   -0.04382862
     atom   20 type  4   force =    -0.15502610   -0.00422447    0.04770594
     atom   21 type  4   force =     0.14835076    0.00337299   -0.04546468
     atom   22 type  4   force =     0.15307863   -0.00392033    0.04934487
     atom   23 type  5   force =    -0.26944976    0.00003622    0.00068104
     The ionic contribution  to forces
     atom    1 type  1   force =     0.10366677   13.25869202   15.70727722
     atom    2 type  1   force =    11.92905750  164.75707787    0.16147672
     atom    3 type  1   force =    11.92905663 -164.75707535   -0.16147781
     atom    4 type  1   force =   -11.95581639  164.80239957    0.16147672
     atom    5 type  1   force =   -11.95581553 -164.80239706   -0.16147781
     atom    6 type  2   force =     0.11230570   14.55001553  -16.68691278
     atom    7 type  2   force =     0.11230564  -14.55002346   16.68690844
     atom    8 type  3   force =    16.38629766    0.00000010   -0.00000086
     atom    9 type  3   force =    -4.55953179    0.00000079   -0.00000018
     atom   10 type  3   force =    18.45440047  194.36950210  -26.42749053
     atom   11 type  3   force =    18.57862036  195.06390045   26.25989396
     atom   12 type  3   force =    18.57862161 -195.06389938  -26.25989293
     atom   13 type  3   force =    18.45439817 -194.36949995   26.42749271
     atom   14 type  3   force =   -18.46069975  194.37366088  -26.41369935
     atom   15 type  3   force =   -18.58491963  195.06805923   26.24610278
     atom   16 type  3   force =   -18.58492089 -195.06805817  -26.24610175
     atom   17 type  3   force =   -18.46069745 -194.37365873   26.41370153
     atom   18 type  4   force =     0.10366677  -13.25869825  -15.70728014
     atom   19 type  4   force =     6.46546868    0.36855814  -25.23615348
     atom   20 type  4   force =     6.46546657   -0.36855762   25.23615513
     atom   21 type  4   force =    -6.48415811    0.36855814  -25.16120448
     atom   22 type  4   force =    -6.48415600   -0.36855761   25.16120612
     atom   23 type  5   force =   -12.14261698    0.00000078    0.00000076
     The local contribution  to forces
     atom    1 type  1   force =    -0.10443821  -12.87191189  -15.68266342
     atom    2 type  1   force =   -10.83626122  -30.63184429   -0.17386311
     atom    3 type  1   force =   -10.84020148   30.64842559    0.17001232
     atom    4 type  1   force =    10.86018735  -30.68135157   -0.17229088
     atom    5 type  1   force =    10.86403021   30.69739125    0.16911245
     atom    6 type  2   force =    -0.10581251  -14.46936222   16.68323470
     atom    7 type  2   force =    -0.10494670   14.45660591  -16.66944727
     atom    8 type  3   force =    -4.31656386   -0.02210502    0.00552320
     atom    9 type  3   force =     3.68834685   -0.02261930    0.00738070
     atom   10 type  3   force =   -17.02161580  -36.61552263   26.33759745
     atom   11 type  3   force =   -17.15321390  -37.35595767  -26.15718167
     atom   12 type  3   force =   -17.15746358   37.36425247   26.15690389
     atom   13 type  3   force =   -17.02490584   36.63252451  -26.33624504
     atom   14 type  3   force =    17.02918514  -36.62202675   26.32263888
     atom   15 type  3   force =    17.16746076  -37.36323213  -26.14001695
     atom   16 type  3   force =    17.17178042   37.37137251   26.13952674
     atom   17 type  3   force =    17.03298476   36.63862629  -26.32100649
     atom   18 type  4   force =    -0.10674686   13.15972030   15.72362632
     atom   19 type  4   force =    -6.14570192   -0.39728504   25.21946158
     atom   20 type  4   force =    -6.13305494    0.38105555  -25.22973037
     atom   21 type  4   force =     6.16611690   -0.39685602   25.14772727
     atom   22 type  4   force =     6.15370847    0.38075874  -25.15840313
     atom   23 type  5   force =     3.07994222   -0.00359542    0.00398003
     The core correction contribution to forces
     atom    1 type  1   force =     0.00006745   -0.01190836    0.00145759
     atom    2 type  1   force =    -0.04005154   -9.64560678    0.00321712
     atom    3 type  1   force =    -0.03942822    9.64604850   -0.00337386
     atom    4 type  1   force =     0.03994509   -9.64561983    0.00340677
     atom    5 type  1   force =     0.03929571    9.64604778   -0.00382176
     atom    6 type  2   force =    -0.00003922   -0.00604497    0.00031179
     atom    7 type  2   force =    -0.00002039    0.00542710   -0.00023418
     atom    8 type  3   force =    -0.25144966    0.00080604   -0.00135597
     atom    9 type  3   force =    -0.00738192    0.00045460   -0.00106223
     atom   10 type  3   force =    -0.03921677   -5.12323234    0.00455047
     atom   11 type  3   force =    -0.04200201   -5.12394728   -0.00465037
     atom   12 type  3   force =    -0.04117396    5.12419662    0.00442521
     atom   13 type  3   force =    -0.03994483    5.12313911   -0.00549596
     atom   14 type  3   force =     0.03920113   -5.12447431    0.00493513
     atom   15 type  3   force =     0.04113304   -5.12493148   -0.00491255
     atom   16 type  3   force =     0.04043074    5.12532214    0.00464804
     atom   17 type  3   force =     0.03988194    5.12428158   -0.00598272
     atom   18 type  4   force =    -0.00019759    0.00326621    0.00062330
     atom   19 type  4   force =     0.00637576    0.00002776   -0.00124436
     atom   20 type  4   force =     0.00652428    0.00008045    0.00122985
     atom   21 type  4   force =    -0.00627090    0.00004375   -0.00122255
     atom   22 type  4   force =    -0.00639917    0.00007362    0.00122560
     atom   23 type  5   force =     0.00000000    0.00000000    0.00000000
     The Hubbard contrib.    to forces
     atom    1 type  1   force =     0.00000000    0.00000000    0.00000000
     atom    2 type  1   force =     0.00000000    0.00000000    0.00000000
     atom    3 type  1   force =     0.00000000    0.00000000    0.00000000
     atom    4 type  1   force =     0.00000000    0.00000000    0.00000000
     atom    5 type  1   force =     0.00000000    0.00000000    0.00000000
     atom    6 type  2   force =     0.00000000    0.00000000    0.00000000
     atom    7 type  2   force =     0.00000000    0.00000000    0.00000000
     atom    8 type  3   force =     0.00000000    0.00000000    0.00000000
     atom    9 type  3   force =     0.00000000    0.00000000    0.00000000
     atom   10 type  3   force =     0.00000000    0.00000000    0.00000000
     atom   11 type  3   force =     0.00000000    0.00000000    0.00000000
     atom   12 type  3   force =     0.00000000    0.00000000    0.00000000
     atom   13 type  3   force =     0.00000000    0.00000000    0.00000000
     atom   14 type  3   force =     0.00000000    0.00000000    0.00000000
     atom   15 type  3   force =     0.00000000    0.00000000    0.00000000
     atom   16 type  3   force =     0.00000000    0.00000000    0.00000000
     atom   17 type  3   force =     0.00000000    0.00000000    0.00000000
     atom   18 type  4   force =     0.00000000    0.00000000    0.00000000
     atom   19 type  4   force =     0.00000000    0.00000000    0.00000000
     atom   20 type  4   force =     0.00000000    0.00000000    0.00000000
     atom   21 type  4   force =     0.00000000    0.00000000    0.00000000
     atom   22 type  4   force =     0.00000000    0.00000000    0.00000000
     atom   23 type  5   force =     0.00000000    0.00000000    0.00000000
     The SCF correction term to forces
     atom    1 type  1   force =    -0.00000000   -0.00000000   -0.00000000
     atom    2 type  1   force =    -0.00000000   -0.00000000    0.00000000
     atom    3 type  1   force =    -0.00000000   -0.00000000   -0.00000000
     atom    4 type  1   force =     0.00000000   -0.00000000    0.00000000
     atom    5 type  1   force =     0.00000000   -0.00000000   -0.00000000
     atom    6 type  2   force =    -0.00000000   -0.00000000    0.00000000
     atom    7 type  2   force =    -0.00000000    0.00000000   -0.00000000
     atom    8 type  3   force =    -0.00000000    0.00000000    0.00000000
     atom    9 type  3   force =     0.00000000    0.00000000    0.00000000
     atom   10 type  3   force =     0.00000000   -0.00000000    0.00000000
     atom   11 type  3   force =     0.00000000   -0.00000000   -0.00000000
     atom   12 type  3   force =     0.00000000    0.00000000    0.00000000
     atom   13 type  3   force =     0.00000000    0.00000000   -0.00000000
     atom   14 type  3   force =    -0.00000000   -0.00000000    0.00000000
     atom   15 type  3   force =    -0.00000000   -0.00000000   -0.00000000
     atom   16 type  3   force =    -0.00000000    0.00000000    0.00000000
     atom   17 type  3   force =    -0.00000000    0.00000000   -0.00000000
     atom   18 type  4   force =    -0.00000000    0.00000000    0.00000000
     atom   19 type  4   force =     0.00000000    0.00000000    0.00000000
     atom   20 type  4   force =     0.00000000    0.00000000   -0.00000000
     atom   21 type  4   force =    -0.00000000    0.00000000    0.00000000
     atom   22 type  4   force =    -0.00000000    0.00000000   -0.00000000
     atom   23 type  5   force =     0.00048715    0.00056115    0.00000616

     Total force =     9.331743     Total SCF correction =     0.000743

     Molecular Dynamics Calculation

     Starting temperature  =   300.00 K

     temperature is set once at start

     mass Hf               =   178.49
     mass Nb               =    92.91
     mass Ta               =   180.95
     mass Zr               =    91.22
     mass H                =     2.01
     Time step             =    10.50 a.u.,  0.5080 femto-seconds

     Entering Dynamics:    iteration =     1
                           time      =   0.0005 pico-seconds


ATOMIC_POSITIONS (angstrom)
Hf            1.8699999570        1.8699999570        7.0100002690    0   0   0
Hf            0.2000000000        0.2000000000        5.3399999140    0   0   0
Hf            0.2000000000        6.8799998280        5.3399999140    0   0   0
Hf            3.5399999140        0.2000000000        5.3399999140    0   0   0
Hf            3.5399999140        6.8799998280        5.3399999140    0   0   0
Nb            1.8699999570        1.8699999570        3.6699999570    0   0   0
Nb            1.8699999570        5.2100002690        7.0100002690    0   0   0
Ta            0.2000000000        3.5399999140        5.3399999140    0   0   0
Ta            3.5399999140        3.5399999140        5.3399999140    0   0   0
Ta            0.2000000000        0.2000000000        2.0000000000    0   0   0
Ta            0.2000000000        0.2000000000        8.6799998280    0   0   0
Ta            0.2000000000        6.8799998280        2.0000000000    0   0   0
Ta            0.2000000000        6.8799998280        8.6799998280    0   0   0
Ta            3.5399999140        0.2000000000        2.0000000000    0   0   0
Ta            3.5399999140        0.2000000000        8.6799998280    0   0   0
Ta            3.5399999140        6.8799998280        2.0000000000    0   0   0
Ta            3.5399999140        6.8799998280        8.6799998280    0   0   0
Zr            1.8699999570        5.2100002690        3.6699999570    0   0   0
Zr            0.2000000000        3.5399999140        2.0000000000    0   0   0
Zr            0.2000000000        3.5399999140        8.6799998280    0   0   0
Zr            3.5399999140        3.5399999140        2.0000000000    0   0   0
Zr            3.5399999140        3.5399999140        8.6799998280    0   0   0
H             4.6991227003        3.5399490159        5.3400808364


     kinetic energy (Ekin) =           1.10259671 Ry
     temperature           =      116057.50147507 K 
     Ekin + Etot (const)   =       -2623.29305160 Ry

     File outdir/pwscf.msd.dat deleted, as requested

     Writing config-only to output data dir outdir/pwscf.save/
     NEW-OLD atomic charge density approx. for the potential

     Check: negative core charge=   -0.000002

     negative rho (up, down):  6.798E-01 6.799E-01
     Generating pointlists ...

     total cpu time spent up to now is      327.4 secs

     Self-consistent Calculation

     iteration #  1     ecut=   120.00 Ry     beta= 0.70
     Davidson diagonalization with overlap
     c_bands:  1 eigenvalues not converged
     c_bands:  2 eigenvalues not converged
     ethr =  1.00E-06,  avg # of iterations = 20.0

     negative rho (up, down):  6.785E-01 6.785E-01

     total cpu time spent up to now is      375.9 secs

     total energy              =   -2626.98400136 Ry
     estimated scf accuracy    <       0.53014109 Ry

     total magnetization       =     0.10 Bohr mag/cell
     absolute magnetization    =     0.13 Bohr mag/cell

     iteration #  2     ecut=   120.00 Ry     beta= 0.70
     Davidson diagonalization with overlap
     ethr =  1.91E-04,  avg # of iterations =  3.0

     negative rho (up, down):  6.781E-01 6.782E-01

     total cpu time spent up to now is      398.7 secs

     total energy              =   -2627.04539411 Ry
     estimated scf accuracy    <       0.13133508 Ry

     total magnetization       =     0.09 Bohr mag/cell
     absolute magnetization    =     0.13 Bohr mag/cell

     iteration #  3     ecut=   120.00 Ry     beta= 0.70
     Davidson diagonalization with overlap
     ethr =  4.74E-05,  avg # of iterations =  2.0

     negative rho (up, down):  6.779E-01 6.780E-01

     total cpu time spent up to now is      418.8 secs

     total energy              =   -2627.05339266 Ry
     estimated scf accuracy    <       0.03983841 Ry

     total magnetization       =     0.09 Bohr mag/cell
     absolute magnetization    =     0.12 Bohr mag/cell

     iteration #  4     ecut=   120.00 Ry     beta= 0.70
     Davidson diagonalization with overlap
     ethr =  1.44E-05,  avg # of iterations =  2.0

     negative rho (up, down):  6.778E-01 6.779E-01

     total cpu time spent up to now is      438.8 secs

     total energy              =   -2627.05535643 Ry
     estimated scf accuracy    <       0.00528781 Ry

     total magnetization       =     0.09 Bohr mag/cell
     absolute magnetization    =     0.12 Bohr mag/cell

     iteration #  5     ecut=   120.00 Ry     beta= 0.70
     Davidson diagonalization with overlap
     ethr =  1.91E-06,  avg # of iterations = 18.0

     negative rho (up, down):  6.778E-01 6.779E-01

     total cpu time spent up to now is      460.7 secs

     total energy              =   -2627.05567157 Ry
     estimated scf accuracy    <       0.00124047 Ry

     total magnetization       =     0.08 Bohr mag/cell
     absolute magnetization    =     0.12 Bohr mag/cell

     iteration #  6     ecut=   120.00 Ry     beta= 0.70
     Davidson diagonalization with overlap
     ethr =  4.48E-07,  avg # of iterations =  2.0

     negative rho (up, down):  6.779E-01 6.779E-01

     Magnetic moment per site  (integrated on atomic sphere of radius R)
     atom   1 (R=0.052)  charge=  0.0283   -0.0000
     atom   2 (R=0.052)  charge=  0.2791    0.0000
     atom   3 (R=0.052)  charge=  0.2799    0.0000
     atom   4 (R=0.052)  charge=  0.2824    0.0000
     atom   5 (R=0.052)  charge=  0.2822    0.0000
     atom   6 (R=0.215)  charge= 10.9962    0.0421
     atom   7 (R=0.215)  charge= 10.9970   -0.0007
     atom   8 (R=0.052)  charge=  0.0938    0.0000
     atom   9 (R=0.052)  charge=  0.0918    0.0000
     atom  10 (R=0.052)  charge=  0.3948    0.0001
     atom  11 (R=0.052)  charge=  0.3945    0.0000
     atom  12 (R=0.052)  charge=  0.3957    0.0000
     atom  13 (R=0.052)  charge=  0.3960    0.0000
     atom  14 (R=0.052)  charge=  0.3979    0.0001
     atom  15 (R=0.052)  charge=  0.3975    0.0000
     atom  16 (R=0.052)  charge=  0.3977    0.0000
     atom  17 (R=0.052)  charge=  0.3980    0.0000
     atom  18 (R=0.164)  charge=  8.0749    0.0043
     atom  19 (R=0.164)  charge=  8.1468   -0.0010
     atom  20 (R=0.164)  charge=  8.1448   -0.0001
     atom  21 (R=0.164)  charge=  8.1473   -0.0010
     atom  22 (R=0.164)  charge=  8.1453   -0.0001
     atom  23 (R=0.052)  charge=  0.4011   -0.0000

     total cpu time spent up to now is      480.6 secs

     End of self-consistent calculation

 ------ SPIN UP ------------


          k = 0.0000 0.0000 0.0000 ( 32720 PWs)   bands (ev):

  -151.8743-151.8567-151.8536-151.8362-144.8587-144.8127 -59.3287 -59.3076
   -57.8490 -57.8352 -57.7200 -57.7051 -57.6668 -57.6470 -53.6392 -53.6205
   -53.2598 -53.2411 -51.8466 -51.0295 -47.8341 -47.0484 -46.6085 -46.4007
   -46.1766 -45.8985 -45.7992 -38.4063 -38.3986 -32.5773 -32.1839 -32.1566
   -31.1940 -31.1742 -28.9294 -28.9116 -27.8648 -27.8463 -22.3136 -22.1049
   -20.8951 -17.9712 -17.8005 -17.4176 -17.2484 -17.1211 -14.7638 -14.7402
   -14.6700 -14.6499 -14.5849 -14.5133 -14.5007 -14.4935 -14.4902 -11.9831
   -11.9262 -11.7812 -11.7437 -10.8185 -10.7815 -10.7260 -10.2093 -10.1495
   -10.0932 -10.0218  -9.9460  -9.9275  -9.5195  -9.4983  -9.4760  -9.4580
    -9.4069  -9.3644  -8.8727  -8.8539  -7.6836  -7.6644  -5.5583  -5.5383
    -5.4828  -3.4846  -3.4814  -3.4427  -2.8577  -1.7918   0.0339   0.2555
     0.3874   0.4083   0.4697   0.5175   0.6793   2.4614   4.8324   5.4684
     5.8533   6.3591   7.0116   7.7054   7.9329   8.6513   9.2057   9.3104
     9.4933   9.8711  10.0750  10.8012  11.0083  11.4777  11.6370  11.6828
    11.7804  12.2432  12.4517  12.8796  12.9470  13.0593  13.8312  14.1432
    14.3000  14.3110  14.4106  14.7507  14.7558  14.8346  14.9787  14.9830
    15.2038  15.3278  15.4088  15.4706  15.5737  15.8794  15.9256  16.1754
    16.2225  16.2424  16.2839  16.5234  16.5871  16.6918  16.6985  16.7491
    16.8959  16.9701  17.0066  17.4713  18.1080  18.1639  18.2643  18.2811
    18.3765  18.5599  18.6488  18.7239  18.8707  18.8996  18.9697  19.0379
    19.1552  19.2480  19.4274  19.6182  19.7231  19.9126  19.9200

 ------ SPIN DOWN ----------


          k = 0.0000 0.0000 0.0000 ( 32720 PWs)   bands (ev):

  -151.8740-151.8568-151.8533-151.8362-144.8587-144.8127 -59.3281 -59.3076
   -57.8487 -57.8353 -57.7195 -57.7051 -57.6666 -57.6471 -53.6383 -53.6205
   -53.2589 -53.2411 -51.8444 -51.0274 -47.8340 -47.0483 -46.6084 -46.4007
   -46.1765 -45.8993 -45.7991 -38.3989 -38.3786 -32.5727 -32.1840 -32.1576
   -31.1941 -31.1752 -28.9277 -28.9116 -27.8632 -27.8463 -22.3119 -22.1048
   -20.8950 -17.9676 -17.7971 -17.4141 -17.2451 -17.1191 -14.7560 -14.7383
   -14.6654 -14.6411 -14.5863 -14.4987 -14.4947 -14.4691 -14.4657 -11.9815
   -11.9262 -11.7827 -11.7435 -10.8171 -10.7753 -10.7188 -10.2094 -10.1506
   -10.0935 -10.0226  -9.9459  -9.9267  -9.5196  -9.4985  -9.4761  -9.4579
    -9.4072  -9.3652  -8.8717  -8.8540  -7.6836  -7.6656  -5.5567  -5.5381
    -5.4826  -3.4840  -3.4812  -3.4423  -2.8575  -1.7917   0.0344   0.2558
     0.3879   0.4087   0.4701   0.5177   0.6795   2.4616   4.8328   5.4692
     5.8542   6.3595   7.0119   7.7085   7.9377   8.6529   9.2070   9.3122
     9.4944   9.8730  10.0764  10.8037  11.0088  11.4790  11.6383  11.6844
    11.7835  12.2458  12.4535  12.8827  12.9515  13.0625  13.8351  14.1451
    14.3038  14.3189  14.4168  14.7531  14.7569  14.8358  14.9831  14.9853
    15.2079  15.3277  15.4117  15.4730  15.5808  15.8821  15.9364  16.1767
    16.2380  16.2481  16.2904  16.5329  16.5973  16.6979  16.7036  16.7519
    16.9050  16.9759  17.0070  17.4754  18.1104  18.1750  18.2661  18.2878
    18.3770  18.5657  18.6541  18.7276  18.8742  18.9029  18.9712  19.0455
    19.1579  19.2505  19.4286  19.6212  19.7248  19.9150  19.9206

     the Fermi energy is    16.3745 ev

!    total energy              =   -2627.05535727 Ry
     estimated scf accuracy    <       0.00042995 Ry
     smearing contrib. (-TS)   =      -0.06981555 Ry
     internal energy E=F+TS    =   -2626.98554172 Ry

     total magnetization       =     0.08 Bohr mag/cell
     absolute magnetization    =     0.12 Bohr mag/cell

     convergence has been achieved in   6 iterations

     negative rho (up, down):  6.779E-01 6.779E-01

     Forces acting on atoms (cartesian axes, Ry/au):

     atom    1 type  1   force =     0.00177609    0.06471409   -0.01305755
     atom    2 type  1   force =     0.65047266   63.76016250    0.00883385
     atom    3 type  1   force =     0.65103313  -63.76421064   -0.01168587
     atom    4 type  1   force =    -0.65016173   63.75878428    0.00920971
     atom    5 type  1   force =    -0.65083153  -63.76298146   -0.01217420
     atom    6 type  2   force =     0.00232381    0.05832139   -0.00116493
     atom    7 type  2   force =     0.00230533   -0.05988640    0.00594116
     atom    8 type  3   force =     2.14249851    0.00076277   -0.00376093
     atom    9 type  3   force =    -1.36641898    0.00060783   -0.00320922
     atom   10 type  3   force =     0.75048029  110.10384130   -0.05686682
     atom   11 type  3   force =     0.76467378  110.09904179    0.05446722
     atom   12 type  3   force =     0.76012271 -110.09450030   -0.05312610
     atom   13 type  3   force =     0.74479335 -110.11038231    0.05762953
     atom   14 type  3   force =    -0.75172079  110.09997346   -0.05631047
     atom   15 type  3   force =    -0.76367917  110.09553459    0.05469116
     atom   16 type  3   force =    -0.75912984 -110.09054692   -0.05341534
     atom   17 type  3   force =    -0.74586664 -110.10687221    0.05695766
     atom   18 type  4   force =     0.00183374   -0.05011125    0.01346515
     atom   19 type  4   force =     0.19501478   -0.01029669   -0.01434735
     atom   20 type  4   force =     0.19899400    0.01074783    0.01332865
     atom   21 type  4   force =    -0.19414760   -0.01036130   -0.01376667
     atom   22 type  4   force =    -0.19813856    0.01093833    0.01275152
     atom   23 type  5   force =    -0.78622733   -0.00328069    0.00560985
     The non-local contrib.  to forces
     atom    1 type  1   force =     0.00016905   -0.31536733   -0.01723932
     atom    2 type  1   force =    -0.39424872  -60.71110876    0.01488766
     atom    3 type  1   force =    -0.39430783   60.70891826   -0.01821694
     atom    4 type  1   force =     0.39440907  -60.71197547    0.01496504
     atom    5 type  1   force =     0.39438899   60.70979696   -0.01832852
     atom    6 type  2   force =    -0.00163964   -0.00258421    0.02195829
     atom    7 type  2   force =    -0.00163289    0.01300364   -0.02447281
     atom    8 type  3   force =    -1.00484715    0.01105933   -0.01137247
     atom    9 type  3   force =     0.64311043    0.01116180   -0.01130182
     atom   10 type  3   force =    -0.64797095  -42.50194142    0.01563574
     atom   11 type  3   force =    -0.62582725  -42.47661628   -0.03257455
     atom   12 type  3   force =    -0.62752727   42.48048916    0.03035923
     atom   13 type  3   force =    -0.65315982   42.49511556   -0.01522719
     atom   14 type  3   force =     0.64602131  -42.50522162    0.01629566
     atom   15 type  3   force =     0.62488788  -42.47938020   -0.03286919
     atom   16 type  3   force =     0.62655080   42.48367196    0.03062156
     atom   17 type  3   force =     0.65141978   42.49819707   -0.01602446
     atom   18 type  4   force =     0.00034787    0.01922544    0.00734739
     atom   19 type  4   force =    -0.14499335    0.00527552   -0.03171155
     atom   20 type  4   force =    -0.15026541   -0.00336401    0.03718723
     atom   21 type  4   force =     0.14453924    0.00519780   -0.03202872
     atom   22 type  4   force =     0.14983570   -0.00322842    0.03744415
     atom   23 type  5   force =     0.00241546    0.00006991    0.00070770
     The ionic contribution  to forces
     atom    1 type  1   force =     0.01558445   13.27443814   15.69113266
     atom    2 type  1   force =    11.95139768  164.77529527    0.16145495
     atom    3 type  1   force =    11.95139091 -164.77534420   -0.16149958
     atom    4 type  1   force =   -11.95541915  164.78225626    0.16145532
     atom    5 type  1   force =   -11.95541224 -164.78230300   -0.16149921
     atom    6 type  2   force =     0.01688102   14.56710020  -16.66943652
     atom    7 type  2   force =     0.01688184  -14.56708266   16.66940190
     atom    8 type  3   force =     8.16813535    0.00032767   -0.00052840
     atom    9 type  3   force =    -6.83720840    0.00023730   -0.00038471
     atom   10 type  3   force =    18.45927514  194.37112003  -26.42213163
     atom   11 type  3   force =    18.58349784  195.06551398   26.25455359
     atom   12 type  3   force =    18.58349574 -195.06552799  -26.25453125
     atom   13 type  3   force =    18.45927512 -194.37112415   26.42214956
     atom   14 type  3   force =   -18.46023536  194.37175667  -26.42002176
     atom   15 type  3   force =   -18.58445819  195.06615074   26.25244346
     atom   16 type  3   force =   -18.58445594 -195.06616444  -26.25242146
     atom   17 type  3   force =   -18.46023544 -194.37176073   26.42003951
     atom   18 type  4   force =     0.01558126  -13.27446954  -15.69113289
     atom   19 type  4   force =     6.48135041    0.36856466  -25.20628676
     atom   20 type  4   force =     6.48136377   -0.36855109   25.20634524
     atom   21 type  4   force =    -6.48414832    0.36856449  -25.19479096
     atom   22 type  4   force =    -6.48416214   -0.36855126   25.19484690
     atom   23 type  5   force =    -1.37837534   -0.00044633    0.00084205
     The local contribution  to forces
     atom    1 type  1   force =    -0.01201202  -12.87880805  -15.71511402
     atom    2 type  1   force =   -10.86662255  -30.66505299   -0.17261558
     atom    3 type  1   force =   -10.86509665   30.64918319    0.17104278
     atom    4 type  1   force =    10.87043192  -30.67153678   -0.17245558
     atom    5 type  1   force =    10.86880017   30.65505074    0.17069522
     atom    6 type  2   force =    -0.00990105  -14.49804000   16.67547583
     atom    7 type  2   force =    -0.00962223   14.48938937  -16.67193577
     atom    8 type  3   force =    -5.00440112   -0.00165011    0.00710480
     atom    9 type  3   force =     4.81442736   -0.00118035    0.00720174
     atom   10 type  3   force =   -17.02019804  -36.64802529   26.37249770
     atom   11 type  3   force =   -17.15207987  -37.37570525  -26.18812606
     atom   12 type  3   force =   -17.15414561   37.36452568   26.19429899
     atom   13 type  3   force =   -17.01925181   36.63535307  -26.37169806
     atom   14 type  3   force =    17.02089540  -36.64940037   26.37009046
     atom   15 type  3   force =    17.15409493  -37.37706786  -26.18534962
     atom   16 type  3   force =    17.15618542   37.36582901   26.19157844
     atom   17 type  3   force =    17.01996719   36.63663286  -26.36942481
     atom   18 type  4   force =    -0.01089189   13.20211652   15.72680510
     atom   19 type  4   force =    -6.14136364   -0.38078466   25.25602398
     atom   20 type  4   force =    -6.13306162    0.39096622  -25.26144385
     atom   21 type  4   force =     6.14498441   -0.38073996   25.24730251
     atom   22 type  4   force =     6.13672731    0.39106678  -25.25244453
     atom   23 type  5   force =     0.58678158   -0.00248287    0.00381533
     The core correction contribution to forces
     atom    1 type  1   force =     0.00008604   -0.01372183    0.00335032
     atom    2 type  1   force =    -0.04025496   -9.64550365    0.00293777
     atom    3 type  1   force =    -0.03964451    9.64593933   -0.00323942
     atom    4 type  1   force =     0.04019414   -9.64544953    0.00298744
     atom    5 type  1   force =     0.03957032    9.64587821   -0.00331188
     atom    6 type  2   force =     0.00007554   -0.00698904   -0.00122154
     atom    7 type  2   force =     0.00007346    0.00629684    0.00125359
     atom    8 type  3   force =    -0.01891827    0.00065276   -0.00084604
     atom    9 type  3   force =    -0.00504414    0.00062690   -0.00082628
     atom   10 type  3   force =    -0.03948688   -5.12461968    0.00478625
     atom   11 type  3   force =    -0.04134684   -5.12529439   -0.00480098
     atom   12 type  3   force =    -0.04066485    5.12535771    0.00461057
     atom   13 type  3   force =    -0.04012928    5.12459071   -0.00579412
     atom   14 type  3   force =     0.03945867   -5.12483383    0.00482908
     atom   15 type  3   force =     0.04117440   -5.12542389   -0.00480720
     atom   16 type  3   force =     0.04050905    5.12552493    0.00461815
     atom   17 type  3   force =     0.04011089    5.12477622   -0.00585411
     atom   18 type  4   force =     0.00000334    0.00406004   -0.00013215
     atom   19 type  4   force =     0.00613561    0.00003718   -0.00156505
     atom   20 type  4   force =     0.00623817    0.00011965    0.00150981
     atom   21 type  4   force =    -0.00610543    0.00004188   -0.00153006
     atom   22 type  4   force =    -0.00620886    0.00011279    0.00148209
     atom   23 type  5   force =     0.00000000    0.00000000    0.00000000
     The Hubbard contrib.    to forces
     atom    1 type  1   force =     0.00000000    0.00000000    0.00000000
     atom    2 type  1   force =     0.00000000    0.00000000    0.00000000
     atom    3 type  1   force =     0.00000000    0.00000000    0.00000000
     atom    4 type  1   force =     0.00000000    0.00000000    0.00000000
     atom    5 type  1   force =     0.00000000    0.00000000    0.00000000
     atom    6 type  2   force =     0.00000000    0.00000000    0.00000000
     atom    7 type  2   force =     0.00000000    0.00000000    0.00000000
     atom    8 type  3   force =     0.00000000    0.00000000    0.00000000
     atom    9 type  3   force =     0.00000000    0.00000000    0.00000000
     atom   10 type  3   force =     0.00000000    0.00000000    0.00000000
     atom   11 type  3   force =     0.00000000    0.00000000    0.00000000
     atom   12 type  3   force =     0.00000000    0.00000000    0.00000000
     atom   13 type  3   force =     0.00000000    0.00000000    0.00000000
     atom   14 type  3   force =     0.00000000    0.00000000    0.00000000
     atom   15 type  3   force =     0.00000000    0.00000000    0.00000000
     atom   16 type  3   force =     0.00000000    0.00000000    0.00000000
     atom   17 type  3   force =     0.00000000    0.00000000    0.00000000
     atom   18 type  4   force =     0.00000000    0.00000000    0.00000000
     atom   19 type  4   force =     0.00000000    0.00000000    0.00000000
     atom   20 type  4   force =     0.00000000    0.00000000    0.00000000
     atom   21 type  4   force =     0.00000000    0.00000000    0.00000000
     atom   22 type  4   force =     0.00000000    0.00000000    0.00000000
     atom   23 type  5   force =     0.00000000    0.00000000    0.00000000
     The SCF correction term to forces
     atom    1 type  1   force =    -0.00000000   -0.00000000    0.00000000
     atom    2 type  1   force =    -0.00000000    0.00000000    0.00000000
     atom    3 type  1   force =    -0.00000000    0.00000000    0.00000000
     atom    4 type  1   force =     0.00000000    0.00000000    0.00000000
     atom    5 type  1   force =     0.00000000    0.00000000    0.00000000
     atom    6 type  2   force =    -0.00000000   -0.00000000   -0.00000000
     atom    7 type  2   force =    -0.00000000   -0.00000000    0.00000000
     atom    8 type  3   force =     0.00000000   -0.00000000    0.00000000
     atom    9 type  3   force =     0.00000000   -0.00000000    0.00000000
     atom   10 type  3   force =    -0.00000000    0.00000000   -0.00000000
     atom   11 type  3   force =     0.00000000    0.00000000    0.00000000
     atom   12 type  3   force =    -0.00000000    0.00000000   -0.00000000
     atom   13 type  3   force =    -0.00000000    0.00000000    0.00000000
     atom   14 type  3   force =     0.00000000    0.00000000   -0.00000000
     atom   15 type  3   force =     0.00000000    0.00000000    0.00000000
     atom   16 type  3   force =     0.00000000    0.00000000   -0.00000000
     atom   17 type  3   force =     0.00000000    0.00000000    0.00000000
     atom   18 type  4   force =    -0.00000000   -0.00000000   -0.00000000
     atom   19 type  4   force =    -0.00000000   -0.00000000   -0.00000000
     atom   20 type  4   force =    -0.00000000   -0.00000000    0.00000000
     atom   21 type  4   force =     0.00000000   -0.00000000   -0.00000000
     atom   22 type  4   force =     0.00000000   -0.00000000    0.00000000
     atom   23 type  5   force =     0.00273309   -0.00057586    0.00003570

     Total force =     0.786254     Total SCF correction =     0.002793

     Entering Dynamics:    iteration =     2
                           time      =   0.0010 pico-seconds


ATOMIC_POSITIONS (angstrom)
Hf            1.8699999570        1.8699999570        7.0100002690    0   0   0
Hf            0.2000000000        0.2000000000        5.3399999140    0   0   0
Hf            0.2000000000        6.8799998280        5.3399999140    0   0   0
Hf            3.5399999140        0.2000000000        5.3399999140    0   0   0
Hf            3.5399999140        6.8799998280        5.3399999140    0   0   0
Nb            1.8699999570        1.8699999570        3.6699999570    0   0   0
Nb            1.8699999570        5.2100002690        7.0100002690    0   0   0
Ta            0.2000000000        3.5399999140        5.3399999140    0   0   0
Ta            3.5399999140        3.5399999140        5.3399999140    0   0   0
Ta            0.2000000000        0.2000000000        2.0000000000    0   0   0
Ta            0.2000000000        0.2000000000        8.6799998280    0   0   0
Ta            0.2000000000        6.8799998280        2.0000000000    0   0   0
Ta            0.2000000000        6.8799998280        8.6799998280    0   0   0
Ta            3.5399999140        0.2000000000        2.0000000000    0   0   0
Ta            3.5399999140        0.2000000000        8.6799998280    0   0   0
Ta            3.5399999140        6.8799998280        2.0000000000    0   0   0
Ta            3.5399999140        6.8799998280        8.6799998280    0   0   0
Zr            1.8699999570        5.2100002690        3.6699999570    0   0   0
Zr            0.2000000000        3.5399999140        2.0000000000    0   0   0
Zr            0.2000000000        3.5399999140        8.6799998280    0   0   0
Zr            3.5399999140        3.5399999140        2.0000000000    0   0   0
Zr            3.5399999140        3.5399999140        8.6799998280    0   0   0
H             4.3332570954        3.5397938126        5.3403400184


     kinetic energy (Ekin) =           3.71228805 Ry
     temperature           =      390749.28364904 K 
     Ekin + Etot (const)   =       -2623.34306922 Ry

     Writing config-only to output data dir outdir/pwscf.save/
     NEW-OLD atomic charge density approx. for the potential

     Check: negative core charge=   -0.000002

     negative rho (up, down):  6.770E-01 6.771E-01
     Generating pointlists ...

     total cpu time spent up to now is      494.1 secs

     Self-consistent Calculation

     iteration #  1     ecut=   120.00 Ry     beta= 0.70
     Davidson diagonalization with overlap
     ethr =  1.00E-06,  avg # of iterations = 17.0

     negative rho (up, down):  6.782E-01 6.782E-01

     total cpu time spent up to now is      540.8 secs

     total energy              =   -2625.60316771 Ry
     estimated scf accuracy    <       0.59685197 Ry

     total magnetization       =     0.09 Bohr mag/cell
     absolute magnetization    =     0.12 Bohr mag/cell

     iteration #  2     ecut=   120.00 Ry     beta= 0.70
     Davidson diagonalization with overlap
     ethr =  2.15E-04,  avg # of iterations =  3.0

     negative rho (up, down):  6.776E-01 6.776E-01

     total cpu time spent up to now is      562.0 secs

     total energy              =   -2625.68316748 Ry
     estimated scf accuracy    <       0.17245422 Ry

     total magnetization       =     0.09 Bohr mag/cell
     absolute magnetization    =     0.12 Bohr mag/cell

     iteration #  3     ecut=   120.00 Ry     beta= 0.70
     Davidson diagonalization with overlap
     ethr =  6.23E-05,  avg # of iterations =  2.0

     negative rho (up, down):  6.778E-01 6.779E-01

     total cpu time spent up to now is      582.3 secs

     total energy              =   -2625.69683874 Ry
     estimated scf accuracy    <       0.05344017 Ry

     total magnetization       =     0.10 Bohr mag/cell
     absolute magnetization    =     0.12 Bohr mag/cell

     iteration #  4     ecut=   120.00 Ry     beta= 0.70
     Davidson diagonalization with overlap
     ethr =  1.93E-05,  avg # of iterations =  2.0

     negative rho (up, down):  6.780E-01 6.781E-01

     total cpu time spent up to now is      602.5 secs

     total energy              =   -2625.69929233 Ry
     estimated scf accuracy    <       0.00338331 Ry

     total magnetization       =     0.10 Bohr mag/cell
     absolute magnetization    =     0.13 Bohr mag/cell

     iteration #  5     ecut=   120.00 Ry     beta= 0.70
     Davidson diagonalization with overlap
     ethr =  1.22E-06,  avg # of iterations = 13.0

     negative rho (up, down):  6.780E-01 6.781E-01

     total cpu time spent up to now is      626.2 secs

     total energy              =   -2625.69942840 Ry
     estimated scf accuracy    <       0.00283201 Ry

     total magnetization       =     0.11 Bohr mag/cell
     absolute magnetization    =     0.13 Bohr mag/cell

     iteration #  6     ecut=   120.00 Ry     beta= 0.70
     Davidson diagonalization with overlap
     ethr =  1.02E-06,  avg # of iterations =  1.0

     negative rho (up, down):  6.780E-01 6.781E-01

     Magnetic moment per site  (integrated on atomic sphere of radius R)
     atom   1 (R=0.052)  charge=  0.0283   -0.0000
     atom   2 (R=0.052)  charge=  0.2791    0.0000
     atom   3 (R=0.052)  charge=  0.2800    0.0000
     atom   4 (R=0.052)  charge=  0.2824    0.0000
     atom   5 (R=0.052)  charge=  0.2822    0.0000
     atom   6 (R=0.215)  charge= 10.9706    0.0482
     atom   7 (R=0.215)  charge= 10.9830    0.0047
     atom   8 (R=0.052)  charge=  0.0896    0.0000
     atom   9 (R=0.052)  charge=  0.0953    0.0000
     atom  10 (R=0.052)  charge=  0.3949    0.0001
     atom  11 (R=0.052)  charge=  0.3945    0.0000
     atom  12 (R=0.052)  charge=  0.3957    0.0000
     atom  13 (R=0.052)  charge=  0.3961    0.0000
     atom  14 (R=0.052)  charge=  0.3980    0.0001
     atom  15 (R=0.052)  charge=  0.3977    0.0000
     atom  16 (R=0.052)  charge=  0.3978    0.0001
     atom  17 (R=0.052)  charge=  0.3981    0.0000
     atom  18 (R=0.164)  charge=  8.0726    0.0055
     atom  19 (R=0.164)  charge=  8.1512   -0.0010
     atom  20 (R=0.164)  charge=  8.1486   -0.0002
     atom  21 (R=0.164)  charge=  8.1501   -0.0010
     atom  22 (R=0.164)  charge=  8.1477   -0.0002
     atom  23 (R=0.052)  charge=  0.5206    0.0003

     total cpu time spent up to now is      644.6 secs

     End of self-consistent calculation

 ------ SPIN UP ------------


          k = 0.0000 0.0000 0.0000 ( 32720 PWs)   bands (ev):

  -151.8709-151.8561-151.8397-151.8262-144.8449-144.7965 -59.3172 -59.2999
   -57.8400 -57.8297 -57.7056 -57.6944 -57.6593 -57.6432 -53.6264 -53.6109
   -53.3391 -53.2455 -53.2303 -51.2982 -47.8152 -47.0329 -46.5926 -46.3828
   -46.1581 -45.9347 -45.7804 -38.4075 -38.3955 -32.6025 -32.1796 -32.1542
   -31.1896 -31.1714 -28.9155 -28.9009 -27.8502 -27.8349 -23.5916 -22.0897
   -20.8803 -18.2723 -18.1260 -17.6967 -17.6730 -17.5235 -14.7999 -14.7570
   -14.6892 -14.6671 -14.6082 -14.5098 -14.5006 -14.4933 -14.4754 -11.9707
   -11.9166 -11.7796 -11.7403 -10.8417 -10.8074 -10.7368 -10.2070 -10.1484
   -10.0865 -10.0186  -9.9380  -9.9181  -9.5170  -9.4926  -9.4671  -9.4498
    -9.3999  -9.3592  -8.8595  -8.8442  -7.6800  -7.6619  -5.5434  -5.5273
    -5.4659  -3.4739  -3.4647  -3.4331  -2.8404  -1.7745   0.0429   0.2655
     0.3953   0.4222   0.4801   0.5258   0.7005   2.4839   4.8529   5.4866
     5.8677   6.3763   7.0336   7.7465   7.9460   9.2041   9.3113   9.3910
     9.8220   9.8795  10.0836  10.8429  11.0294  11.4857  11.6460  11.6911
    11.7766  12.2542  12.4586  12.8292  12.9125  13.0095  13.8220  14.1036
    14.2974  14.3024  14.4049  14.7399  14.7610  14.8267  14.9774  14.9821
    15.2089  15.3327  15.4102  15.4700  15.5687  15.8599  16.0671  16.1763
    16.2120  16.2762  16.3328  16.4881  16.5919  16.6684  16.7071  16.7636
    16.8969  16.9598  17.0062  17.4718  18.1064  18.1688  18.2592  18.2721
    18.3732  18.5574  18.6432  18.7233  18.8660  18.8938  18.9667  19.0365
    19.1465  19.2391  19.4197  19.6202  19.7298  19.8743  19.8838

 ------ SPIN DOWN ----------


          k = 0.0000 0.0000 0.0000 ( 32720 PWs)   bands (ev):

  -151.8706-151.8562-151.8393-151.8262-144.8448-144.7965 -59.3165 -59.2998
   -57.8397 -57.8297 -57.7049 -57.6943 -57.6590 -57.6432 -53.6254 -53.6109
   -53.3358 -53.2445 -53.2302 -51.2955 -47.8151 -47.0328 -46.5925 -46.3827
   -46.1580 -45.9352 -45.7803 -38.4056 -38.3667 -32.5970 -32.1799 -32.1552
   -31.1898 -31.1724 -28.9137 -28.9008 -27.8483 -27.8348 -23.5875 -22.0896
   -20.8802 -18.2681 -18.1218 -17.6939 -17.6690 -17.5196 -14.7955 -14.7547
   -14.6838 -14.6522 -14.6092 -14.5030 -14.4912 -14.4625 -14.4439 -11.9688
   -11.9165 -11.7809 -11.7404 -10.8395 -10.8003 -10.7284 -10.2072 -10.1494
   -10.0870 -10.0194  -9.9379  -9.9172  -9.5172  -9.4929  -9.4671  -9.4495
    -9.4004  -9.3601  -8.8583  -8.8442  -7.6802  -7.6630  -5.5417  -5.5271
    -5.4657  -3.4733  -3.4644  -3.4327  -2.8402  -1.7744   0.0435   0.2659
     0.3959   0.4226   0.4806   0.5261   0.7008   2.4842   4.8533   5.4874
     5.8687   6.3768   7.0339   7.7498   7.9513   9.2053   9.3139   9.3933
     9.8262   9.8817  10.0851  10.8455  11.0299  11.4874  11.6474  11.6930
    11.7800  12.2570  12.4605  12.8356  12.9172  13.0135  13.8265  14.1055
    14.3020  14.3106  14.4117  14.7427  14.7622  14.8281  14.9810  14.9855
    15.2136  15.3324  15.4137  15.4730  15.5759  15.8631  16.0752  16.1773
    16.2277  16.2856  16.3462  16.4995  16.6031  16.6734  16.7110  16.7680
    16.9065  16.9673  17.0074  17.4769  18.1094  18.1803  18.2613  18.2795
    18.3738  18.5637  18.6486  18.7278  18.8698  18.8972  18.9695  19.0455
    19.1497  19.2420  19.4210  19.6239  19.7320  19.8767  19.8836

     the Fermi energy is    16.3869 ev

!    total energy              =   -2625.69899238 Ry
     estimated scf accuracy    <       0.00064601 Ry
     smearing contrib. (-TS)   =      -0.07542932 Ry
     internal energy E=F+TS    =   -2625.62356306 Ry

     total magnetization       =     0.11 Bohr mag/cell
     absolute magnetization    =     0.14 Bohr mag/cell

     convergence has been achieved in   6 iterations

     negative rho (up, down):  6.780E-01 6.781E-01

     Forces acting on atoms (cartesian axes, Ry/au):

     atom    1 type  1   force =     0.00240567    0.06932394    0.00145529
     atom    2 type  1   force =     0.65072470   63.81869327    0.01585057
     atom    3 type  1   force =     0.65116672  -63.82252770   -0.01154941
     atom    4 type  1   force =    -0.64928018   63.83930505    0.01409738
     atom    5 type  1   force =    -0.64966694  -63.84300247   -0.00917696
     atom    6 type  2   force =    -0.00452649    0.05866167   -0.00014901
     atom    7 type  2   force =    -0.00481257   -0.05929777    0.00334264
     atom    8 type  3   force =     0.61459247   -0.00026320   -0.00128274
     atom    9 type  3   force =    -6.33096189    0.00248815   -0.00595030
     atom   10 type  3   force =     0.75253821  110.09593761   -0.06486213
     atom   11 type  3   force =     0.76074645  110.08116460    0.05908016
     atom   12 type  3   force =     0.75513013 -110.08645757   -0.06201585
     atom   13 type  3   force =     0.74713494 -110.09144414    0.06222640
     atom   14 type  3   force =    -0.74588895  110.10990681   -0.06862564
     atom   15 type  3   force =    -0.76428049  110.09340378    0.05857921
     atom   16 type  3   force =    -0.75917792 -110.10082236   -0.06133005
     atom   17 type  3   force =    -0.74097617 -110.10340374    0.06571964
     atom   18 type  4   force =     0.00040895   -0.05535063    0.00880465
     atom   19 type  4   force =     0.19248101   -0.00943528   -0.02500557
     atom   20 type  4   force =     0.19833916    0.00925063    0.01937022
     atom   21 type  4   force =    -0.19220126   -0.00943616   -0.02547026
     atom   22 type  4   force =    -0.19812550    0.00888899    0.02007504
     atom   23 type  5   force =     5.71422993   -0.00558349    0.00681673
     The non-local contrib.  to forces
     atom    1 type  1   force =     0.00092166   -0.30406798   -0.02153529
     atom    2 type  1   force =    -0.39587093  -60.64751438    0.01872343
     atom    3 type  1   force =    -0.39605816   60.64654023   -0.01669845
     atom    4 type  1   force =     0.39549326  -60.63120945    0.01845056
     atom    5 type  1   force =     0.39559940   60.62970499   -0.01576050
     atom    6 type  2   force =     0.00410404   -0.00667124    0.00937118
     atom    7 type  2   force =     0.00433637    0.01604093   -0.01155962
     atom    8 type  3   force =    -0.38034509    0.01072924   -0.00993579
     atom    9 type  3   force =     1.91591322    0.01093718   -0.00940479
     atom   10 type  3   force =    -0.64594711  -42.50915599    0.00636416
     atom   11 type  3   force =    -0.62604581  -42.49166408   -0.02504561
     atom   12 type  3   force =    -0.62804219   42.48612975    0.02109208
     atom   13 type  3   force =    -0.65125904   42.51444836   -0.00710416
     atom   14 type  3   force =     0.65318893  -42.49849854    0.00179303
     atom   15 type  3   force =     0.62862208  -42.48333279   -0.02246844
     atom   16 type  3   force =     0.63030110   42.47567240    0.01865158
     atom   17 type  3   force =     0.65828284   42.50524673   -0.00258445
     atom   18 type  4   force =    -0.00119281    0.02314060   -0.00598773
     atom   19 type  4   force =    -0.14628821    0.00539631   -0.04309693
     atom   20 type  4   force =    -0.15013542   -0.00389326    0.04639332
     atom   21 type  4   force =     0.14853322    0.00579007   -0.04137561
     atom   22 type  4   force =     0.15258155   -0.00434357    0.04470831
     atom   23 type  5   force =     0.12910884   -0.00027814    0.00075288
     The ionic contribution  to forces
     atom    1 type  1   force =    -0.08010558   13.26527016   15.70048840
     atom    2 type  1   force =    11.95734979  164.79690803    0.16139008
     atom    3 type  1   force =    11.95732476 -164.79708623   -0.16156444
     atom    4 type  1   force =   -11.93668022  164.76156453    0.16138215
     atom    5 type  1   force =   -11.93665824 -164.76178768   -0.16157237
     atom    6 type  2   force =    -0.08673443   14.55725947  -16.67961304
     atom    7 type  2   force =    -0.08675342  -14.55715519   16.67948258
     atom    8 type  3   force =     5.03014925    0.00053682   -0.00092095
     atom    9 type  3   force =   -13.07700967    0.00299780   -0.00498236
     atom   10 type  3   force =    18.46091172  194.37312930  -26.41540175
     atom   11 type  3   force =    18.58514431  195.06751077   26.24787970
     atom   12 type  3   force =    18.58513055 -195.06756740  -26.24779392
     atom   13 type  3   force =    18.46091981 -194.37315111   26.41546821
     atom   14 type  3   force =   -18.45601859  194.36989196  -26.42613098
     atom   15 type  3   force =   -18.58024857  195.06427079   26.25861437
     atom   16 type  3   force =   -18.58023787 -195.06433387  -26.25852156
     atom   17 type  3   force =   -18.45602452 -194.36991495   26.42620128
     atom   18 type  4   force =    -0.08003707  -13.26538994  -15.70047612
     atom   19 type  4   force =     6.48529314    0.36858233  -25.17018300
     atom   20 type  4   force =     6.48535791   -0.36853340   25.17039068
     atom   21 type  4   force =    -6.47088516    0.36858590  -25.22853991
     atom   22 type  4   force =    -6.47093984   -0.36852984   25.22880157
     atom   23 type  5   force =     8.29075193   -0.00305827    0.00560137
     The local contribution  to forces
     atom    1 type  1   force =     0.08587604  -12.87602777  -15.64409285
     atom    2 type  1   force =   -10.87409790  -30.69102659   -0.15512043
     atom    3 type  1   force =   -10.87150308   30.67558107    0.17889521
     atom    4 type  1   force =    10.85486418  -30.64909990   -0.15641094
     atom    5 type  1   force =    10.85237375   30.63472467    0.18005827
     atom    6 type  2   force =     0.08408281  -14.47667317   16.64393966
     atom    7 type  2   force =     0.08280728   14.47097139  -16.63081680
     atom    8 type  3   force =    -4.07020082   -0.00269545    0.02453345
     atom    9 type  3   force =     4.66528354   -0.00358205    0.02296882
     atom   10 type  3   force =   -17.02812287  -36.65089451   26.29513573
     atom   11 type  3   force =   -17.15619117  -37.36765610  -26.12645795
     atom   12 type  3   force =   -17.16312721   37.36056469   26.12046632
     atom   13 type  3   force =   -17.02137573   36.64410714  -26.30749967
     atom   14 type  3   force =    17.02205476  -36.64588425   26.30666065
     atom   15 type  3   force =    17.14368519  -37.36132211  -26.14001473
     atom   16 type  3   force =    17.15075735   37.35470171   26.13398143
     atom   17 type  3   force =    17.01501420   36.63977841  -26.31948575
     atom   18 type  4   force =     0.08580714   13.18028174   15.69024656
     atom   19 type  4   force =    -6.15627516   -0.37485835   25.15654548
     atom   20 type  4   force =    -6.14116686    0.37983347  -25.17398910
     atom   21 type  4   force =     6.14069932   -0.37545115   25.21691311
     atom   22 type  4   force =     6.12541461    0.37977944  -25.23412147
     atom   23 type  5   force =    -2.71073510   -0.00199558    0.00203292
     The core correction contribution to forces
     atom    1 type  1   force =    -0.00016526   -0.01260997    0.00198011
     atom    2 type  1   force =    -0.04012540   -9.64552420    0.00317025
     atom    3 type  1   force =    -0.03949007    9.64594537   -0.00352702
     atom    4 type  1   force =     0.04030540   -9.64552030    0.00301478
     atom    5 type  1   force =     0.03970309    9.64598334   -0.00317204
     atom    6 type  2   force =    -0.00009215   -0.00643661   -0.00017242
     atom    7 type  2   force =    -0.00009685    0.00582288    0.00021561
     atom    8 type  3   force =     0.01276332    0.00049959   -0.00115633
     atom    9 type  3   force =     0.15618005    0.00076237   -0.00122573
     atom   10 type  3   force =    -0.03917931   -5.12471127    0.00482860
     atom   11 type  3   force =    -0.04103528   -5.12512566   -0.00479627
     atom   12 type  3   force =    -0.04031544    5.12541333    0.00459575
     atom   13 type  3   force =    -0.03984902    5.12450450   -0.00585398
     atom   14 type  3   force =     0.03918211   -5.12364387    0.00454446
     atom   15 type  3   force =     0.04180480   -5.12433282   -0.00460979
     atom   16 type  3   force =     0.04094907    5.12448710    0.00442203
     atom   17 type  3   force =     0.03987146    5.12352862   -0.00549431
     atom   18 type  4   force =     0.00013321    0.00359389    0.00047576
     atom   19 type  4   force =     0.00620188    0.00007656   -0.00140649
     atom   20 type  4   force =     0.00627776    0.00007651    0.00138009
     atom   21 type  4   force =    -0.00631735    0.00005623   -0.00141093
     atom   22 type  4   force =    -0.00640685    0.00009368    0.00137787
     atom   23 type  5   force =     0.00000000    0.00000000    0.00000000
     The Hubbard contrib.    to forces
     atom    1 type  1   force =     0.00000000    0.00000000    0.00000000
     atom    2 type  1   force =     0.00000000    0.00000000    0.00000000
     atom    3 type  1   force =     0.00000000    0.00000000    0.00000000
     atom    4 type  1   force =     0.00000000    0.00000000    0.00000000
     atom    5 type  1   force =     0.00000000    0.00000000    0.00000000
     atom    6 type  2   force =     0.00000000    0.00000000    0.00000000
     atom    7 type  2   force =     0.00000000    0.00000000    0.00000000
     atom    8 type  3   force =     0.00000000    0.00000000    0.00000000
     atom    9 type  3   force =     0.00000000    0.00000000    0.00000000
     atom   10 type  3   force =     0.00000000    0.00000000    0.00000000
     atom   11 type  3   force =     0.00000000    0.00000000    0.00000000
     atom   12 type  3   force =     0.00000000    0.00000000    0.00000000
     atom   13 type  3   force =     0.00000000    0.00000000    0.00000000
     atom   14 type  3   force =     0.00000000    0.00000000    0.00000000
     atom   15 type  3   force =     0.00000000    0.00000000    0.00000000
     atom   16 type  3   force =     0.00000000    0.00000000    0.00000000
     atom   17 type  3   force =     0.00000000    0.00000000    0.00000000
     atom   18 type  4   force =     0.00000000    0.00000000    0.00000000
     atom   19 type  4   force =     0.00000000    0.00000000    0.00000000
     atom   20 type  4   force =     0.00000000    0.00000000    0.00000000
     atom   21 type  4   force =     0.00000000    0.00000000    0.00000000
     atom   22 type  4   force =     0.00000000    0.00000000    0.00000000
     atom   23 type  5   force =     0.00000000    0.00000000    0.00000000
     The SCF correction term to forces
     atom    1 type  1   force =    -0.00000000   -0.00000000   -0.00000000
     atom    2 type  1   force =     0.00000000    0.00000000   -0.00000000
     atom    3 type  1   force =     0.00000000    0.00000000   -0.00000000
     atom    4 type  1   force =    -0.00000000    0.00000000   -0.00000000
     atom    5 type  1   force =    -0.00000000    0.00000000   -0.00000000
     atom    6 type  2   force =    -0.00000000   -0.00000000    0.00000000
     atom    7 type  2   force =    -0.00000000    0.00000000   -0.00000000
     atom    8 type  3   force =     0.00000000   -0.00000000   -0.00000000
     atom    9 type  3   force =     0.00000000   -0.00000000   -0.00000000
     atom   10 type  3   force =     0.00000000    0.00000000    0.00000000
     atom   11 type  3   force =    -0.00000000   -0.00000000   -0.00000000
     atom   12 type  3   force =     0.00000000    0.00000000    0.00000000
     atom   13 type  3   force =    -0.00000000   -0.00000000   -0.00000000
     atom   14 type  3   force =    -0.00000000    0.00000000    0.00000000
     atom   15 type  3   force =     0.00000000   -0.00000000   -0.00000000
     atom   16 type  3   force =    -0.00000000    0.00000000    0.00000000
     atom   17 type  3   force =     0.00000000   -0.00000000   -0.00000000
     atom   18 type  4   force =    -0.00000000    0.00000000    0.00000000
     atom   19 type  4   force =     0.00000000   -0.00000000    0.00000000
     atom   20 type  4   force =    -0.00000000    0.00000000   -0.00000000
     atom   21 type  4   force =    -0.00000000   -0.00000000    0.00000000
     atom   22 type  4   force =     0.00000000    0.00000000   -0.00000000
     atom   23 type  5   force =     0.00487739   -0.00034933   -0.00070676

     Total force =     5.714237     Total SCF correction =     0.004941

     Entering Dynamics:    iteration =     3
                           time      =   0.0015 pico-seconds


ATOMIC_POSITIONS (angstrom)
Hf            1.8699999570        1.8699999570        7.0100002690    0   0   0
[...]
     atom   6 (R=0.215)  charge= 10.9867    0.1077
     atom   7 (R=0.215)  charge= 10.9843    0.0752
     atom   8 (R=0.045)  charge= -0.0405    0.0000
     atom   9 (R=0.045)  charge= -0.0455   -0.0000
     atom  10 (R=0.045)  charge=  0.1441    0.0001
     atom  11 (R=0.045)  charge=  0.1438    0.0001
     atom  12 (R=0.045)  charge=  0.1443    0.0001
     atom  13 (R=0.045)  charge=  0.1445    0.0001
     atom  14 (R=0.045)  charge=  0.1438    0.0001
     atom  15 (R=0.045)  charge=  0.1435    0.0001
     atom  16 (R=0.045)  charge=  0.1433    0.0001
     atom  17 (R=0.045)  charge=  0.1436    0.0001
     atom  18 (R=0.164)  charge=  8.0732    0.0102
     atom  19 (R=0.164)  charge=  8.1477   -0.0022
     atom  20 (R=0.164)  charge=  8.1462   -0.0019
     atom  21 (R=0.164)  charge=  8.1496   -0.0023
     atom  22 (R=0.164)  charge=  8.1477   -0.0019
     atom  23 (R=0.045)  charge=  0.3881    0.0008

     total cpu time spent up to now is     1446.8 secs

     End of self-consistent calculation

 ------ SPIN UP ------------


          k = 0.0000 0.0000 0.0000 ( 32720 PWs)   bands (ev):

  -151.8660-151.8526-151.8333-151.8223-144.8633-144.8159 -59.3127 -59.2972
   -57.8316 -57.8234 -57.6999 -57.6908 -57.6517 -57.6375 -53.6673 -53.6213
   -53.6075 -53.2402 -53.2268 -51.3595 -47.8415 -47.0527 -46.6123 -46.4038
   -46.1792 -45.9489 -45.8061 -38.4404 -38.4400 -32.6115 -32.1816 -32.1548
   -31.1917 -31.1721 -28.9109 -28.8981 -27.8454 -27.8318 -23.7758 -22.1107
   -20.9000 -18.3690 -18.2258 -17.7936 -17.7410 -17.5908 -14.8250 -14.7765
   -14.7214 -14.6972 -14.6228 -14.5595 -14.5431 -14.5278 -14.5160 -11.9675
   -11.9151 -11.7797 -11.7410 -10.8523 -10.8167 -10.7437 -10.2086 -10.1496
   -10.0903 -10.0211  -9.9318  -9.9109  -9.5186  -9.4906  -9.4615  -9.4448
    -9.4036  -9.3612  -8.8555  -8.8418  -7.6810  -7.6618  -5.5388  -5.5249
    -5.4924  -3.4863  -3.4668  -3.4269  -2.8615  -1.7997   0.0515   0.2743
     0.4030   0.4302   0.4877   0.5332   0.6697   2.4550   4.8333   5.4801
     5.8724   6.3669   7.0077   7.7484   7.9467   9.2014   9.3032   9.4116
     9.8786   9.9496  10.0784  10.8225  11.0014  11.4662  11.6466  11.6940
    11.7678  12.2519  12.4636  12.7980  12.8953  12.9892  13.8023  14.0923
    14.2791  14.2856  14.3844  14.7294  14.7539  14.8181  14.9596  14.9786
    15.1938  15.3322  15.4022  15.4574  15.5547  15.8523  16.0653  16.1691
    16.1853  16.2539  16.3246  16.4577  16.5753  16.6500  16.7004  16.7584
    16.8793  16.9384  16.9918  17.4603  18.0900  18.1516  18.2511  18.2549
    18.3708  18.5417  18.6270  18.7103  18.8647  18.8827  18.9553  19.0216
    19.1398  19.2282  19.4176  19.6125  19.7312  19.8597  19.8707

 ------ SPIN DOWN ----------


          k = 0.0000 0.0000 0.0000 ( 32720 PWs)   bands (ev):

  -151.8653-151.8521-151.8323-151.8217-144.8632-144.8158 -59.3110 -59.2959
   -57.8308 -57.8229 -57.6983 -57.6897 -57.6510 -57.6371 -53.6557 -53.6191
   -53.6059 -53.2379 -53.2252 -51.3506 -47.8413 -47.0524 -46.6120 -46.4035
   -46.1789 -45.9462 -45.8059 -38.3994 -38.3782 -32.6017 -32.1835 -32.1570
   -31.1936 -31.1743 -28.9068 -28.8952 -27.8413 -27.8290 -23.7595 -22.1102
   -20.8996 -18.3559 -18.2123 -17.7830 -17.7290 -17.5787 -14.8076 -14.7618
   -14.6836 -14.6628 -14.6175 -14.4929 -14.4807 -14.4655 -14.4502 -11.9631
   -11.9121 -11.7822 -11.7431 -10.8473 -10.8044 -10.7292 -10.2104 -10.1517
   -10.0933 -10.0237  -9.9305  -9.9088  -9.5202  -9.4917  -9.4603  -9.4439
    -9.4064  -9.3638  -8.8527  -8.8397  -7.6828  -7.6641  -5.5346  -5.5217
    -5.4917  -3.4855  -3.4647  -3.4249  -2.8608  -1.7994   0.0533   0.2754
     0.4047   0.4317   0.4893   0.5345   0.6704   2.4559   4.8347   5.4828
     5.8759   6.3684   7.0085   7.7633   7.9630   9.2067   9.3107   9.4187
     9.8860   9.9679  10.0843  10.8318  11.0031  11.4712  11.6517  11.7000
    11.7793  12.2604  12.4691  12.8224  12.9102  13.0031  13.8168  14.0979
    14.2981  14.3061  14.4058  14.7396  14.7584  14.8215  14.9785  14.9823
    15.2101  15.3310  15.4129  15.4670  15.5763  15.8630  16.0891  16.1748
    16.2248  16.2882  16.3835  16.4946  16.6098  16.6637  16.7137  16.7731
    16.9014  16.9644  17.0043  17.4784  18.1100  18.1794  18.2609  18.2752
    18.3735  18.5639  18.6431  18.7262  18.8760  18.8913  18.9714  19.0465
    19.1502  19.2366  19.4211  19.6256  19.7393  19.8661  19.8674

     the Fermi energy is    16.3816 ev

!    total energy              =   -2625.35146525 Ry
     estimated scf accuracy    <       0.00021532 Ry
     smearing contrib. (-TS)   =      -0.07585374 Ry
     internal energy E=F+TS    =   -2625.27561151 Ry

     total magnetization       =     0.37 Bohr mag/cell
     absolute magnetization    =     0.45 Bohr mag/cell

     convergence has been achieved in   7 iterations

     negative rho (up, down):  6.780E-01 6.782E-01

     Forces acting on atoms (cartesian axes, Ry/au):

     atom    1 type  1   force =    -0.00137022    0.06991065   -0.01576501
     atom    2 type  1   force =     0.65157643   63.77242876    0.01031784
     atom    3 type  1   force =     0.65120798  -63.77438235   -0.01232593
     atom    4 type  1   force =    -0.65224113   63.75328091    0.01243182
     atom    5 type  1   force =    -0.65181934  -63.75511505   -0.01482678
     atom    6 type  2   force =     0.00505099    0.05935032    0.00553829
     atom    7 type  2   force =     0.00531709   -0.06001971    0.00186710
     atom    8 type  3   force =     7.27078212    0.08179903   -0.13384466
     atom    9 type  3   force =    -0.57384319   -0.00175970   -0.00468850
     atom   10 type  3   force =     0.74610953  110.11961699   -0.05851948
     atom   11 type  3   force =     0.76464253  110.11045607    0.05118265
     atom   12 type  3   force =     0.75937741 -110.10998809   -0.05083187
     atom   13 type  3   force =     0.74173532 -110.12184882    0.05830861
     atom   14 type  3   force =    -0.75263468  110.10432321   -0.05436551
     atom   15 type  3   force =    -0.76040663  110.09811540    0.05179913
     atom   16 type  3   force =    -0.75409929 -110.09424479   -0.05207905
     atom   17 type  3   force =    -0.74693400 -110.10949999    0.05508126
     atom   18 type  4   force =     0.00060789   -0.05507858    0.01918359
     atom   19 type  4   force =     0.19370465   -0.01062454   -0.01750070
     atom   20 type  4   force =     0.19820417    0.00991820    0.01524458
     atom   21 type  4   force =    -0.19281202   -0.01068742   -0.01632305
     atom   22 type  4   force =    -0.19704869    0.01028032    0.01407325
     atom   23 type  5   force =    -6.70510691   -0.08623082    0.13604245
     The non-local contrib.  to forces
     atom    1 type  1   force =    -0.00124313   -0.30335886   -0.03279175
     atom    2 type  1   force =    -0.39370917  -60.70006845    0.01600950
     atom    3 type  1   force =    -0.39417530   60.69890231   -0.01780935
     atom    4 type  1   force =     0.39462078  -60.71494369    0.01630390
     atom    5 type  1   force =     0.39535795   60.71502847   -0.01904839
     atom    6 type  2   force =    -0.00496066   -0.00712332    0.00786047
     atom    7 type  2   force =    -0.00293974    0.01737371   -0.01175059
     atom    8 type  3   force =    -1.97369320   -0.00551895    0.01295039
     atom    9 type  3   force =     0.37140763    0.00959501   -0.01264367
     atom   10 type  3   force =    -0.65399469  -42.48841537    0.01238944
     atom   11 type  3   force =    -0.62987987  -42.46562272   -0.03231872
     atom   12 type  3   force =    -0.63116299   42.46559095    0.02932417
     atom   13 type  3   force =    -0.65926026   42.48625107   -0.01249339
     atom   14 type  3   force =     0.64598701  -42.50014740    0.01723261
     atom   15 type  3   force =     0.62699057  -42.47413815   -0.03461309
     atom   16 type  3   force =     0.62858705   42.47733264    0.03140596
     atom   17 type  3   force =     0.65197538   42.49603809   -0.01686833
     atom   18 type  4   force =     0.00159535    0.02434244   -0.00042309
     atom   19 type  4   force =    -0.14819934    0.00533426   -0.03561230
     atom   20 type  4   force =    -0.15305415   -0.00374436    0.03957599
     atom   21 type  4   force =     0.14631807    0.00489817   -0.03694044
     atom   22 type  4   force =     0.15090518   -0.00334183    0.04159583
     atom   23 type  5   force =    -0.17029223   -0.00136155    0.00348006
     The ionic contribution  to forces
     atom    1 type  1   force =     0.08923604   13.26109296   15.70285756
     atom    2 type  1   force =    11.93478313  164.75536110    0.15769135
     atom    3 type  1   force =    11.93391123 -164.76496702   -0.16524536
     atom    4 type  1   force =   -11.95749041  164.79498101    0.15803884
     atom    5 type  1   force =   -11.95647658 -164.80251391   -0.16490301
     atom    6 type  2   force =     0.09461865   14.55736272  -16.68427721
     atom    7 type  2   force =     0.09537653  -14.55287669   16.67906787
     atom    8 type  3   force =    13.99978255    0.14194873   -0.22220766
     atom    9 type  3   force =    -4.86928483    0.02125330   -0.03449845
     atom   10 type  3   force =    18.45536789  194.36922446  -26.42525310
     atom   11 type  3   force =    18.57998018  195.06282296   26.26085247
     atom   12 type  3   force =    18.57951393 -195.06549380  -26.25715881
     atom   13 type  3   force =    18.45568039 -194.37033305   26.42794397
     atom   14 type  3   force =   -18.46067282  194.37279119  -26.41360690
     atom   15 type  3   force =   -18.58539881  195.06650713   26.24896868
     atom   16 type  3   force =   -18.58479829 -195.06888742  -26.24558517
     atom   17 type  3   force =   -18.46107782 -194.37383831   26.41613494
     atom   18 type  4   force =     0.08617668  -13.26569794  -15.70204044
     atom   19 type  4   force =     6.46815957    0.36972113  -25.22593008
     atom   20 type  4   force =     6.47036280   -0.36736302   25.23637277
     atom   21 type  4   force =    -6.48373270    0.36956030  -25.16331002
     atom   22 type  4   force =    -6.48637713   -0.36753122   25.17140611
     atom   23 type  5   force =    -9.39764018   -0.14312460    0.24468166
     The local contribution  to forces
     atom    1 type  1   force =    -0.09116386  -12.87663914  -15.70247030
     atom    2 type  1   force =   -10.84854989  -30.64070665   -0.16610289
     atom    3 type  1   force =   -10.84750662   30.64348511    0.17430690
     atom    4 type  1   force =    10.86994117  -30.68502165   -0.16485764
     atom    5 type  1   force =    10.86862259   30.68466150    0.17310049
     atom    6 type  2   force =    -0.08656265  -14.48647747   16.70139400
     atom    7 type  2   force =    -0.08910998   14.47217158  -16.68464430
     atom    8 type  3   force =    -4.56464061   -0.04933200    0.07324640
     atom    9 type  3   force =     3.93183520   -0.02857310    0.04305889
     atom   10 type  3   force =   -17.01607555  -36.63885146   26.37923596
     atom   11 type  3   force =   -17.14507870  -37.36449678  -26.20209763
     atom   12 type  3   force =   -17.14729199   37.36286504   26.20265390
     atom   13 type  3   force =   -17.01582429   36.63507922  -26.38167484
     atom   14 type  3   force =    17.02262840  -36.64478081   26.36624670
     atom   15 type  3   force =    17.15814467  -37.37113421  -26.18666480
     atom   16 type  3   force =    17.16086245   37.36925056   26.18723555
     atom   17 type  3   force =    17.02305997   36.64015209  -26.36791167
     atom   18 type  4   force =    -0.08878918   13.18511561   15.74079615
     atom   19 type  4   force =    -6.13009385   -0.38374707   25.26255675
     atom   20 type  4   force =    -6.12382933    0.38373639  -25.27833753
     atom   21 type  4   force =     6.14811574   -0.38328143   25.20130777
     atom   22 type  4   force =     6.14288697    0.38387165  -25.21543462
     atom   23 type  5   force =     2.86411083    0.05848007   -0.11222015
     The core correction contribution to forces
     atom    1 type  1   force =     0.00008933   -0.01238847    0.00181519
     atom    2 type  1   force =    -0.04027183   -9.64568462    0.00314010
     atom    3 type  1   force =    -0.03964486    9.64610962   -0.00315119
     atom    4 type  1   force =     0.04011511   -9.64569051    0.00328615
     atom    5 type  1   force =     0.03940297    9.64606671   -0.00358619
     atom    6 type  2   force =     0.00014199   -0.00632166    0.00004948
     atom    7 type  2   force =     0.00001558    0.00569820    0.00012589
     atom    8 type  3   force =    -0.18492852   -0.00104457    0.00130002
     atom    9 type  3   force =    -0.01154504    0.00034259   -0.00147044
     atom   10 type  3   force =    -0.03908123   -5.12336607    0.00461960
     atom   11 type  3   force =    -0.04193237   -5.12421498   -0.00472064
     atom   12 type  3   force =    -0.04089922    5.12426922    0.00453594
     atom   13 type  3   force =    -0.03990677    5.12338815   -0.00561241
     atom   14 type  3   force =     0.03902003   -5.12457536    0.00496888
     atom   15 type  3   force =     0.04110153   -5.12508619   -0.00491836
     atom   16 type  3   force =     0.04022512    5.12534215    0.00470705
     atom   17 type  3   force =     0.03990533    5.12445452   -0.00596551
     atom   18 type  4   force =    -0.00012493    0.00352375    0.00055872
     atom   19 type  4   force =     0.00632378    0.00004172   -0.00144705
     atom   20 type  4   force =     0.00640380    0.00008649    0.00145016
     atom   21 type  4   force =    -0.00621094    0.00005883   -0.00142902
     atom   22 type  4   force =    -0.00626476    0.00007339    0.00141337
     atom   23 type  5   force =     0.00000000    0.00000000    0.00000000
     The Hubbard contrib.    to forces
     atom    1 type  1   force =     0.00000000    0.00000000    0.00000000
     atom    2 type  1   force =     0.00000000    0.00000000    0.00000000
     atom    3 type  1   force =     0.00000000    0.00000000    0.00000000
     atom    4 type  1   force =     0.00000000    0.00000000    0.00000000
     atom    5 type  1   force =     0.00000000    0.00000000    0.00000000
     atom    6 type  2   force =     0.00000000    0.00000000    0.00000000
     atom    7 type  2   force =     0.00000000    0.00000000    0.00000000
     atom    8 type  3   force =     0.00000000    0.00000000    0.00000000
     atom    9 type  3   force =     0.00000000    0.00000000    0.00000000
     atom   10 type  3   force =     0.00000000    0.00000000    0.00000000
     atom   11 type  3   force =     0.00000000    0.00000000    0.00000000
     atom   12 type  3   force =     0.00000000    0.00000000    0.00000000
     atom   13 type  3   force =     0.00000000    0.00000000    0.00000000
     atom   14 type  3   force =     0.00000000    0.00000000    0.00000000
     atom   15 type  3   force =     0.00000000    0.00000000    0.00000000
     atom   16 type  3   force =     0.00000000    0.00000000    0.00000000
     atom   17 type  3   force =     0.00000000    0.00000000    0.00000000
     atom   18 type  4   force =     0.00000000    0.00000000    0.00000000
     atom   19 type  4   force =     0.00000000    0.00000000    0.00000000
     atom   20 type  4   force =     0.00000000    0.00000000    0.00000000
     atom   21 type  4   force =     0.00000000    0.00000000    0.00000000
     atom   22 type  4   force =     0.00000000    0.00000000    0.00000000
     atom   23 type  5   force =     0.00000000    0.00000000    0.00000000
     The SCF correction term to forces
     atom    1 type  1   force =     0.00000000    0.00000000    0.00000000
     atom    2 type  1   force =    -0.00000000    0.00000000   -0.00000000
     atom    3 type  1   force =    -0.00000000    0.00000000   -0.00000000
     atom    4 type  1   force =     0.00000000    0.00000000   -0.00000000
     atom    5 type  1   force =     0.00000000    0.00000000   -0.00000000
     atom    6 type  2   force =     0.00000000    0.00000000   -0.00000000
     atom    7 type  2   force =     0.00000000   -0.00000000    0.00000000
     atom    8 type  3   force =    -0.00000000   -0.00000000    0.00000000
     atom    9 type  3   force =     0.00000000   -0.00000000    0.00000000
     atom   10 type  3   force =    -0.00000000    0.00000000   -0.00000000
     atom   11 type  3   force =     0.00000000    0.00000000    0.00000000
     atom   12 type  3   force =    -0.00000000    0.00000000   -0.00000000
     atom   13 type  3   force =     0.00000000    0.00000000    0.00000000
     atom   14 type  3   force =     0.00000000    0.00000000   -0.00000000
     atom   15 type  3   force =    -0.00000000    0.00000000    0.00000000
     atom   16 type  3   force =     0.00000000    0.00000000   -0.00000000
     atom   17 type  3   force =    -0.00000000    0.00000000    0.00000000
     atom   18 type  4   force =     0.00000000   -0.00000000   -0.00000000
     atom   19 type  4   force =    -0.00000000   -0.00000000   -0.00000000
     atom   20 type  4   force =    -0.00000000   -0.00000000    0.00000000
     atom   21 type  4   force =     0.00000000   -0.00000000   -0.00000000
     atom   22 type  4   force =     0.00000000   -0.00000000    0.00000000
     atom   23 type  5   force =    -0.00144937   -0.00027622    0.00007157

     Total force =     6.707041     Total SCF correction =     0.001477

     Entering Dynamics:    iteration =     8
                           time      =   0.0041 pico-seconds


ATOMIC_POSITIONS (angstrom)
Hf            1.8699999570        1.8699999570        7.0100002690    0   0   0
Hf            0.2000000000        0.2000000000        5.3399999140    0   0   0
Hf            0.2000000000        6.8799998280        5.3399999140    0   0   0
Hf            3.5399999140        0.2000000000        5.3399999140    0   0   0
Hf            3.5399999140        6.8799998280        5.3399999140    0   0   0
Nb            1.8699999570        1.8699999570        3.6699999570    0   0   0
Nb            1.8699999570        5.2100002690        7.0100002690    0   0   0
Ta            0.2000000000        3.5399999140        5.3399999140    0   0   0
Ta            3.5399999140        3.5399999140        5.3399999140    0   0   0
Ta            0.2000000000        0.2000000000        2.0000000000    0   0   0
Ta            0.2000000000        0.2000000000        8.6799998280    0   0   0
Ta            0.2000000000        6.8799998280        2.0000000000    0   0   0
Ta            0.2000000000        6.8799998280        8.6799998280    0   0   0
Ta            3.5399999140        0.2000000000        2.0000000000    0   0   0
Ta            3.5399999140        0.2000000000        8.6799998280    0   0   0
Ta            3.5399999140        6.8799998280        2.0000000000    0   0   0
Ta            3.5399999140        6.8799998280        8.6799998280    0   0   0
Zr            1.8699999570        5.2100002690        3.6699999570    0   0   0
Zr            0.2000000000        3.5399999140        2.0000000000    0   0   0
Zr            0.2000000000        3.5399999140        8.6799998280    0   0   0
Zr            3.5399999140        3.5399999140        2.0000000000    0   0   0
Zr            3.5399999140        3.5399999140        8.6799998280    0   0   0
H             4.6195349981        3.5239227255        5.3651086516


     kinetic energy (Ekin) =           1.87008075 Ry
     temperature           =      196841.59820960 K 
     Ekin + Etot (const)   =       -2623.48138450 Ry

     Writing config-only to output data dir outdir/pwscf.save/
     NEW-OLD atomic charge density approx. for the potential

     Check: negative core charge=   -0.000002

     negative rho (up, down):  6.793E-01 6.795E-01
     Generating pointlists ...

     total cpu time spent up to now is     1460.5 secs

     Self-consistent Calculation

     iteration #  1     ecut=   120.00 Ry     beta= 0.70
     Davidson diagonalization with overlap
