
     Program PWSCF v.7.2 starts on  8Jun2023 at 15:54: 4 

     This program is part of the open-source Quantum ESPRESSO suite
     for quantum simulation of materials; please cite
         "P. Giannozzi et al., J. Phys.:Condens. Matter 21 395502 (2009);
         "P. Giannozzi et al., J. Phys.:Condens. Matter 29 465901 (2017);
         "P. Giannozzi et al., J. Chem. Phys. 152 154105 (2020);
          URL http://www.quantum-espresso.org", 
     in publications or presentations arising from this work. More details at
     http://www.quantum-espresso.org/quote

     Parallel version (MPI), running on    12 processors

     MPI processes distributed on     1 nodes
     70131 MiB available memory on the printing compute node when the environment starts

     Reading input from md_Hf5Nb2Ta10Zr5H_15steps_1000eV_incident45_polar45.in
Warning: card &CELL ignored
Warning: card / ignored

     Current dimensions of program PWSCF are:
     Max number of different atomic species (ntypx) = 10
     Max number of k-points (npk) =  40000
     Max angular momentum in pseudopotentials (lmaxx) =  4

     File outdir/pwscf.md deleted, as requested

     gamma-point specific algorithms are used

     R & G space division:  proc/nbgrp/npool/nimage =      12
     Subspace diagonalization in iterative solution of the eigenvalue problem:
     one sub-group per band group will be used
     custom distributed-memory algorithm (size of sub-group:  2*  2 procs)


     Parallelization info
     --------------------
     sticks:   dense  smooth     PW     G-vecs:    dense   smooth      PW
     Min        1118    1118    279                99774    99774   12468
     Max        1120    1120    280                99784    99784   12476
     Sum       13435   13435   3359              1197347  1197347  149669

     Using Slab Decomposition



     bravais-lattice index     =            0
     lattice parameter (alat)  =      21.4295  a.u.
     unit-cell volume          =    6741.9400 (a.u.)^3
     number of atoms/cell      =           23
     number of atomic types    =            5
     number of electrons       =       277.00
     number of Kohn-Sham states=          167
     kinetic-energy cutoff     =     120.0000  Ry
     charge density cutoff     =     480.0000  Ry
     scf convergence threshold =      1.0E-03
     mixing beta               =       0.7000
     number of iterations used =            8  TF        mixing
     energy convergence thresh.=      0.0E+00
     force convergence thresh. =      0.0E+00
     Exchange-correlation=  SLA  PW   PBX  PBC
                           (   1   4   3   4   0   0   0)
     nstep                     =           15


     celldm(1)=  21.429494  celldm(2)=   0.000000  celldm(3)=   0.000000
     celldm(4)=   0.000000  celldm(5)=   0.000000  celldm(6)=   0.000000

     crystal axes: (cart. coord. in units of alat)
               a(1) = (   1.000000   0.000000   0.000000 )  
               a(2) = (   0.000000   0.765432   0.000000 )  
               a(3) = (   0.000000   0.000000   0.895040 )  

     reciprocal axes: (cart. coord. in units 2 pi/alat)
               b(1) = (  1.000000  0.000000  0.000000 )  
               b(2) = (  0.000000  1.306452  0.000000 )  
               b(3) = (  0.000000  0.000000  1.117268 )  


     PseudoPot. # 1 for Hf read from file:
     q-e/pseudo/hf_pbe_v1.uspp.F.UPF
     MD5 check sum: 8ee9378dfe14276e333edf04c5e4aa26
     Pseudo is Ultrasoft + core correction, Zval = 12.0
     Generated by new atomic code, or converted to UPF format
     Using radial grid of  921 points,  8 beta functions with: 
                l(1) =   0
                l(2) =   0
                l(3) =   0
                l(4) =   1
                l(5) =   1
                l(6) =   2
                l(7) =   2
                l(8) =   3
     Q(r) pseudized with  6 coefficients,  rinner =    1.200   1.200   1.200
                                                       1.200   1.200   1.200
                                                       1.200

     PseudoPot. # 2 for Nb read from file:
     q-e/pseudo/nb_pbe_v1.uspp.F.UPF
     MD5 check sum: 573aab8a2fa660278ed4a62cd769473f
     Pseudo is Ultrasoft + core correction, Zval = 13.0
     Generated by new atomic code, or converted to UPF format
     Using radial grid of  887 points,  6 beta functions with: 
                l(1) =   0
                l(2) =   0
                l(3) =   1
                l(4) =   1
                l(5) =   2
                l(6) =   2
     Q(r) pseudized with  6 coefficients,  rinner =    1.000   1.000   1.000
                                                       1.000   1.000

     PseudoPot. # 3 for Ta read from file:
     q-e/pseudo/ta_pbe_v1.uspp.F.UPF
     MD5 check sum: f8bbe9446314a3b8ea5d9f3e3836c939
     Pseudo is Ultrasoft + core correction, Zval = 13.0
     Generated by new atomic code, or converted to UPF format
     Using radial grid of  921 points,  7 beta functions with: 
                l(1) =   0
                l(2) =   0
                l(3) =   1
                l(4) =   1
                l(5) =   2
                l(6) =   2
                l(7) =   3
     Q(r) pseudized with  6 coefficients,  rinner =    1.300   1.300   1.300
                                                       1.300   1.300   1.300
                                                       1.300

     PseudoPot. # 4 for Zr read from file:
     q-e/pseudo/zr_pbe_v1.uspp.F.UPF
     MD5 check sum: 5db81b1e868ab7776c4564c113de050b
     Pseudo is Ultrasoft + core correction, Zval = 12.0
     Generated by new atomic code, or converted to UPF format
     Using radial grid of  887 points,  6 beta functions with: 
                l(1) =   0
                l(2) =   0
                l(3) =   1
                l(4) =   1
                l(5) =   2
                l(6) =   2
     Q(r) pseudized with  6 coefficients,  rinner =    1.200   1.200   1.200
                                                       1.200   1.200

     PseudoPot. # 5 for H  read from file:
     q-e/pseudo/h_pbe_v1.4.uspp.F.UPF
     MD5 check sum: 761ae9a214b05c3daf00ab9f6b793d6f
     Pseudo is Ultrasoft, Zval =  1.0
     Generated by new atomic code, or converted to UPF format
     Using radial grid of  615 points,  2 beta functions with: 
                l(1) =   0
                l(2) =   0
     Q(r) pseudized with  8 coefficients,  rinner =    0.700

     atomic species   valence    mass     pseudopotential
        Hf            12.00   178.49000     Hf( 1.00)
        Nb            13.00    92.90637     Nb( 1.00)
        Ta            13.00   180.94788     Ta( 1.00)
        Zr            12.00    91.22400     Zr( 1.00)
        H              1.00     2.01400     H ( 1.00)

     Starting magnetic structure 
     atomic species   magnetization
        Hf           0.000
        Nb           0.000
        Ta           0.000
        Zr           0.000
        H            0.000

     No symmetry found



   Cartesian axes

     site n.     atom                  positions (alat units)
         1           Hf  tau(   1) = (   0.2354497   0.2493054   0.5823602  )
         2           Hf  tau(   2) = (   0.1104930   0.1134289   0.4460729  )
         3           Hf  tau(   3) = (   0.1107131   0.6516582   0.4486832  )
         4           Hf  tau(   4) = (   0.3604065   0.1134289   0.4460729  )
         5           Hf  tau(   5) = (   0.3601863   0.6516582   0.4486832  )
         6           Nb  tau(   6) = (   0.2354497   0.2466429   0.3100162  )
         7           Nb  tau(   7) = (   0.2354497   0.5181992   0.5850968  )
         8           Ta  tau(   8) = (   0.1066467   0.3827979   0.4471892  )
         9           Ta  tau(   9) = (   0.3642528   0.3827979   0.4471892  )
        10           Ta  tau(  10) = (   0.1152780   0.1158838   0.1815502  )
        11           Ta  tau(  11) = (   0.1148843   0.1153784   0.7138077  )
        12           Ta  tau(  12) = (   0.1149920   0.6504256   0.1804442  )
        13           Ta  tau(  13) = (   0.1153184   0.6494782   0.7130514  )
        14           Ta  tau(  14) = (   0.3556215   0.1158838   0.1815502  )
        15           Ta  tau(  15) = (   0.3560151   0.1153784   0.7138077  )
        16           Ta  tau(  16) = (   0.3559074   0.6504256   0.1804442  )
        17           Ta  tau(  17) = (   0.3555811   0.6494782   0.7130514  )
        18           Zr  tau(  18) = (   0.2354497   0.5173092   0.3110568  )
        19           Zr  tau(  19) = (   0.1096856   0.3811356   0.1763668  )
        20           Zr  tau(  20) = (   0.1093814   0.3839615   0.7186733  )
        21           Zr  tau(  21) = (   0.3612139   0.3811356   0.1763668  )
        22           Zr  tau(  22) = (   0.3615180   0.3839615   0.7186733  )
        23           H   tau(  23) = (   0.5513181   0.5149912   0.5795573  )

     number of k points=     1  Gaussian smearing, width (Ry)=  0.0220
                       cart. coord. in units 2pi/alat
        k(    1) = (   0.0000000   0.0000000   0.0000000), wk =   1.0000000

     Dense  grid:   598674 G-vectors     FFT dimensions: ( 150, 120, 135)

     Estimated max dynamical RAM per process >     492.22 MB

     Estimated total dynamical RAM >       5.77 GB

     Check: negative core charge=   -0.000002
     Generating pointlists ...
     new r_m :   0.0920 (alat units)  1.9717 (a.u.) for type    1
     new r_m :   0.0904 (alat units)  1.9374 (a.u.) for type    2
     new r_m :   0.0904 (alat units)  1.9374 (a.u.) for type    3
     new r_m :   0.0916 (alat units)  1.9625 (a.u.) for type    4
     new r_m :   0.1091 (alat units)  2.3386 (a.u.) for type    5

     Initial potential from superposition of free atoms

     starting charge     266.9726, renormalised to     277.0000

     negative rho (up, down):  9.211E-01 9.211E-01
     Starting wfcs are  287 randomized atomic wfcs

     total cpu time spent up to now is       36.8 secs

     Self-consistent Calculation

     iteration #  1     ecut=   120.00 Ry     beta= 0.70
     Davidson diagonalization with overlap
     ethr =  1.00E-02,  avg # of iterations =  2.0

     negative rho (up, down):  1.008E+00 1.008E+00

     total cpu time spent up to now is       98.4 secs

     total energy              =   -2927.96823333 Ry
     estimated scf accuracy    <     266.20974901 Ry

     total magnetization       =    -0.00 Bohr mag/cell
     absolute magnetization    =     0.07 Bohr mag/cell

     iteration #  2     ecut=   120.00 Ry     beta= 0.70
     Davidson diagonalization with overlap
     ethr =  1.00E-02,  avg # of iterations =  5.0

     negative rho (up, down):  9.854E-01 9.856E-01

     total cpu time spent up to now is      165.5 secs

     total energy              =   -2942.13135572 Ry
     estimated scf accuracy    <      23.55790130 Ry

     total magnetization       =     0.01 Bohr mag/cell
     absolute magnetization    =     0.15 Bohr mag/cell

     iteration #  3     ecut=   120.00 Ry     beta= 0.70
     Davidson diagonalization with overlap
     ethr =  8.50E-03,  avg # of iterations =  2.0

     negative rho (up, down):  1.027E+00 1.025E+00

     total cpu time spent up to now is      224.2 secs

     total energy              =   -2942.56757731 Ry
     estimated scf accuracy    <      10.14141225 Ry

     total magnetization       =    -0.00 Bohr mag/cell
     absolute magnetization    =     0.17 Bohr mag/cell

     iteration #  4     ecut=   120.00 Ry     beta= 0.70
     Davidson diagonalization with overlap
     ethr =  3.66E-03,  avg # of iterations =  3.0

     negative rho (up, down):  1.047E+00 1.045E+00

     total cpu time spent up to now is      282.3 secs

     total energy              =   -2942.83341133 Ry
     estimated scf accuracy    <       2.87061579 Ry

     total magnetization       =     0.01 Bohr mag/cell
     absolute magnetization    =     0.20 Bohr mag/cell

     iteration #  5     ecut=   120.00 Ry     beta= 0.70
     Davidson diagonalization with overlap
     ethr =  1.04E-03,  avg # of iterations =  8.0

     negative rho (up, down):  1.028E+00 1.028E+00

     total cpu time spent up to now is      349.5 secs

     total energy              =   -2942.98548547 Ry
     estimated scf accuracy    <       1.08563282 Ry

     total magnetization       =     0.05 Bohr mag/cell
     absolute magnetization    =     0.16 Bohr mag/cell

     iteration #  6     ecut=   120.00 Ry     beta= 0.70
     Davidson diagonalization with overlap
     ethr =  3.92E-04,  avg # of iterations =  2.0

     negative rho (up, down):  1.026E+00 1.026E+00

     total cpu time spent up to now is      407.0 secs

     total energy              =   -2943.04459159 Ry
     estimated scf accuracy    <       0.91845229 Ry

     total magnetization       =     0.04 Bohr mag/cell
     absolute magnetization    =     0.11 Bohr mag/cell

     iteration #  7     ecut=   120.00 Ry     beta= 0.70
     Davidson diagonalization with overlap
     ethr =  3.32E-04,  avg # of iterations =  1.5

     negative rho (up, down):  1.009E+00 1.009E+00

     total cpu time spent up to now is      459.2 secs

     total energy              =   -2943.01251733 Ry
     estimated scf accuracy    <       0.31169899 Ry

     total magnetization       =     0.04 Bohr mag/cell
     absolute magnetization    =     0.11 Bohr mag/cell

     iteration #  8     ecut=   120.00 Ry     beta= 0.70
     Davidson diagonalization with overlap
     ethr =  1.13E-04,  avg # of iterations =  8.0

     negative rho (up, down):  9.855E-01 9.856E-01

     total cpu time spent up to now is      521.9 secs

     total energy              =   -2943.01712995 Ry
     estimated scf accuracy    <       0.16474629 Ry

     total magnetization       =     0.05 Bohr mag/cell
     absolute magnetization    =     0.09 Bohr mag/cell

     iteration #  9     ecut=   120.00 Ry     beta= 0.70
     Davidson diagonalization with overlap
     ethr =  5.95E-05,  avg # of iterations =  4.0

     negative rho (up, down):  9.646E-01 9.646E-01

     total cpu time spent up to now is      577.7 secs

     total energy              =   -2943.00835633 Ry
     estimated scf accuracy    <       0.06942652 Ry

     total magnetization       =     0.04 Bohr mag/cell
     absolute magnetization    =     0.07 Bohr mag/cell

     iteration # 10     ecut=   120.00 Ry     beta= 0.70
     Davidson diagonalization with overlap
     ethr =  2.51E-05,  avg # of iterations = 15.5

     negative rho (up, down):  9.365E-01 9.367E-01

     total cpu time spent up to now is      642.0 secs

     total energy              =   -2942.99787628 Ry
     estimated scf accuracy    <       0.04612457 Ry

     total magnetization       =     0.03 Bohr mag/cell
     absolute magnetization    =     0.06 Bohr mag/cell

     iteration # 11     ecut=   120.00 Ry     beta= 0.70
     Davidson diagonalization with overlap
     ethr =  1.67E-05,  avg # of iterations =  4.0

     negative rho (up, down):  9.177E-01 9.177E-01

     total cpu time spent up to now is      699.5 secs

     total energy              =   -2942.99561148 Ry
     estimated scf accuracy    <       0.02708252 Ry

     total magnetization       =     0.02 Bohr mag/cell
     absolute magnetization    =     0.05 Bohr mag/cell

     iteration # 12     ecut=   120.00 Ry     beta= 0.70
     Davidson diagonalization with overlap
     ethr =  9.78E-06,  avg # of iterations =  6.0

     negative rho (up, down):  9.101E-01 9.101E-01

     total cpu time spent up to now is      757.1 secs

     total energy              =   -2943.00039648 Ry
     estimated scf accuracy    <       0.01022789 Ry

     total magnetization       =     0.01 Bohr mag/cell
     absolute magnetization    =     0.03 Bohr mag/cell

     iteration # 13     ecut=   120.00 Ry     beta= 0.70
     Davidson diagonalization with overlap
     ethr =  3.69E-06,  avg # of iterations =  7.0

     negative rho (up, down):  9.084E-01 9.084E-01

     total cpu time spent up to now is      814.7 secs

     total energy              =   -2943.00342877 Ry
     estimated scf accuracy    <       0.00265945 Ry

     total magnetization       =     0.01 Bohr mag/cell
     absolute magnetization    =     0.02 Bohr mag/cell

     iteration # 14     ecut=   120.00 Ry     beta= 0.70
     Davidson diagonalization with overlap
     c_bands:  1 eigenvalues not converged
     ethr =  9.60E-07,  avg # of iterations = 14.0

     negative rho (up, down):  9.082E-01 9.082E-01

     total cpu time spent up to now is      879.7 secs

     total energy              =   -2943.00429429 Ry
     estimated scf accuracy    <       0.00107030 Ry

     total magnetization       =     0.01 Bohr mag/cell
     absolute magnetization    =     0.02 Bohr mag/cell

     iteration # 15     ecut=   120.00 Ry     beta= 0.70
     Davidson diagonalization with overlap
     ethr =  3.86E-07,  avg # of iterations = 12.0

     negative rho (up, down):  9.082E-01 9.082E-01

     Magnetic moment per site  (integrated on atomic sphere of radius R)
     atom   1 (R=0.092)  charge=  9.4644  magn=  0.0001
     atom   2 (R=0.092)  charge=  9.0590  magn= -0.0000
     atom   3 (R=0.092)  charge=  9.0593  magn=  0.0002
     atom   4 (R=0.092)  charge=  9.0551  magn=  0.0001
     atom   5 (R=0.092)  charge=  9.0559  magn= -0.0001
     atom   6 (R=0.090)  charge= 10.3489  magn=  0.0000
     atom   7 (R=0.090)  charge= 10.3527  magn= -0.0000
     atom   8 (R=0.090)  charge=  9.8051  magn=  0.0003
     atom   9 (R=0.090)  charge=  9.7999  magn= -0.0000
     atom  10 (R=0.090)  charge=  9.7392  magn=  0.0001
     atom  11 (R=0.090)  charge=  9.7407  magn=  0.0007
     atom  12 (R=0.090)  charge=  9.7398  magn=  0.0003
     atom  13 (R=0.090)  charge=  9.7468  magn= -0.0003
     atom  14 (R=0.090)  charge=  9.7420  magn=  0.0001
     atom  15 (R=0.090)  charge=  9.7416  magn= -0.0001
     atom  16 (R=0.090)  charge=  9.7398  magn=  0.0003
     atom  17 (R=0.090)  charge=  9.7407  magn= -0.0002
     atom  18 (R=0.092)  charge=  9.4540  magn= -0.0001
     atom  19 (R=0.092)  charge=  8.9952  magn= -0.0000
     atom  20 (R=0.092)  charge=  8.9932  magn=  0.0001
     atom  21 (R=0.092)  charge=  8.9923  magn=  0.0003
     atom  22 (R=0.092)  charge=  8.9888  magn= -0.0001
     atom  23 (R=0.109)  charge=  1.2477  magn=  0.0000

     total cpu time spent up to now is      939.2 secs

     End of self-consistent calculation

 ------ SPIN UP ------------


          k = 0.0000 0.0000 0.0000 ( 74835 PWs)   bands (ev):

   -62.8343 -62.7898 -62.7670 -62.7462 -62.7212 -62.7133 -62.6785 -62.6685
   -62.6248 -62.5869 -56.4188 -56.3650 -56.2937 -56.2395 -54.7248 -48.3076
   -48.3043 -43.6812 -43.6596 -43.5832 -43.5565 -41.8359 -29.8223 -29.7932
   -29.7270 -29.7080 -29.6373 -29.5980 -29.5029 -29.4793 -29.4676 -29.3806
   -29.3477 -29.3016 -29.2919 -29.2811 -29.2538 -29.2360 -29.2083 -29.1919
   -29.1876 -29.1715 -29.1453 -29.1175 -28.9967 -28.9844 -28.9601 -28.9507
   -28.9180 -28.8925 -28.8786 -28.8637 -26.2051 -25.9947 -25.6884 -25.5978
   -25.3498 -25.2227 -25.1958 -25.0969 -24.9664 -24.8876 -24.8735 -24.6495
   -24.5491 -24.4961 -24.4288 -24.4013 -24.3155 -24.2800 -23.7869 -23.7254
   -23.6532 -22.2220 -21.9834 -21.8686 -21.8515 -21.6718 -21.6375 -21.6298
   -21.6111 -21.6020 -21.5638 -21.4023 -21.3951 -20.1809 -19.9786 -19.8499
    -0.5261   0.9074   1.1039   1.1502   1.3316   1.3964   1.4965   1.6488
     1.7020   1.8165   1.8795   2.0495   2.1717   2.4691   2.6203   2.6788
     2.7401   2.8725   3.0330   3.0910   3.1731   3.2364   3.2597   3.3467
     3.3772   3.5106   3.5447   3.6739   3.6941   3.7317   3.7531   3.7772
     3.9213   4.0557   4.1129   4.1808   4.2339   4.2757   4.3304   4.3703
     4.4612   4.5608   4.6208   4.6731   4.8568   4.8915   5.0179   5.0233
     5.0397   5.1249   5.2287   5.2790   5.3109   5.4279   5.5550   5.6024
     5.6350   5.6708   5.8237   5.9017   6.0504   6.0687   6.1075   6.1675
     6.1790   6.2626   6.3361   6.3705   6.4535   6.5065   6.5874   6.6891
     6.7289   6.7807   6.9257   7.0181   7.1164   7.1740   7.2293

 ------ SPIN DOWN ----------


          k = 0.0000 0.0000 0.0000 ( 74835 PWs)   bands (ev):

   -62.8344 -62.7897 -62.7670 -62.7460 -62.7213 -62.7132 -62.6784 -62.6684
   -62.6248 -62.5867 -56.4188 -56.3650 -56.2937 -56.2395 -54.7248 -48.3077
   -48.3042 -43.6812 -43.6593 -43.5831 -43.5563 -41.8361 -29.8223 -29.7930
   -29.7270 -29.7078 -29.6374 -29.5978 -29.5028 -29.4792 -29.4674 -29.3808
   -29.3476 -29.3016 -29.2918 -29.2811 -29.2538 -29.2360 -29.2080 -29.1919
   -29.1874 -29.1713 -29.1451 -29.1174 -28.9969 -28.9845 -28.9599 -28.9505
   -28.9179 -28.8922 -28.8785 -28.8635 -26.2050 -25.9947 -25.6884 -25.5978
   -25.3497 -25.2226 -25.1957 -25.0968 -24.9664 -24.8876 -24.8736 -24.6495
   -24.5491 -24.4961 -24.4288 -24.4013 -24.3154 -24.2800 -23.7869 -23.7254
   -23.6532 -22.2218 -21.9835 -21.8683 -21.8514 -21.6718 -21.6373 -21.6295
   -21.6109 -21.6019 -21.5638 -21.4023 -21.3949 -20.1811 -19.9787 -19.8500
    -0.5260   0.9076   1.1039   1.1502   1.3317   1.3967   1.4966   1.6488
     1.7020   1.8166   1.8797   2.0497   2.1717   2.4691   2.6203   2.6789
     2.7402   2.8727   3.0332   3.0911   3.1733   3.2365   3.2598   3.3469
     3.3772   3.5107   3.5448   3.6740   3.6941   3.7318   3.7532   3.7773
     3.9214   4.0557   4.1131   4.1809   4.2339   4.2758   4.3305   4.3704
     4.4614   4.5608   4.6209   4.6732   4.8569   4.8917   5.0186   5.0239
     5.0401   5.1251   5.2292   5.2793   5.3112   5.4283   5.5550   5.6027
     5.6351   5.6712   5.8237   5.9018   6.0507   6.0692   6.1076   6.1681
     6.1793   6.2628   6.3366   6.3706   6.4536   6.5067   6.5875   6.6894
     6.7293   6.7810   6.9263   7.0184   7.1166   7.1743   7.2383

     the Fermi energy is     5.2184 ev

!    total energy              =   -2943.00440268 Ry
     estimated scf accuracy    <       0.00051757 Ry
     smearing contrib. (-TS)   =      -0.09590014 Ry
     internal energy E=F+TS    =   -2942.90850254 Ry

     total magnetization       =     0.01 Bohr mag/cell
     absolute magnetization    =     0.01 Bohr mag/cell

     convergence has been achieved in  15 iterations

     negative rho (up, down):  9.082E-01 9.082E-01

     Forces acting on atoms (cartesian axes, Ry/au):

     atom    1 type  1   force =    -0.00368040   -0.02550005    0.00326084
     atom    2 type  1   force =    -0.11259689   -0.01372428    0.00162319
     atom    3 type  1   force =    -0.11180429    0.01115417    0.00572257
     atom    4 type  1   force =     0.11459239   -0.01384346   -0.00042467
     atom    5 type  1   force =     0.12758398    0.00365985    0.01011733
     atom    6 type  2   force =    -0.00271649   -0.01186699    0.01125999
     atom    7 type  2   force =    -0.02191827    0.00898762   -0.01626483
     atom    8 type  3   force =    -0.10328086    0.00209279   -0.00603014
     atom    9 type  3   force =     0.12487135    0.01156183    0.00767099
     atom   10 type  3   force =    -0.02127370   -0.03291308   -0.06029907
     atom   11 type  3   force =    -0.01652245   -0.03784263    0.05445288
     atom   12 type  3   force =    -0.01847597    0.03606171   -0.05441903
     atom   13 type  3   force =    -0.01978716    0.03117028    0.05688913
     atom   14 type  3   force =     0.02019930   -0.03106152   -0.05845594
     atom   15 type  3   force =     0.01519427   -0.03635937    0.05377792
     atom   16 type  3   force =     0.01838507    0.03669302   -0.05173116
     atom   17 type  3   force =     0.03518588    0.03757913    0.05164581
     atom   18 type  4   force =    -0.00048296    0.02405748   -0.00112517
     atom   19 type  4   force =    -0.12807424   -0.00436068   -0.11617796
     atom   20 type  4   force =    -0.12950189    0.00574346    0.11365734
     atom   21 type  4   force =     0.12725073   -0.00528082   -0.11560533
     atom   22 type  4   force =     0.15773605    0.00807707    0.10838344
     atom   23 type  5   force =    -0.05088344   -0.00408553    0.00207187
     The non-local contrib.  to forces
     atom    1 type  1   force =    -0.00219620   -0.01486202    0.02597659
     atom    2 type  1   force =    -0.24600609   -0.16137725    0.01612936
     atom    3 type  1   force =    -0.23805126    0.15550638   -0.02085759
     atom    4 type  1   force =     0.24869894   -0.15553557    0.02447880
     atom    5 type  1   force =     0.25639749    0.13766401    0.00117909
     atom    6 type  2   force =    -0.00248076   -0.04097998   -0.05842335
     atom    7 type  2   force =    -0.02987344    0.06033022    0.05224013
     atom    8 type  3   force =    -0.26458042    0.00669578    0.00119040
     atom    9 type  3   force =     0.27827914    0.01834007    0.02756024
     atom   10 type  3   force =    -0.20784754    0.00316850   -0.20090441
     atom   11 type  3   force =    -0.20928987    0.00075976    0.19184657
     atom   12 type  3   force =    -0.20157109   -0.01752067   -0.17788329
     atom   13 type  3   force =    -0.21131496   -0.00525854    0.20007058
     atom   14 type  3   force =     0.20126184    0.00325128   -0.21379032
     atom   15 type  3   force =     0.22316765    0.00828756    0.18688568
     atom   16 type  3   force =     0.19694018   -0.01662442   -0.18664280
     atom   17 type  3   force =     0.25892592   -0.03545231    0.15366054
     atom   18 type  4   force =    -0.00270355    0.04540869   -0.05956867
     atom   19 type  4   force =     0.05884176    0.00743341    0.07441279
     atom   20 type  4   force =     0.05037950   -0.01991512   -0.06408114
     atom   21 type  4   force =    -0.05667525    0.01343983    0.07485502
     atom   22 type  4   force =    -0.06193960   -0.00002262   -0.08574768
     atom   23 type  5   force =    -0.01369713   -0.00141523    0.00003700
     The ionic contribution  to forces
     atom    1 type  1   force =    -0.19984074   -4.65221513   13.71512131
     atom    2 type  1   force =   -47.05988591   -6.09451130    0.74143390
     atom    3 type  1   force =   -47.05017526    6.12939222   -0.77338900
     atom    4 type  1   force =    46.84529869   -6.07116980    0.67853817
     atom    5 type  1   force =    46.47874990    6.39487174   -1.03964036
     atom    6 type  2   force =    -0.12275679   -3.56018108  -13.66909125
     atom    7 type  2   force =    -0.48202451    3.55450336   13.62426174
     atom    8 type  3   force =   -60.39965903    0.02821564   -0.12606257
     atom    9 type  3   force =    59.76990932   -0.26952363   -0.43728668
     atom   10 type  3   force =   -43.36787686   -2.07225066  -22.61629667
     atom   11 type  3   force =   -42.48293329   -0.82479072   21.64868429
     atom   12 type  3   force =   -42.57141249    0.80227238  -21.67708117
     atom   13 type  3   force =   -43.39922493    2.20706627   22.64538721
     atom   14 type  3   force =    43.24361198   -2.06779354  -22.63638155
     atom   15 type  3   force =    42.24658893   -0.80301145   21.71461870
     atom   16 type  3   force =    42.40169493    0.83608890  -21.72152506
     atom   17 type  3   force =    42.78276504    2.47514484   22.92405211
     atom   18 type  4   force =    -0.18177802    4.32611248  -13.70420694
     atom   19 type  4   force =   -42.95255191    0.93567032  -25.08782012
     atom   20 type  4   force =   -42.99396954   -0.99081138   25.10578339
     atom   21 type  4   force =    42.80088231    0.90395431  -25.12709032
     atom   22 type  4   force =    42.43069089   -1.24475061   25.38738707
     atom   23 type  5   force =     4.26389728    0.05771683    0.43060380
     The local contribution  to forces
     atom    1 type  1   force =     0.19928192    4.63600998  -13.73487067
     atom    2 type  1   force =    47.21421096    6.24788758   -0.74348642
     atom    3 type  1   force =    47.19717567   -6.27993375    0.81226104
     atom    4 type  1   force =   -46.99919678    6.21917904   -0.69618399
     atom    5 type  1   force =   -46.62437021   -6.53829646    1.05648035
     atom    6 type  2   force =     0.12617431    3.59090391   13.75630068
     atom    7 type  2   force =     0.48884177   -3.59815322  -13.69223740
     atom    8 type  3   force =    60.60819377   -0.03372564    0.12741665
     atom    9 type  3   force =   -59.96615853    0.26340139    0.42464423
     atom   10 type  3   force =    43.58579021    2.02650105   22.77758211
     atom   11 type  3   force =    42.71008372    0.76933819  -21.80982916
     atom   12 type  3   force =    42.78734945   -0.74332129   21.82210384
     atom   13 type  3   force =    43.62146791   -2.15018657  -22.81248088
     atom   14 type  3   force =   -43.44849835    2.01972313   22.81217146
     atom   15 type  3   force =   -42.49014782    0.74663308  -21.86791326
     atom   16 type  3   force =   -42.60571393   -0.77379907   21.87771933
     atom   17 type  3   force =   -43.04007486   -2.38842646  -23.04636897
     atom   18 type  4   force =     0.18764257   -4.34496220   13.77324283
     atom   19 type  4   force =    42.77789307   -0.94507635   24.91588916
     atom   20 type  4   force =    42.82681666    1.01344979  -24.94705014
     atom   21 type  4   force =   -42.62529042   -0.91910991   24.95491766
     atom   22 type  4   force =   -42.22307022    1.24942632  -25.21301483
     atom   23 type  5   force =    -4.30249184   -0.06075276   -0.42785374
     The core correction contribution to forces
     atom    1 type  1   force =     0.00016716    0.00055103   -0.00094218
     atom    2 type  1   force =    -0.01255991   -0.00199658    0.00049183
     atom    3 type  1   force =    -0.01276441    0.00230414   -0.00134154
     atom    4 type  1   force =     0.01284764   -0.00132549    0.00272894
     atom    5 type  1   force =     0.01002466    0.00475580   -0.00094499
     atom    6 type  2   force =     0.00008950    0.00188890    0.00237494
     atom    7 type  2   force =     0.00122120   -0.00315763   -0.00207889
     atom    8 type  3   force =    -0.03369201    0.00085705    0.00003315
     atom    9 type  3   force =     0.03121429   -0.00097396    0.00106877
     atom   10 type  3   force =    -0.02202242    0.00985755   -0.01634159
     atom   11 type  3   force =    -0.02283090    0.00921964    0.01716270
     atom   12 type  3   force =    -0.02167956   -0.00966602   -0.01634616
     atom   13 type  3   force =    -0.02250131   -0.00983897    0.01617583
     atom   14 type  3   force =     0.02102453    0.01052050   -0.01627397
     atom   15 type  3   force =     0.02346236    0.00984483    0.01469359
     atom   16 type  3   force =     0.02181838   -0.01103079   -0.01640585
     atom   17 type  3   force =     0.02303297   -0.00685109    0.01380893
     atom   18 type  4   force =     0.00012593   -0.00242888    0.00303907
     atom   19 type  4   force =    -0.00967589    0.00011927   -0.00954423
     atom   20 type  4   force =    -0.00928896    0.00075280    0.00905272
     atom   21 type  4   force =     0.00960539   -0.00018353   -0.00963087
     atom   22 type  4   force =     0.01030276   -0.00003707    0.00988563
     atom   23 type  5   force =     0.00000000    0.00000000    0.00000000
     The Hubbard contrib.    to forces
     atom    1 type  1   force =     0.00000000    0.00000000    0.00000000
     atom    2 type  1   force =     0.00000000    0.00000000    0.00000000
     atom    3 type  1   force =     0.00000000    0.00000000    0.00000000
     atom    4 type  1   force =     0.00000000    0.00000000    0.00000000
     atom    5 type  1   force =     0.00000000    0.00000000    0.00000000
     atom    6 type  2   force =     0.00000000    0.00000000    0.00000000
     atom    7 type  2   force =     0.00000000    0.00000000    0.00000000
     atom    8 type  3   force =     0.00000000    0.00000000    0.00000000
     atom    9 type  3   force =     0.00000000    0.00000000    0.00000000
     atom   10 type  3   force =     0.00000000    0.00000000    0.00000000
     atom   11 type  3   force =     0.00000000    0.00000000    0.00000000
     atom   12 type  3   force =     0.00000000    0.00000000    0.00000000
     atom   13 type  3   force =     0.00000000    0.00000000    0.00000000
     atom   14 type  3   force =     0.00000000    0.00000000    0.00000000
     atom   15 type  3   force =     0.00000000    0.00000000    0.00000000
     atom   16 type  3   force =     0.00000000    0.00000000    0.00000000
     atom   17 type  3   force =     0.00000000    0.00000000    0.00000000
     atom   18 type  4   force =     0.00000000    0.00000000    0.00000000
     atom   19 type  4   force =     0.00000000    0.00000000    0.00000000
     atom   20 type  4   force =     0.00000000    0.00000000    0.00000000
     atom   21 type  4   force =     0.00000000    0.00000000    0.00000000
     atom   22 type  4   force =     0.00000000    0.00000000    0.00000000
     atom   23 type  5   force =     0.00000000    0.00000000    0.00000000
     The SCF correction term to forces
     atom    1 type  1   force =    -0.00000000    0.00000000   -0.00000000
     atom    2 type  1   force =    -0.00819615   -0.00379738   -0.01221071
     atom    3 type  1   force =    -0.00782924    0.00381452   -0.01021557
     atom    4 type  1   force =     0.00710370   -0.00506229   -0.00925183
     atom    5 type  1   force =     0.00694194    0.00459412   -0.00622198
     atom    6 type  2   force =    -0.00358295   -0.00356938   -0.01916626
     atom    7 type  2   force =     0.00007652   -0.00460576    0.00228436
     atom    8 type  3   force =    -0.01338337   -0.00002069   -0.00787298
     atom    9 type  3   force =     0.01178693    0.00024732   -0.00758079
     atom   10 type  3   force =    -0.00915731   -0.00026017   -0.00360374
     atom   11 type  3   force =    -0.01139232    0.00755985    0.00732326
     atom   12 type  3   force =    -0.01100249    0.00422667   -0.00447747
     atom   13 type  3   force =    -0.00805407   -0.01068256    0.00847115
     atom   14 type  3   force =     0.00295909    0.00316646   -0.00344678
     atom   15 type  3   force =     0.01228294    0.00181595    0.00622798
     atom   16 type  3   force =     0.00380531    0.00198774   -0.00414200
     atom   17 type  3   force =     0.01069661   -0.00690651    0.00722798
     atom   18 type  4   force =    -0.00361010   -0.00014327   -0.01289667
     atom   19 type  4   force =    -0.00242147   -0.00257799   -0.00838079
     atom   20 type  4   force =    -0.00327975    0.00219673    0.01068730
     atom   21 type  4   force =    -0.00111151   -0.00345217   -0.00792204
     atom   22 type  4   force =     0.00191201    0.00339040    0.01060802
     atom   23 type  5   force =     0.00156805    0.00029498    0.00001959

     Total force =     0.499904     Total SCF correction =     0.057934
     SCF correction compared to forces is large: reduce conv_thr to get better values

     Molecular Dynamics Calculation

     Starting temperature  =   300.00 K

     temperature is set once at start

     mass Hf               =   178.49
     mass Nb               =    92.91
     mass Ta               =   180.95
     mass Zr               =    91.22
     mass H                =     2.01
     Time step             =     4.20 a.u.,  0.2032 femto-seconds

     Entering Dynamics:    iteration =     1
                           time      =   0.0002 pico-seconds


ATOMIC_POSITIONS (angstrom)
Hf            2.6699999570        2.8271230292        6.6039642186    0   0   0
Hf            1.2529874498        1.2862837877        5.0584662727
Hf            1.2554836910        7.3898046148        5.0880679316
Hf            4.0870125214        1.2862837842        5.0584662139
Hf            4.0845166757        7.3898043998        5.0880680577
Nb            2.6699998073        2.7969299514        3.5155838373
Nb            2.6699987489        5.8763791717        6.6349970467
Ta            1.2093701332        4.3409279108        5.0711256616
Ta            4.1306303919        4.3409281788        5.0711260494
Ta            1.3072520821        1.3141216580        2.0587774036
Ta            1.3027878466        1.3083900651        8.0945807434
Ta            1.3040090992        7.3758271446        2.0462356397
Ta            1.3077102384        7.3650838305        8.0860038308
Ta            4.0327478015        1.3141217104        2.0587774558
Ta            4.0372120298        1.3083901070        8.0945807243
Ta            4.0359908122        7.3758271625        2.0462357158
Ta            4.0322901114        7.3650840119        8.0860036824
Zr            2.6699999299        5.8662871939        3.5273838672
Zr            1.2438274296        4.3220777197        1.9999934784
Zr            1.2403781432        4.3541236069        8.1497619294
Zr            4.0961724382        4.3220776681        1.9999935105
Zr            4.0996233557        4.3541237379        8.1497616334
H             5.9373500337        5.8399895623        6.5721850628


     kinetic energy (Ekin) =          18.37431130 Ry
     temperature           =       87911.34250823 K 
     Ekin + Etot (const)   =       -2924.63009138 Ry

     File outdir/pwscf.msd.dat deleted, as requested

     Writing config-only to output data dir outdir/pwscf.save/
     NEW-OLD atomic charge density approx. for the potential

     Check: negative core charge=   -0.000002

     negative rho (up, down):  9.082E-01 9.082E-01
     Generating pointlists ...
     new r_m :   0.1014 (alat units)  2.1721 (a.u.) for type    5

     total cpu time spent up to now is      973.1 secs

     Self-consistent Calculation

     iteration #  1     ecut=   120.00 Ry     beta= 0.70
     Davidson diagonalization with overlap
     c_bands:  1 eigenvalues not converged
     ethr =  1.00E-06,  avg # of iterations = 19.5

     negative rho (up, down):  9.080E-01 9.080E-01

     total cpu time spent up to now is     1084.9 secs

     total energy              =   -2943.02748409 Ry
     estimated scf accuracy    <       0.06727941 Ry

     total magnetization       =     0.01 Bohr mag/cell
     absolute magnetization    =     0.01 Bohr mag/cell

     iteration #  2     ecut=   120.00 Ry     beta= 0.70
     Davidson diagonalization with overlap
     ethr =  2.43E-05,  avg # of iterations =  2.0

     negative rho (up, down):  9.081E-01 9.081E-01

     total cpu time spent up to now is     1139.7 secs

     total energy              =   -2943.03168117 Ry
     estimated scf accuracy    <       0.04785397 Ry

     total magnetization       =     0.00 Bohr mag/cell
     absolute magnetization    =     0.01 Bohr mag/cell

     iteration #  3     ecut=   120.00 Ry     beta= 0.70
     Davidson diagonalization with overlap
     ethr =  1.73E-05,  avg # of iterations =  1.0

     negative rho (up, down):  9.081E-01 9.081E-01

     total cpu time spent up to now is     1188.1 secs

     total energy              =   -2943.03432605 Ry
     estimated scf accuracy    <       0.00207594 Ry

     total magnetization       =     0.00 Bohr mag/cell
     absolute magnetization    =     0.01 Bohr mag/cell

     iteration #  4     ecut=   120.00 Ry     beta= 0.70
     Davidson diagonalization with overlap
     ethr =  7.49E-07,  avg # of iterations =  6.5

     negative rho (up, down):  9.082E-01 9.082E-01

     total cpu time spent up to now is     1248.4 secs

     total energy              =   -2943.03436302 Ry
     estimated scf accuracy    <       0.00111510 Ry

     total magnetization       =     0.00 Bohr mag/cell
     absolute magnetization    =     0.01 Bohr mag/cell

     iteration #  5     ecut=   120.00 Ry     beta= 0.70
     Davidson diagonalization with overlap
     ethr =  4.03E-07,  avg # of iterations =  2.0

     negative rho (up, down):  9.082E-01 9.082E-01

     Magnetic moment per site  (integrated on atomic sphere of radius R)
     atom   1 (R=0.092)  charge=  9.4641  magn= -0.0000
     atom   2 (R=0.092)  charge=  9.0586  magn=  0.0000
     atom   3 (R=0.092)  charge=  9.0586  magn=  0.0000
     atom   4 (R=0.092)  charge=  9.0558  magn=  0.0000
     atom   5 (R=0.092)  charge=  9.0573  magn=  0.0000
     atom   6 (R=0.090)  charge= 10.3458  magn=  0.0000
     atom   7 (R=0.090)  charge= 10.3537  magn=  0.0000
     atom   8 (R=0.090)  charge=  9.8025  magn=  0.0000
     atom   9 (R=0.090)  charge=  9.7980  magn= -0.0000
     atom  10 (R=0.090)  charge=  9.7439  magn=  0.0000
     atom  11 (R=0.090)  charge=  9.7337  magn=  0.0005
     atom  12 (R=0.090)  charge=  9.7431  magn=  0.0002
     atom  13 (R=0.090)  charge=  9.7406  magn=  0.0000
     atom  14 (R=0.090)  charge=  9.7454  magn=  0.0001
     atom  15 (R=0.090)  charge=  9.7352  magn=  0.0001
     atom  16 (R=0.090)  charge=  9.7404  magn=  0.0002
     atom  17 (R=0.090)  charge=  9.7394  magn=  0.0000
     atom  18 (R=0.092)  charge=  9.4514  magn=  0.0000
     atom  19 (R=0.092)  charge=  8.9982  magn=  0.0001
     atom  20 (R=0.092)  charge=  8.9948  magn=  0.0000
     atom  21 (R=0.092)  charge=  8.9953  magn=  0.0001
     atom  22 (R=0.092)  charge=  8.9900  magn= -0.0000
     atom  23 (R=0.101)  charge=  1.2361  magn=  0.0000

     total cpu time spent up to now is     1310.2 secs

     End of self-consistent calculation

 ------ SPIN UP ------------


          k = 0.0000 0.0000 0.0000 ( 74835 PWs)   bands (ev):

   -62.7940 -62.7558 -62.7194 -62.7131 -62.6787 -62.6689 -62.6345 -62.6248
   -62.5732 -62.5410 -56.3732 -56.3215 -56.2465 -56.1947 -54.6837 -48.2785
   -48.2530 -43.6434 -43.6208 -43.5498 -43.5184 -41.7825 -29.7758 -29.7563
   -29.6786 -29.6717 -29.5923 -29.5622 -29.4552 -29.4348 -29.4236 -29.3427
   -29.3115 -29.2567 -29.2529 -29.2370 -29.2117 -29.1878 -29.1622 -29.1476
   -29.1461 -29.1235 -29.1008 -29.0680 -28.9523 -28.9355 -28.9253 -28.9139
   -28.8670 -28.8563 -28.8279 -28.8265 -26.1594 -25.9498 -25.6438 -25.5529
   -25.3034 -25.1828 -25.1542 -25.0556 -24.9211 -24.8442 -24.8280 -24.6040
   -24.5097 -24.4514 -24.3874 -24.3677 -24.2685 -24.2379 -23.7455 -23.6840
   -23.6103 -22.1811 -21.9433 -21.8282 -21.8129 -21.6382 -21.6019 -21.5922
   -21.5761 -21.5632 -21.5282 -21.3613 -21.3562 -20.1277 -19.9277 -19.7991
    -0.5131   0.9225   1.0829   1.1470   1.3573   1.3850   1.5225   1.6890
     1.7115   1.8006   1.9199   2.0530   2.1765   2.5112   2.6354   2.7218
     2.7793   2.8633   3.0735   3.1318   3.1718   3.2765   3.3021   3.3697
     3.4038   3.5515   3.5832   3.7140   3.7375   3.7712   3.7917   3.8122
     3.9639   4.0945   4.1551   4.2184   4.2760   4.3198   4.3708   4.4107
     4.4970   4.5981   4.6618   4.7114   4.8953   4.9513   5.0546   5.0635
     5.0787   5.1742   5.2706   5.3232   5.3508   5.4907   5.5959   5.6411
     5.6707   5.7073   5.8610   5.9448   6.0851   6.1080   6.1461   6.2037
     6.2129   6.3009   6.3746   6.4071   6.5085   6.5365   6.6204   6.7281
     6.7819   6.8151   7.0013   7.0522   7.1952   7.2280   7.2719

 ------ SPIN DOWN ----------


          k = 0.0000 0.0000 0.0000 ( 74835 PWs)   bands (ev):

   -62.7940 -62.7558 -62.7194 -62.7130 -62.6786 -62.6688 -62.6344 -62.6246
   -62.5732 -62.5410 -56.3732 -56.3215 -56.2465 -56.1947 -54.6837 -48.2785
   -48.2530 -43.6434 -43.6207 -43.5497 -43.5183 -41.7824 -29.7757 -29.7562
   -29.6784 -29.6716 -29.5923 -29.5621 -29.4551 -29.4347 -29.4235 -29.3427
   -29.3114 -29.2566 -29.2528 -29.2369 -29.2116 -29.1878 -29.1621 -29.1474
   -29.1460 -29.1233 -29.1008 -29.0680 -28.9523 -28.9354 -28.9252 -28.9137
   -28.8668 -28.8561 -28.8278 -28.8264 -26.1594 -25.9497 -25.6438 -25.5529
   -25.3034 -25.1828 -25.1541 -25.0556 -24.9211 -24.8441 -24.8280 -24.6040
   -24.5097 -24.4514 -24.3874 -24.3676 -24.2685 -24.2379 -23.7456 -23.6840
   -23.6103 -22.1810 -21.9434 -21.8281 -21.8128 -21.6383 -21.6019 -21.5921
   -21.5760 -21.5631 -21.5282 -21.3612 -21.3560 -20.1277 -19.9277 -19.7991
    -0.5130   0.9227   1.0830   1.1470   1.3574   1.3852   1.5226   1.6891
     1.7115   1.8007   1.9201   2.0531   2.1766   2.5113   2.6354   2.7219
     2.7793   2.8634   3.0736   3.1319   3.1719   3.2766   3.3021   3.3698
     3.4040   3.5516   3.5833   3.7141   3.7375   3.7714   3.7918   3.8123
     3.9640   4.0946   4.1553   4.2185   4.2761   4.3200   4.3709   4.4108
     4.4972   4.5982   4.6619   4.7116   4.8954   4.9514   5.0551   5.0638
     5.0790   5.1744   5.2711   5.3234   5.3511   5.4910   5.5960   5.6413
     5.6709   5.7076   5.8611   5.9449   6.0853   6.1083   6.1462   6.2041
     6.2130   6.3010   6.3750   6.4073   6.5087   6.5366   6.6205   6.7282
     6.7822   6.8152   7.0015   7.0523   7.1952   7.2274   7.2693

     the Fermi energy is     5.2623 ev

!    total energy              =   -2943.03423624 Ry
     estimated scf accuracy    <       0.00039278 Ry
     smearing contrib. (-TS)   =      -0.09560189 Ry
     internal energy E=F+TS    =   -2942.93863435 Ry

     total magnetization       =     0.00 Bohr mag/cell
     absolute magnetization    =     0.01 Bohr mag/cell

     convergence has been achieved in   5 iterations

     negative rho (up, down):  9.082E-01 9.082E-01

     Forces acting on atoms (cartesian axes, Ry/au):

     atom    1 type  1   force =    -0.00433641   -0.02383678    0.00333333
     atom    2 type  1   force =    -0.11712140   -0.01475317   -0.00451934
     atom    3 type  1   force =    -0.11478354    0.01308818    0.00006744
     atom    4 type  1   force =     0.11774597   -0.01387079   -0.00624201
     atom    5 type  1   force =     0.12732267    0.00457004    0.00542680
     atom    6 type  2   force =    -0.00281758   -0.01378367    0.01030453
     atom    7 type  2   force =    -0.02301618    0.00887497   -0.01518571
     atom    8 type  3   force =    -0.10424797    0.00147995   -0.00632001
     atom    9 type  3   force =     0.12552132    0.01045994    0.00760982
     atom   10 type  3   force =    -0.02120172   -0.03404321   -0.05964917
     atom   11 type  3   force =    -0.01806210   -0.03593245    0.05776984
     atom   12 type  3   force =    -0.01909684    0.03745785   -0.05457335
     atom   13 type  3   force =    -0.01806900    0.02779372    0.06089267
     atom   14 type  3   force =     0.02055336   -0.03136154   -0.05804807
     atom   15 type  3   force =     0.01922728   -0.03528883    0.05882091
     atom   16 type  3   force =     0.01827020    0.03814610   -0.05146858
     atom   17 type  3   force =     0.03586275    0.03686314    0.05522780
     atom   18 type  4   force =    -0.00010333    0.02511229   -0.00420436
     atom   19 type  4   force =    -0.12739029   -0.00510376   -0.11823137
     atom   20 type  4   force =    -0.12575932    0.00624497    0.11829920
     atom   21 type  4   force =     0.12648047   -0.00652307   -0.11682901
     atom   22 type  4   force =     0.15359474    0.00780027    0.11217053
     atom   23 type  5   force =    -0.04857308   -0.00339411    0.00534810
     The non-local contrib.  to forces
     atom    1 type  1   force =    -0.00219329   -0.01371815    0.02629926
     atom    2 type  1   force =    -0.24742581   -0.16171290    0.01301567
     atom    3 type  1   force =    -0.23904791    0.15522616   -0.02149593
     atom    4 type  1   force =     0.24808584   -0.15540379    0.02254777
     atom    5 type  1   force =     0.25352829    0.13228479    0.00585035
     atom    6 type  2   force =    -0.00147753   -0.04089791   -0.05846227
     atom    7 type  2   force =    -0.02892016    0.06189272    0.05404405
     atom    8 type  3   force =    -0.26506791    0.00775955    0.00101183
     atom    9 type  3   force =     0.27637287    0.02344248    0.03339599
     atom   10 type  3   force =    -0.20587035    0.00300093   -0.20042528
     atom   11 type  3   force =    -0.20988146    0.00175548    0.19190734
     atom   12 type  3   force =    -0.20141279   -0.01647433   -0.17720762
     atom   13 type  3   force =    -0.20981684   -0.00756946    0.19856084
     atom   14 type  3   force =     0.20079532    0.00300978   -0.21382410
     atom   15 type  3   force =     0.22479583    0.00998793    0.18582471
     atom   16 type  3   force =     0.19503621   -0.01510249   -0.18679229
     atom   17 type  3   force =     0.25609940   -0.04142426    0.14445435
     atom   18 type  4   force =    -0.00417273    0.04689631   -0.06409386
     atom   19 type  4   force =     0.05837326    0.00720952    0.07249345
     atom   20 type  4   force =     0.04842012   -0.02002535   -0.06079733
     atom   21 type  4   force =    -0.05647392    0.01381811    0.07286090
     atom   22 type  4   force =    -0.06479487   -0.00103307   -0.08075419
     atom   23 type  5   force =    -0.01759124   -0.00151968    0.00010025
     The ionic contribution  to forces
     atom    1 type  1   force =    -0.22642908   -4.67544483   13.71545761
     atom    2 type  1   force =   -47.08201940   -6.09360553    0.73861063
     atom    3 type  1   force =   -47.08901014    6.13571626   -0.78015449
     atom    4 type  1   force =    46.85322700   -6.06636284    0.66805986
     atom    5 type  1   force =    46.44018743    6.48183700   -1.12458196
     atom    6 type  2   force =    -0.13430876   -3.56794574  -13.68041045
     atom    7 type  2   force =    -0.60966840    3.55608688   13.62729659
     atom    8 type  3   force =   -60.44178879    0.02185924   -0.13309187
     atom    9 type  3   force =    59.72799529   -0.36675006   -0.53633998
     atom   10 type  3   force =   -43.38146927   -2.07194396  -22.61730119
     atom   11 type  3   force =   -42.50668374   -0.82385282   21.65183622
     atom   12 type  3   force =   -42.58915347    0.80392397  -21.67906449
     atom   13 type  3   force =   -43.44142085    2.21429948   22.65328913
     atom   14 type  3   force =    43.24941570   -2.06702217  -22.63935190
     atom   15 type  3   force =    42.25414354   -0.79838848   21.72586171
     atom   16 type  3   force =    42.40828963    0.84166002  -21.72946713
     atom   17 type  3   force =    42.73896757    2.56418067   23.01414916
     atom   18 type  4   force =    -0.20626001    4.32620734  -13.73123229
     atom   19 type  4   force =   -42.96896529    0.93421883  -25.08921916
     atom   20 type  4   force =   -43.03233900   -0.99675033   25.11250004
     atom   21 type  4   force =    42.80767557    0.89890683  -25.13365994
     atom   22 type  4   force =    42.39443977   -1.32682285   25.47587023
     atom   23 type  5   force =     4.83517469    0.07599309    0.49094366
     The local contribution  to forces
     atom    1 type  1   force =     0.21816276    4.66439122  -13.73731111
     atom    2 type  1   force =    47.22033080    6.24254427   -0.76423639
     atom    3 type  1   force =    47.22064641   -6.27659466    0.79380851
     atom    4 type  1   force =   -47.00036884    6.20891029   -0.70817525
     atom    5 type  1   force =   -46.58362222   -6.60865317    1.11447030
     atom    6 type  2   force =     0.12733193    3.58752705   13.73035435
     atom    7 type  2   force =     0.60637644   -3.60874847  -13.69375067
     atom    8 type  3   force =    60.62956012   -0.03253090    0.11930548
     atom    9 type  3   force =   -59.91945459    0.34987229    0.50045823
     atom   10 type  3   force =    43.58472658    2.02118121   22.77001304
     atom   11 type  3   force =    42.71723691    0.78243434  -21.79825927
     atom   12 type  3   force =    42.78980912   -0.73452310   21.81311414
     atom   13 type  3   force =    43.65085859   -2.17011974  -22.79916025
     atom   14 type  3   force =   -43.45578850    2.01760518   22.80676582
     atom   15 type  3   force =   -42.49036496    0.74789790  -21.86211659
     atom   16 type  3   force =   -42.61257624   -0.77110844   21.87611666
     atom   17 type  3   force =   -42.99296336   -2.47814186  -23.10752391
     atom   18 type  4   force =     0.20440476   -4.34155944   13.77149996
     atom   19 type  4   force =    42.78881691   -0.94794117   24.90138038
     atom   20 type  4   force =    42.86511997    1.01924136  -24.93495131
     atom   21 type  4   force =   -42.63851636   -0.92060691   24.94630541
     atom   22 type  4   force =   -42.19961992    1.33125467  -25.28329791
     atom   23 type  5   force =    -4.86889308   -0.07773674   -0.48649924
     The core correction contribution to forces
     atom    1 type  1   force =     0.00023332    0.00083798   -0.00084216
     atom    2 type  1   force =    -0.01249366   -0.00197167    0.00057750
     atom    3 type  1   force =    -0.01261950    0.00207636   -0.00112466
     atom    4 type  1   force =     0.01278246   -0.00118414    0.00277707
     atom    5 type  1   force =     0.00997684    0.00413781   -0.00088944
     atom    6 type  2   force =     0.00000562    0.00186852    0.00231822
     atom    7 type  2   force =     0.00145417   -0.00324869   -0.00219089
     atom    8 type  3   force =    -0.03339489    0.00105559    0.00021200
     atom    9 type  3   force =     0.03088451   -0.00097984    0.00143810
     atom   10 type  3   force =    -0.02197159    0.00984907   -0.01625921
     atom   11 type  3   force =    -0.02280025    0.00909352    0.01713976
     atom   12 type  3   force =    -0.02146910   -0.00970312   -0.01625895
     atom   13 type  3   force =    -0.02211284   -0.00997957    0.01583920
     atom   14 type  3   force =     0.02084753    0.01060975   -0.01613412
     atom   15 type  3   force =     0.02379899    0.00967116    0.01519917
     atom   16 type  3   force =     0.02143705   -0.01078802   -0.01642687
     atom   17 type  3   force =     0.02295932   -0.00669630    0.01362659
     atom   18 type  4   force =     0.00015966   -0.00248696    0.00307790
     atom   19 type  4   force =    -0.00969202    0.00011244   -0.00956871
     atom   20 type  4   force =    -0.00918886    0.00076573    0.00897499
     atom   21 type  4   force =     0.00953930   -0.00023729   -0.00964598
     atom   22 type  4   force =     0.01029307    0.00003200    0.00966288
     atom   23 type  5   force =     0.00000000    0.00000000    0.00000000
     The Hubbard contrib.    to forces
     atom    1 type  1   force =     0.00000000    0.00000000    0.00000000
     atom    2 type  1   force =     0.00000000    0.00000000    0.00000000
     atom    3 type  1   force =     0.00000000    0.00000000    0.00000000
     atom    4 type  1   force =     0.00000000    0.00000000    0.00000000
     atom    5 type  1   force =     0.00000000    0.00000000    0.00000000
     atom    6 type  2   force =     0.00000000    0.00000000    0.00000000
     atom    7 type  2   force =     0.00000000    0.00000000    0.00000000
     atom    8 type  3   force =     0.00000000    0.00000000    0.00000000
     atom    9 type  3   force =     0.00000000    0.00000000    0.00000000
     atom   10 type  3   force =     0.00000000    0.00000000    0.00000000
     atom   11 type  3   force =     0.00000000    0.00000000    0.00000000
     atom   12 type  3   force =     0.00000000    0.00000000    0.00000000
     atom   13 type  3   force =     0.00000000    0.00000000    0.00000000
     atom   14 type  3   force =     0.00000000    0.00000000    0.00000000
     atom   15 type  3   force =     0.00000000    0.00000000    0.00000000
     atom   16 type  3   force =     0.00000000    0.00000000    0.00000000
     atom   17 type  3   force =     0.00000000    0.00000000    0.00000000
     atom   18 type  4   force =     0.00000000    0.00000000    0.00000000
     atom   19 type  4   force =     0.00000000    0.00000000    0.00000000
     atom   20 type  4   force =     0.00000000    0.00000000    0.00000000
     atom   21 type  4   force =     0.00000000    0.00000000    0.00000000
     atom   22 type  4   force =     0.00000000    0.00000000    0.00000000
     atom   23 type  5   force =     0.00000000    0.00000000    0.00000000
     The SCF correction term to forces
     atom    1 type  1   force =     0.00000000    0.00000000   -0.00000000
     atom    2 type  1   force =     0.00361679    0.00009700    0.00684660
     atom    3 type  1   force =     0.00437772   -0.00323161    0.00836735
     atom    4 type  1   force =     0.00314962    0.00027401    0.00788188
     atom    5 type  1   force =     0.00638245   -0.00493207    0.00991088
     atom    6 type  2   force =     0.00476126    0.00576874    0.01583802
     atom    7 type  2   force =     0.00687188    0.00299685   -0.00125145
     atom    8 type  3   force =     0.00557362    0.00344080    0.00557589
     atom    9 type  3   force =     0.00885335    0.00497939    0.00799082
     atom   10 type  3   force =     0.00251302    0.00397387    0.00365680
     atom   11 type  3   force =     0.00319655   -0.00525865   -0.00552088
     atom   12 type  3   force =     0.00225951   -0.00566125    0.00417691
     atom   13 type  3   force =     0.00355306    0.00126734   -0.00830291
     atom   14 type  3   force =     0.00441341    0.00454026    0.00382956
     atom   15 type  3   force =     0.00598400   -0.00435300   -0.00661475
     atom   16 type  3   force =     0.00521366   -0.00641063    0.00443438
     atom   17 type  3   force =     0.00992994   -0.00095077   -0.01014505
     atom   18 type  4   force =     0.00489512   -0.00384062    0.01587727
     atom   19 type  4   force =     0.00320696    0.00140094    0.00601602
     atom   20 type  4   force =     0.00135856    0.00311789   -0.00809387
     atom   21 type  4   force =     0.00338599    0.00170051    0.00664395
     atom   22 type  4   force =     0.01240680    0.00447385   -0.00997713
     atom   23 type  5   force =     0.00186665   -0.00002645    0.00013678

     Total force =     0.504327     Total SCF correction =     0.049372

     Entering Dynamics:    iteration =     2
                           time      =   0.0004 pico-seconds


ATOMIC_POSITIONS (angstrom)
Hf            2.6699999570        2.8271230292        6.6039642186    0   0   0
Hf            1.2529774991        1.2862825474        5.0584660599
Hf            1.2554738971        7.3898056858        5.0880680996
Hf            4.0870225652        1.2862825912        5.0584658436
Hf            4.0845276418        7.3898047670        5.0880686593
Nb            2.6699993469        2.7969277779        3.5155855939
Nb            2.6699950036        5.8763806454        6.6349944762
Ta            1.2093613099        4.3409280538        5.0711251333
Ta            4.1306410302        4.3409290980        5.0711266972
Ta            1.3072502800        1.3141187997        2.0587723210
Ta            1.3027863567        1.3083869603        8.0945855542
Ta            1.3040074955        7.3758302853        2.0462310108
Ta            1.3077086557        7.3650862858        8.0860088872
Ta            4.0327495365        1.3141190563        2.0587725160
Ta            4.0372135481        1.3083870807        8.0945855755
Ta            4.0359923666        7.3758303600        2.0462313387
Ta            4.0322931369        7.3650871618        8.0860082698
Zr            2.6699998912        5.8662913636        3.5273833321
Zr            1.2438059382        4.3220769019        1.9999736831
Zr            1.2403567547        4.3541246304        8.1497815909
Zr            4.0961937812        4.3220766393        1.9999739048
Zr            4.0996494541        4.3541250670        8.1497803107
H             5.6225058609        5.8399619145        6.5722175270


     kinetic energy (Ekin) =          18.40389483 Ry
     temperature           =       88052.88402166 K 
     Ekin + Etot (const)   =       -2924.63034141 Ry

     Writing config-only to output data dir outdir/pwscf.save/
     NEW-OLD atomic charge density approx. for the potential

     Check: negative core charge=   -0.000002

     negative rho (up, down):  9.082E-01 9.082E-01
     Generating pointlists ...
     new r_m :   0.0943 (alat units)  2.0216 (a.u.) for type    5

     total cpu time spent up to now is     1343.4 secs

     Self-consistent Calculation

     iteration #  1     ecut=   120.00 Ry     beta= 0.70
     Davidson diagonalization with overlap
     c_bands:  2 eigenvalues not converged
     c_bands:  2 eigenvalues not converged
     ethr =  1.00E-06,  avg # of iterations = 20.0

     negative rho (up, down):  9.082E-01 9.082E-01

     total cpu time spent up to now is     1453.9 secs

     total energy              =   -2943.05644925 Ry
     estimated scf accuracy    <       0.05182264 Ry

     total magnetization       =     0.00 Bohr mag/cell
     absolute magnetization    =     0.01 Bohr mag/cell

     iteration #  2     ecut=   120.00 Ry     beta= 0.70
     Davidson diagonalization with overlap
     ethr =  1.87E-05,  avg # of iterations =  2.0

     negative rho (up, down):  9.082E-01 9.082E-01

     total cpu time spent up to now is     1509.1 secs

     total energy              =   -2943.05978711 Ry
     estimated scf accuracy    <       0.04031185 Ry

     total magnetization       =     0.00 Bohr mag/cell
     absolute magnetization    =     0.01 Bohr mag/cell

     iteration #  3     ecut=   120.00 Ry     beta= 0.70
     Davidson diagonalization with overlap
     ethr =  1.46E-05,  avg # of iterations =  1.0

     negative rho (up, down):  9.082E-01 9.082E-01

     total cpu time spent up to now is     1557.3 secs

     total energy              =   -2943.06184607 Ry
     estimated scf accuracy    <       0.00120131 Ry

     total magnetization       =     0.00 Bohr mag/cell
     absolute magnetization    =     0.00 Bohr mag/cell

     iteration #  4     ecut=   120.00 Ry     beta= 0.70
     Davidson diagonalization with overlap
     ethr =  4.34E-07,  avg # of iterations = 11.0

     negative rho (up, down):  9.082E-01 9.082E-01

     Magnetic moment per site  (integrated on atomic sphere of radius R)
     atom   1 (R=0.092)  charge=  9.4640  magn= -0.0000
     atom   2 (R=0.092)  charge=  9.0597  magn=  0.0000
     atom   3 (R=0.092)  charge=  9.0597  magn=  0.0000
     atom   4 (R=0.092)  charge=  9.0574  magn= -0.0000
     atom   5 (R=0.092)  charge=  9.0614  magn=  0.0000
     atom   6 (R=0.090)  charge= 10.3483  magn=  0.0000
     atom   7 (R=0.090)  charge= 10.3571  magn=  0.0000
     atom   8 (R=0.090)  charge=  9.8031  magn= -0.0000
     atom   9 (R=0.090)  charge=  9.8049  magn= -0.0000
     atom  10 (R=0.090)  charge=  9.7383  magn=  0.0001
     atom  11 (R=0.090)  charge=  9.7357  magn=  0.0003
     atom  12 (R=0.090)  charge=  9.7379  magn=  0.0002
     atom  13 (R=0.090)  charge=  9.7422  magn=  0.0000
     atom  14 (R=0.090)  charge=  9.7415  magn=  0.0000
     atom  15 (R=0.090)  charge=  9.7386  magn=  0.0001
     atom  16 (R=0.090)  charge=  9.7372  magn=  0.0002
     atom  17 (R=0.090)  charge=  9.7461  magn=  0.0001
     atom  18 (R=0.092)  charge=  9.4538  magn=  0.0000
     atom  19 (R=0.092)  charge=  8.9959  magn=  0.0001
     atom  20 (R=0.092)  charge=  8.9947  magn=  0.0001
     atom  21 (R=0.092)  charge=  8.9940  magn=  0.0001
     atom  22 (R=0.092)  charge=  8.9945  magn= -0.0000
     atom  23 (R=0.094)  charge=  1.2407  magn= -0.0000

     total cpu time spent up to now is     1617.0 secs

     End of self-consistent calculation

 ------ SPIN UP ------------


          k = 0.0000 0.0000 0.0000 ( 74835 PWs)   bands (ev):

   -62.7860 -62.7296 -62.7128 -62.6862 -62.6581 -62.6524 -62.6120 -62.6062
   -62.5625 -62.5327 -56.3543 -56.3076 -56.2259 -56.1798 -54.6602 -48.2879
   -48.2487 -43.6264 -43.5978 -43.5340 -43.4962 -41.7793 -29.7659 -29.7315
   -29.6683 -29.6456 -29.5827 -29.5392 -29.4439 -29.4157 -29.4041 -29.3403
   -29.2874 -29.2495 -29.2315 -29.2212 -29.1924 -29.1751 -29.1487 -29.1405
   -29.1250 -29.1097 -29.0934 -29.0597 -28.9443 -28.9243 -28.8999 -28.8884
   -28.8554 -28.8300 -28.8131 -28.8016 -26.1440 -25.9351 -25.6322 -25.5391
   -25.2856 -25.1759 -25.1414 -25.0453 -24.9060 -24.8310 -24.8134 -24.5891
   -24.5108 -24.4479 -24.3805 -24.3713 -24.2563 -24.2316 -23.7253 -23.6630
   -23.5888 -22.1611 -21.9254 -21.8048 -21.7937 -21.6294 -21.5876 -21.5719
   -21.5595 -21.5430 -21.5116 -21.3422 -21.3340 -20.1232 -19.9222 -19.7918
    -0.5764   0.6562   0.9969   1.1579   1.3181   1.3856   1.5226   1.6711
     1.7067   1.7934   1.9319   2.0489   2.1683   2.5232   2.6244   2.7352
     2.7876   2.8638   3.0865   3.1481   3.1827   3.2922   3.3150   3.3836
     3.4182   3.5594   3.5942   3.7244   3.7480   3.7898   3.8017   3.8243
     3.9795   4.1060   4.1729   4.2274   4.2911   4.3382   4.3815   4.4238
     4.5078   4.6049   4.6757   4.7244   4.9059   4.9851   5.0698   5.0795
     5.0951   5.1984   5.2862   5.3412   5.3653   5.5346   5.6124   5.6544
     5.6823   5.7270   5.8658   5.9603   6.0906   6.1236   6.1596   6.2075
     6.2246   6.3060   6.3840   6.4188   6.5292   6.5413   6.6268   6.7342
     6.8091   6.8267   7.0344   7.0607   7.2055   7.2638   7.2868

 ------ SPIN DOWN ----------


          k = 0.0000 0.0000 0.0000 ( 74835 PWs)   bands (ev):

   -62.7859 -62.7295 -62.7128 -62.6861 -62.6580 -62.6523 -62.6119 -62.6061
   -62.5625 -62.5327 -56.3543 -56.3076 -56.2259 -56.1798 -54.6602 -48.2879
   -48.2487 -43.6264 -43.5977 -43.5340 -43.4961 -41.7793 -29.7658 -29.7314
   -29.6682 -29.6455 -29.5826 -29.5392 -29.4439 -29.4156 -29.4040 -29.3403
   -29.2874 -29.2494 -29.2314 -29.2212 -29.1924 -29.1751 -29.1486 -29.1405
   -29.1249 -29.1096 -29.0934 -29.0597 -28.9442 -28.9242 -28.8998 -28.8883
   -28.8552 -28.8299 -28.8130 -28.8015 -26.1440 -25.9351 -25.6322 -25.5391
   -25.2856 -25.1759 -25.1414 -25.0453 -24.9060 -24.8310 -24.8134 -24.5891
   -24.5108 -24.4479 -24.3805 -24.3713 -24.2562 -24.2316 -23.7253 -23.6630
   -23.5888 -22.1610 -21.9254 -21.8047 -21.7936 -21.6294 -21.5876 -21.5718
   -21.5594 -21.5429 -21.5115 -21.3422 -21.3338 -20.1232 -19.9222 -19.7918
    -0.5763   0.6562   0.9971   1.1579   1.3182   1.3857   1.5227   1.6711
     1.7067   1.7935   1.9320   2.0489   2.1684   2.5232   2.6244   2.7353
     2.7877   2.8639   3.0867   3.1482   3.1828   3.2922   3.3150   3.3838
     3.4183   3.5594   3.5942   3.7245   3.7480   3.7899   3.8017   3.8244
     3.9796   4.1061   4.1730   4.2275   4.2912   4.3383   4.3816   4.4238
     4.5080   4.6049   4.6758   4.7245   4.9061   4.9853   5.0702   5.0797
     5.0953   5.1986   5.2866   5.3413   5.3656   5.5348   5.6125   5.6546
     5.6825   5.7272   5.8659   5.9604   6.0907   6.1238   6.1597   6.2079
     6.2247   6.3061   6.3843   6.4189   6.5293   6.5414   6.6269   6.7344
     6.8094   6.8268   7.0345   7.0608   7.2055   7.2639   7.2870

     the Fermi energy is     5.2816 ev

!    total energy              =   -2943.06167587 Ry
     estimated scf accuracy    <       0.00052277 Ry
     smearing contrib. (-TS)   =      -0.09518905 Ry
     internal energy E=F+TS    =   -2942.96648682 Ry

     total magnetization       =     0.00 Bohr mag/cell
     absolute magnetization    =     0.00 Bohr mag/cell

     convergence has been achieved in   4 iterations

     negative rho (up, down):  9.082E-01 9.082E-01

     Forces acting on atoms (cartesian axes, Ry/au):

     atom    1 type  1   force =    -0.00061448   -0.02434987    0.00013557
     atom    2 type  1   force =    -0.11522691   -0.01384239    0.00157022
     atom    3 type  1   force =    -0.11046999    0.01157856    0.00662004
     atom    4 type  1   force =     0.11653316   -0.00993252   -0.00026402
     atom    5 type  1   force =     0.12084747    0.00122396    0.01017876
     atom    6 type  2   force =    -0.00408085   -0.01461551    0.00959163
     atom    7 type  2   force =    -0.02281276    0.00976878   -0.01827341
     atom    8 type  3   force =    -0.10128494    0.00242626   -0.00521555
     atom    9 type  3   force =     0.11856017    0.00854471    0.00662853
     atom   10 type  3   force =    -0.02140738   -0.03224069   -0.05942801
     atom   11 type  3   force =    -0.01754865   -0.03749608    0.05317135
     atom   12 type  3   force =    -0.01933080    0.03534287   -0.05501546
     atom   13 type  3   force =    -0.01345166    0.02794853    0.05643045
     atom   14 type  3   force =     0.02060995   -0.02952621   -0.05855918
     atom   15 type  3   force =     0.02039278   -0.03635117    0.05679424
     atom   16 type  3   force =     0.01786494    0.03631654   -0.05258972
     atom   17 type  3   force =     0.03130613    0.03809847    0.05171515
     atom   18 type  4   force =     0.00115053    0.02439858   -0.00130506
     atom   19 type  4   force =    -0.12693419   -0.00468010   -0.11695158
     atom   20 type  4   force =    -0.12377280    0.00777503    0.11446064
     atom   21 type  4   force =     0.12538456   -0.00610140   -0.11506848
     atom   22 type  4   force =     0.14796243    0.00731635    0.10870404
     atom   23 type  5   force =    -0.04367673   -0.00160270    0.00666981
     The non-local contrib.  to forces
     atom    1 type  1   force =     0.00148474   -0.01287592    0.02573634
     atom    2 type  1   force =    -0.24602881   -0.16149625    0.01660464
     atom    3 type  1   force =    -0.23661122    0.15358289   -0.01583244
     atom    4 type  1   force =     0.24802012   -0.15383240    0.02640688
     atom    5 type  1   force =     0.25183167    0.12395030    0.01587772
     atom    6 type  2   force =    -0.00006598   -0.03950535   -0.05721005
     atom    7 type  2   force =    -0.02310170    0.06296805    0.05550936
     atom    8 type  3   force =    -0.25933834    0.00904665    0.00348454
     atom    9 type  3   force =     0.27265224    0.02999182    0.04142889
     atom   10 type  3   force =    -0.20559412    0.00488218   -0.19986999
     atom   11 type  3   force =    -0.20831524    0.00079906    0.18927351
     atom   12 type  3   force =    -0.20182216   -0.01873555   -0.17601510
     atom   13 type  3   force =    -0.20370073   -0.00850908    0.19392213
     atom   14 type  3   force =     0.20534572    0.00423289   -0.21211439
     atom   15 type  3   force =     0.22557705    0.00977803    0.18210658
     atom   16 type  3   force =     0.19768649   -0.01664209   -0.18579961
     atom   17 type  3   force =     0.24987106   -0.04594845    0.13354199
     atom   18 type  4   force =    -0.00229460    0.04584081   -0.05973953
     atom   19 type  4   force =     0.06008502    0.00842802    0.07472641
     atom   20 type  4   force =     0.04868500   -0.01907030   -0.06355876
     atom   21 type  4   force =    -0.05468435    0.01553656    0.07422093
     atom   22 type  4   force =    -0.06266457   -0.00297738   -0.07821075
     atom   23 type  5   force =    -0.02115321   -0.00152282    0.00019577
     The ionic contribution  to forces
     atom    1 type  1   force =    -0.25026003   -4.70426005   13.71585273
     atom    2 type  1   force =   -47.10295545   -6.09220458    0.73470185
     atom    3 type  1   force =   -47.12913741    6.14499314   -0.79008171
     atom    4 type  1   force =    46.86721395   -6.06136359    0.65791811
     atom    5 type  1   force =    46.42030325    6.58797773   -1.22785887
     atom    6 type  2   force =    -0.14262580   -3.57665845  -13.69322775
     atom    7 type  2   force =    -0.77442191    3.55828159   13.63183485
     atom    8 type  3   force =   -60.48517536    0.01231231   -0.14357195
     atom    9 type  3   force =    59.70813154   -0.48533565   -0.65666211
     atom   10 type  3   force =   -43.39373374   -2.07141512  -22.61848786
     atom   11 type  3   force =   -42.52903978   -0.82242508   21.65597180
     atom   12 type  3   force =   -42.60556800    0.80606933  -21.68164703
     atom   13 type  3   force =   -43.48504326    2.22478019   22.66458465
     atom   14 type  3   force =    43.25789948   -2.06614739  -22.64194954
     atom   15 type  3   force =    42.26816272   -0.79353411   21.73661447
     atom   16 type  3   force =    42.41912482    0.84691338  -21.73709663
     atom   17 type  3   force =    42.71330092    2.67350664   23.12416538
     atom   18 type  4   force =    -0.22832685    4.32605743  -13.76429009
     atom   19 type  4   force =   -42.98408135    0.93219512  -25.09079398
     atom   20 type  4   force =   -43.07177496   -1.00557198   25.12203858
     atom   21 type  4   force =    42.81820149    0.89406977  -25.13956693
     atom   22 type  4   force =    42.37721118   -1.42647711   25.58240320
     atom   23 type  5   force =     5.33259454    0.09823647    0.55914882
     The local contribution  to forces
     atom    1 type  1   force =     0.25587252    4.69168458  -13.73863853
     atom    2 type  1   force =    47.25423519    6.24255378   -0.73664651
     atom    3 type  1   force =    47.27583169   -6.28892593    0.82682372
     atom    4 type  1   force =   -47.01134394    6.21095353   -0.67285272
     atom    5 type  1   force =   -46.56536909   -6.71576629    1.23524870
     atom    6 type  2   force =     0.14897872    3.60729430   13.77598403
     atom    7 type  2   force =     0.77987832   -3.60843721  -13.69871748
     atom    8 type  3   force =    60.68901370   -0.02084047    0.14583346
     atom    9 type  3   force =   -59.89943741    0.46194183    0.62953403
     atom   10 type  3   force =    43.60840622    2.03159480   22.78162266
     atom   11 type  3   force =    42.75477269    0.77337909  -21.82083757
     atom   12 type  3   force =    42.81872592   -0.74958613   21.82390202
     atom   13 type  3   force =    43.70943943   -2.17720828  -22.82785490
     atom   14 type  3   force =   -43.45813444    2.02823543   22.81339178
     atom   15 type  3   force =   -42.49336419    0.73457025  -21.88524709
     atom   16 type  3   force =   -42.61396426   -0.79105465   21.88862600
     atom   17 type  3   force =   -42.95541462   -2.57780719  -23.22511273
     atom   18 type  4   force =     0.24108063   -4.35180080   13.83504496
     atom   19 type  4   force =    42.81673372   -0.94513304   24.91585380
     atom   20 type  4   force =    42.91756851    1.03240927  -24.96278674
     atom   21 type  4   force =   -42.64401360   -0.91489745   24.96643063
     atom   22 type  4   force =   -42.17793019    1.43584616  -25.41294269
     atom   23 type  5   force =    -5.35921631   -0.09842719   -0.55139633
     The core correction contribution to forces
     atom    1 type  1   force =     0.00026476    0.00112721   -0.00074423
     atom    2 type  1   force =    -0.01240987   -0.00199051    0.00061197
     atom    3 type  1   force =    -0.01248051    0.00202527   -0.00097899
     atom    4 type  1   force =     0.01276308   -0.00111914    0.00248987
     atom    5 type  1   force =     0.01041918    0.00314033   -0.00076111
     atom    6 type  2   force =    -0.00006647    0.00182253    0.00231041
     atom    7 type  2   force =     0.00163884   -0.00332132   -0.00230442
     atom    8 type  3   force =    -0.03285124    0.00117146    0.00027388
     atom    9 type  3   force =     0.03058405   -0.00079068    0.00167141
     atom   10 type  3   force =    -0.02220435    0.00972902   -0.01628799
     atom   11 type  3   force =    -0.02280502    0.00907638    0.01710898
     atom   12 type  3   force =    -0.02148998   -0.00963584   -0.01626842
     atom   13 type  3   force =    -0.02148784   -0.01018288    0.01554955
     atom   14 type  3   force =     0.02093998    0.01055792   -0.01601698
     atom   15 type  3   force =     0.02403115    0.00946389    0.01594646
     atom   16 type  3   force =     0.02125740   -0.01022545   -0.01655555
     atom   17 type  3   force =     0.02257790   -0.00703411    0.01342122
     atom   18 type  4   force =     0.00018642   -0.00250422    0.00307637
     atom   19 type  4   force =    -0.00970169    0.00006401   -0.00960041
     atom   20 type  4   force =    -0.00913660    0.00074577    0.00899122
     atom   21 type  4   force =     0.00944828   -0.00031761   -0.00962513
     atom   22 type  4   force =     0.01015648    0.00016695    0.00935501
     atom   23 type  5   force =     0.00000000    0.00000000    0.00000000
     The Hubbard contrib.    to forces
     atom    1 type  1   force =     0.00000000    0.00000000    0.00000000
     atom    2 type  1   force =     0.00000000    0.00000000    0.00000000
     atom    3 type  1   force =     0.00000000    0.00000000    0.00000000
     atom    4 type  1   force =     0.00000000    0.00000000    0.00000000
     atom    5 type  1   force =     0.00000000    0.00000000    0.00000000
     atom    6 type  2   force =     0.00000000    0.00000000    0.00000000
     atom    7 type  2   force =     0.00000000    0.00000000    0.00000000
     atom    8 type  3   force =     0.00000000    0.00000000    0.00000000
     atom    9 type  3   force =     0.00000000    0.00000000    0.00000000
     atom   10 type  3   force =     0.00000000    0.00000000    0.00000000
     atom   11 type  3   force =     0.00000000    0.00000000    0.00000000
     atom   12 type  3   force =     0.00000000    0.00000000    0.00000000
     atom   13 type  3   force =     0.00000000    0.00000000    0.00000000
     atom   14 type  3   force =     0.00000000    0.00000000    0.00000000
     atom   15 type  3   force =     0.00000000    0.00000000    0.00000000
     atom   16 type  3   force =     0.00000000    0.00000000    0.00000000
     atom   17 type  3   force =     0.00000000    0.00000000    0.00000000
     atom   18 type  4   force =     0.00000000    0.00000000    0.00000000
     atom   19 type  4   force =     0.00000000    0.00000000    0.00000000
     atom   20 type  4   force =     0.00000000    0.00000000    0.00000000
     atom   21 type  4   force =     0.00000000    0.00000000    0.00000000
     atom   22 type  4   force =     0.00000000    0.00000000    0.00000000
     atom   23 type  5   force =     0.00000000    0.00000000    0.00000000
     The SCF correction term to forces
     atom    1 type  1   force =    -0.00000000   -0.00000000   -0.00000000
     atom    2 type  1   force =    -0.00729258   -0.00071347   -0.01296795
     atom    3 type  1   force =    -0.00729716   -0.00010546   -0.01257677
     atom    4 type  1   force =     0.00065534   -0.00457956   -0.01349238
     atom    5 type  1   force =     0.00443785    0.00191325   -0.01159390
     atom    6 type  2   force =    -0.00952593   -0.00757721   -0.01753123
     atom    7 type  2   force =    -0.00603090    0.00026902   -0.00386193
     atom    8 type  3   force =    -0.01215832    0.00072766   -0.01050169
     atom    9 type  3   force =     0.00740514    0.00272874   -0.00860992
     atom   10 type  3   force =    -0.00750600   -0.00704024   -0.00567105
     atom   11 type  3   force =    -0.01138592    0.00166581    0.01238840
     atom   12 type  3   force =    -0.00840119    0.00722240   -0.00425316
     atom   13 type  3   force =    -0.01188389   -0.00094007    0.01096279
     atom   14 type  3   force =    -0.00466541   -0.00641372   -0.00113627
     atom   15 type  3   force =    -0.00323858    0.00336211    0.00810760
     atom   16 type  3   force =    -0.00546412    0.00731669   -0.00103015
     atom   17 type  3   force =     0.00174626   -0.00462708    0.00643307
     atom   18 type  4   force =    -0.00871969    0.00679670   -0.01466299
     atom   19 type  4   force =    -0.00919450   -0.00024287   -0.00640361
     atom   20 type  4   force =    -0.00833935   -0.00074639    0.01051012
     atom   21 type  4   force =    -0.00279188   -0.00050132   -0.00579420
     atom   22 type  4   force =     0.00196491    0.00074908    0.00883305
     atom   23 type  5   force =     0.00487364    0.00010218   -0.00054467

     Total force =     0.491072     Total SCF correction =     0.060142
     SCF correction compared to forces is large: reduce conv_thr to get better values

     Entering Dynamics:    iteration =     3
                           time      =   0.0006 pico-seconds


ATOMIC_POSITIONS (angstrom)
Hf            2.6699999570        2.8271230292        6.6039642186    0   0   0
Hf            1.2529609367        1.2862805128        5.0584659373
Hf            1.2554577646        7.3898074212        5.0880686475
Hf            4.0870392956        1.2862808282        5.0584654581
[...]
   -62.5742 -62.5552 -56.3628 -56.3108 -56.2098 -56.1642 -54.7327 -48.7204
   -48.2083 -43.5991 -43.5633 -43.5072 -43.4639 -41.7509 -29.7834 -29.7056
   -29.6555 -29.6201 -29.5871 -29.5233 -29.4599 -29.4068 -29.3753 -29.3409
   -29.2994 -29.2663 -29.2504 -29.2083 -29.1940 -29.1781 -29.1594 -29.1401
   -29.1209 -29.0963 -29.0890 -29.0862 -28.9283 -28.8962 -28.8772 -28.8604
   -28.8301 -28.8033 -28.7769 -28.7756 -26.6869 -26.1308 -25.8670 -25.6082
   -25.5348 -25.2664 -25.1252 -25.0885 -24.9396 -24.8567 -24.8242 -24.7727
   -24.5840 -24.4316 -24.3839 -24.3250 -24.2265 -24.2094 -23.7727 -23.7213
   -23.6293 -22.1233 -21.8934 -21.7671 -21.7626 -21.6113 -21.5670 -21.5470
   -21.5324 -21.5135 -21.4932 -21.3289 -21.3020 -20.1007 -19.8964 -19.7633
    -1.6053  -0.2341   0.9982   1.1412   1.3266   1.3939   1.4842   1.6077
     1.6273   1.7726   1.9125   2.0672   2.1881   2.4882   2.5675   2.7148
     2.7560   2.8959   3.0446   3.1153   3.2063   3.3132   3.3251   3.3796
     3.4390   3.5893   3.6448   3.7198   3.7887   3.8090   3.8340   3.9400
     4.0894   4.1368   4.2088   4.2431   4.3174   4.3397   4.4110   4.5096
     4.6102   4.6230   4.6771   4.7437   4.8891   5.0672   5.0834   5.0962
     5.1298   5.2436   5.2963   5.3394   5.4158   5.6093   5.6495   5.6701
     5.7012   5.7663   5.8208   5.9770   6.1338   6.1540   6.1844   6.2327
     6.2359   6.2973   6.4195   6.4463   6.5256   6.5880   6.6388   6.7266
     6.8198   6.8422   7.0163   7.0926   7.1542   7.2755   7.2894

     the Fermi energy is     5.3110 ev

!    total energy              =   -2942.41878555 Ry
     estimated scf accuracy    <       0.00039005 Ry
     smearing contrib. (-TS)   =      -0.09442791 Ry
     internal energy E=F+TS    =   -2942.32435764 Ry

     total magnetization       =     0.00 Bohr mag/cell
     absolute magnetization    =     0.00 Bohr mag/cell

     convergence has been achieved in   6 iterations

     negative rho (up, down):  9.084E-01 9.084E-01

     Forces acting on atoms (cartesian axes, Ry/au):

     atom    1 type  1   force =     0.00403829   -0.03526769    0.00600649
     atom    2 type  1   force =    -0.11348891   -0.01278447   -0.00251422
     atom    3 type  1   force =    -0.10983787    0.01498595   -0.00771489
     atom    4 type  1   force =     0.12055731   -0.01306581   -0.00166661
     atom    5 type  1   force =     0.11527399    0.01688015   -0.00774582
     atom    6 type  2   force =    -0.00148489   -0.01638938    0.01254168
     atom    7 type  2   force =    -1.22216081    0.38056562    0.61653349
     atom    8 type  3   force =    -0.10557082   -0.00112001   -0.00739827
     atom    9 type  3   force =     0.11209693   -0.01205024   -0.02377963
     atom   10 type  3   force =    -0.02082723   -0.03232194   -0.05835603
     atom   11 type  3   force =    -0.02339159   -0.04372744    0.05705860
     atom   12 type  3   force =    -0.01943925    0.03351625   -0.05462905
     atom   13 type  3   force =    -0.01930905    0.04849811    0.06730006
     atom   14 type  3   force =     0.01902661   -0.03111107   -0.05645967
     atom   15 type  3   force =     0.01888351   -0.03689262    0.05457785
     atom   16 type  3   force =     0.01780114    0.03659341   -0.05389826
     atom   17 type  3   force =     0.00457061    0.03586512    0.06362422
     atom   18 type  4   force =    -0.00215504    0.02743428   -0.01124548
     atom   19 type  4   force =    -0.12515562   -0.00387683   -0.11588081
     atom   20 type  4   force =    -0.12476869   -0.00493916    0.12144315
     atom   21 type  4   force =     0.12475480   -0.00507268   -0.11602471
     atom   22 type  4   force =     0.12095368    0.00215791    0.12679048
     atom   23 type  5   force =     1.22963290   -0.34787745   -0.60856256
     The non-local contrib.  to forces
     atom    1 type  1   force =     0.00630744   -0.01121886    0.02237853
     atom    2 type  1   force =    -0.23963075   -0.15972044    0.01731678
     atom    3 type  1   force =    -0.22299984    0.14949052   -0.01722969
     atom    4 type  1   force =     0.24464601   -0.16486812    0.02061889
     atom    5 type  1   force =     0.24720079    0.13329516   -0.01908128
     atom    6 type  2   force =     0.00369044   -0.04339990   -0.05906070
     atom    7 type  2   force =    -0.05044062    0.05067222    0.04303508
     atom    8 type  3   force =    -0.25337785    0.00660996    0.00659257
     atom    9 type  3   force =     0.24899874    0.04640805    0.03516620
     atom   10 type  3   force =    -0.20599659    0.00201724   -0.20630825
     atom   11 type  3   force =    -0.20858830    0.02300065    0.18116792
     atom   12 type  3   force =    -0.19827508   -0.02003583   -0.17735275
     atom   13 type  3   force =    -0.17551445   -0.05813278    0.15680890
     atom   14 type  3   force =     0.20709395    0.00247988   -0.20172965
     atom   15 type  3   force =     0.21680123    0.00669950    0.18521115
     atom   16 type  3   force =     0.19940076   -0.01932784   -0.17540524
     atom   17 type  3   force =     0.20164681   -0.00341183    0.19927953
     atom   18 type  4   force =    -0.00034047    0.04737054   -0.05791448
     atom   19 type  4   force =     0.06047054    0.01218601    0.07572830
     atom   20 type  4   force =     0.04835679   -0.02790070   -0.05854267
     atom   21 type  4   force =    -0.05681430    0.01700942    0.07484060
     atom   22 type  4   force =    -0.03831198   -0.03016128   -0.06175092
     atom   23 type  5   force =    -0.19331151    0.02897807    0.05391875
     The ionic contribution  to forces
     atom    1 type  1   force =    -0.11669508   -5.06454348   13.79184037
     atom    2 type  1   force =   -47.14372605   -6.07174295    0.68208914
     atom    3 type  1   force =   -47.41381064    6.54013996   -1.14882472
     atom    4 type  1   force =    47.08967288   -6.09042000    0.67112394
     atom    5 type  1   force =    47.30017688    6.96509804   -1.27016442
     atom    6 type  2   force =    -0.06108401   -3.66982352  -13.82562961
     atom    7 type  2   force =    -6.18227579    4.96436640   16.13654092
     atom    8 type  3   force =   -60.88298105   -0.39190179   -0.53511224
     atom    9 type  3   force =    60.95187423   -1.25381671   -1.24556786
     atom   10 type  3   force =   -43.39536813   -2.05968074  -22.63470914
     atom   11 type  3   force =   -42.54499963   -0.79754017   21.71413756
     atom   12 type  3   force =   -42.62381513    0.83797518  -21.73497974
     atom   13 type  3   force =   -43.73453119    2.68395387   23.12589202
     atom   14 type  3   force =    43.36373019   -2.06281334  -22.65014348
     atom   15 type  3   force =    42.50170839   -0.81827740   21.73805983
     atom   16 type  3   force =    42.58040231    0.85829931  -21.77704655
     atom   17 type  3   force =    43.56740825    2.60531910   23.09508710
     atom   18 type  4   force =    -0.15417634    4.35083959  -14.22789405
     atom   19 type  4   force =   -42.99884709    0.89731207  -25.11349066
     atom   20 type  4   force =   -43.30799241   -1.36914648   25.49243467
     atom   21 type  4   force =    42.95572901    0.88272759  -25.16332107
     atom   22 type  4   force =    43.17572191   -1.37209102   25.70894494
     atom   23 type  5   force =     7.07387850   -0.56423349   -0.82926695
     The local contribution  to forces
     atom    1 type  1   force =     0.13587385    5.03761251  -13.80809841
     atom    2 type  1   force =    47.29723757    6.22224401   -0.70489511
     atom    3 type  1   force =    47.55337514   -6.67648866    1.15434207
     atom    4 type  1   force =   -47.21047131    6.24553645   -0.69389012
     atom    5 type  1   force =   -47.42457735   -7.07555390    1.27841713
     atom    6 type  2   force =     0.08195281    3.69512994   13.89375058
     atom    7 type  2   force =     5.03213205   -4.63095885  -15.56258005
     atom    8 type  3   force =    61.07851425    0.38042441    0.51500485
     atom    9 type  3   force =   -61.09685879    1.18710799    1.17579683
     atom   10 type  3   force =    43.62214039    2.01950109   22.80118204
     atom   11 type  3   force =    42.77731811    0.72320284  -21.85565335
     atom   12 type  3   force =    42.84483218   -0.77652744   21.87668213
     atom   13 type  3   force =    43.92953632   -2.56653433  -23.22881873
     atom   14 type  3   force =   -43.55163238    2.01879690   22.81155137
     atom   15 type  3   force =   -42.70122106    0.76461025  -21.88452159
     atom   16 type  3   force =   -42.76051116   -0.79108317   21.91566618
     atom   17 type  3   force =   -43.76238682   -2.54755124  -23.24254368
     atom   18 type  4   force =     0.17599830   -4.36892702   14.26905163
     atom   19 type  4   force =    42.84009375   -0.91456483   24.93348987
     atom   20 type  4   force =    43.16054377    1.38896331  -25.32015266
     atom   21 type  4   force =   -42.76497222   -0.90534594   24.98283283
     atom   22 type  4   force =   -43.00599974    1.39825306  -25.52471943
     atom   23 type  5   force =    -5.64629928    0.18741874    0.16643581
     The core correction contribution to forces
     atom    1 type  1   force =     0.00010298   -0.00008976   -0.00098421
     atom    2 type  1   force =    -0.01164572   -0.00243298    0.00080334
     atom    3 type  1   force =    -0.01193057    0.00290871    0.00135324
     atom    4 type  1   force =     0.01331474   -0.00366105   -0.00039859
     atom    5 type  1   force =     0.00990450   -0.00050691   -0.00136237
     atom    6 type  2   force =    -0.00019604    0.00215593    0.00250301
     atom    7 type  2   force =     0.00220695   -0.00236740   -0.00123164
     atom    8 type  3   force =    -0.03220224    0.00117164    0.00176136
     atom    9 type  3   force =     0.02879419    0.00223553    0.00394824
     atom   10 type  3   force =    -0.02174579    0.00942314   -0.01626192
     atom   11 type  3   force =    -0.02307260    0.01047021    0.01636976
     atom   12 type  3   force =    -0.02206430   -0.00927939   -0.01661397
     atom   13 type  3   force =    -0.01845238   -0.01114554    0.01352108
     atom   14 type  3   force =     0.02178924    0.00978479   -0.01588493
     atom   15 type  3   force =     0.02309942    0.00891889    0.01645748
     atom   16 type  3   force =     0.02131562   -0.00950677   -0.01629345
     atom   17 type  3   force =     0.02081400   -0.01085206    0.01551748
     atom   18 type  4   force =     0.00020226   -0.00257245    0.00290420
     atom   19 type  4   force =    -0.00963112   -0.00015199   -0.00970230
     atom   20 type  4   force =    -0.00899075    0.00124731    0.00870715
     atom   21 type  4   force =     0.00962852   -0.00041279   -0.00965017
     atom   22 type  4   force =     0.00886421    0.00133039    0.00891169
     atom   23 type  5   force =     0.00000000    0.00000000    0.00000000
     The Hubbard contrib.    to forces
     atom    1 type  1   force =     0.00000000    0.00000000    0.00000000
     atom    2 type  1   force =     0.00000000    0.00000000    0.00000000
     atom    3 type  1   force =     0.00000000    0.00000000    0.00000000
     atom    4 type  1   force =     0.00000000    0.00000000    0.00000000
     atom    5 type  1   force =     0.00000000    0.00000000    0.00000000
     atom    6 type  2   force =     0.00000000    0.00000000    0.00000000
     atom    7 type  2   force =     0.00000000    0.00000000    0.00000000
     atom    8 type  3   force =     0.00000000    0.00000000    0.00000000
     atom    9 type  3   force =     0.00000000    0.00000000    0.00000000
     atom   10 type  3   force =     0.00000000    0.00000000    0.00000000
     atom   11 type  3   force =     0.00000000    0.00000000    0.00000000
     atom   12 type  3   force =     0.00000000    0.00000000    0.00000000
     atom   13 type  3   force =     0.00000000    0.00000000    0.00000000
     atom   14 type  3   force =     0.00000000    0.00000000    0.00000000
     atom   15 type  3   force =     0.00000000    0.00000000    0.00000000
     atom   16 type  3   force =     0.00000000    0.00000000    0.00000000
     atom   17 type  3   force =     0.00000000    0.00000000    0.00000000
     atom   18 type  4   force =     0.00000000    0.00000000    0.00000000
     atom   19 type  4   force =     0.00000000    0.00000000    0.00000000
     atom   20 type  4   force =     0.00000000    0.00000000    0.00000000
     atom   21 type  4   force =     0.00000000    0.00000000    0.00000000
     atom   22 type  4   force =     0.00000000    0.00000000    0.00000000
     atom   23 type  5   force =     0.00000000    0.00000000    0.00000000
     The SCF correction term to forces
     atom    1 type  1   force =    -0.00000000    0.00000000    0.00000000
     atom    2 type  1   force =    -0.01290758   -0.00110800    0.00201036
     atom    3 type  1   force =    -0.01165557   -0.00104046    0.00248293
     atom    4 type  1   force =    -0.01378863    0.00037103    0.00071801
     atom    5 type  1   force =    -0.01461444   -0.00542811    0.00428385
     atom    6 type  2   force =    -0.02303170   -0.00042770    0.00081713
     atom    7 type  2   force =    -0.02096702   -0.00112264    0.00060791
     atom    8 type  3   force =    -0.01270755    0.00259988    0.00419392
     atom    9 type  3   force =    -0.01789506    0.00603901    0.00671569
     atom   10 type  3   force =    -0.01704073   -0.00355856   -0.00242003
     atom   11 type  3   force =    -0.02123278   -0.00283685    0.00087543
     atom   12 type  3   force =    -0.01730054    0.00140785   -0.00252599
     atom   13 type  3   force =    -0.01753096    0.00038100   -0.00026447
     atom   14 type  3   force =    -0.01913801    0.00066483   -0.00041426
     atom   15 type  3   force =    -0.01868808    0.00118025   -0.00079029
     atom   16 type  3   force =    -0.01999001   -0.00176399   -0.00098046
     atom   17 type  3   force =    -0.02009525   -0.00761473   -0.00387750
     atom   18 type  4   force =    -0.02102241    0.00074773    0.00244594
     atom   19 type  4   force =    -0.01442532    0.00136603   -0.00206729
     atom   20 type  4   force =    -0.01386970    0.00192152   -0.00116460
     atom   21 type  4   force =    -0.01599984    0.00097316   -0.00088818
     atom   22 type  4   force =    -0.01650432    0.00485086   -0.00475708
     atom   23 type  5   force =    -0.00181841   -0.00001664    0.00018855

     Total force =     2.064507     Total SCF correction =     0.082155

     Entering Dynamics:    iteration =    15
                           time      =   0.0030 pico-seconds


ATOMIC_POSITIONS (angstrom)
Hf            2.6699999570        2.8271230292        6.6039642186    0   0   0
Hf            1.2522358089        1.2861947592        5.0584575753
Hf            1.2547887232        7.3898698502        5.0880872391
Hf            4.0877702663        1.2862120168        5.0584448203
Hf            4.0852477811        7.3898605455        5.0880629826
Nb            2.6699909455        2.7967465094        3.5157346378
Nb            2.6202380364        5.8833594037        6.6462479943
Ta            1.2087317482        4.3409482924        5.0710911565
Ta            4.1313195209        4.3409374962        5.0711030040
Ta            1.3071140521        1.3139135555        2.0584050578
Ta            1.3026636535        1.3081516790        8.0949307740
Ta            1.3038874680        7.3760565209        2.0458883284
Ta            1.3076469581        7.3652730989        8.0863818016
Ta            4.0328791606        1.3139222654        2.0584133075
Ta            4.0373516055        1.3081597508        8.0949407643
Ta            4.0361075424        7.3760611331        2.0458945285
Ta            4.0324035065        7.3653194773        8.0863911254
Zr            2.6700178923        5.8666103022        3.5273345188
Zr            1.2422287127        4.3220180425        1.9985173732
Zr            1.2388451711        4.3542207744        8.1512295187
Zr            4.0977568131        4.3220094645        1.9985344527
Zr            4.1013036712        4.3541587599        8.1512571928
H             3.8106914837        5.5273548310        6.0482563010


     kinetic energy (Ekin) =          17.69758880 Ry
     temperature           =       84673.58398446 K 
     Ekin + Etot (const)   =       -2924.72119674 Ry

     The maximum number of steps has been reached.

     End of molecular dynamics calculation

     diffusion coefficients :
     atom     1   D =       0.00000000 cm^2/s
     atom     2   D =       0.00000000 cm^2/s
     atom     3   D =       0.00000000 cm^2/s
     atom     4   D =       0.00000000 cm^2/s
     atom     5   D =       0.00000000 cm^2/s
     atom     6   D =       0.00000000 cm^2/s
     atom     7   D =       0.00001450 cm^2/s
     atom     8   D =       0.00000000 cm^2/s
     atom     9   D =       0.00000000 cm^2/s
     atom    10   D =       0.00000000 cm^2/s
     atom    11   D =       0.00000000 cm^2/s
     atom    12   D =       0.00000000 cm^2/s
     atom    13   D =       0.00000000 cm^2/s
     atom    14   D =       0.00000000 cm^2/s
     atom    15   D =       0.00000000 cm^2/s
     atom    16   D =       0.00000000 cm^2/s
     atom    17   D =       0.00000000 cm^2/s
     atom    18   D =       0.00000000 cm^2/s
     atom    19   D =       0.00000003 cm^2/s
     atom    20   D =       0.00000002 cm^2/s
     atom    21   D =       0.00000003 cm^2/s
     atom    22   D =       0.00000003 cm^2/s
     atom    23   D =       0.03462598 cm^2/s

     < D > =       0.00157457 cm^2/s

     Writing all to output data dir outdir/pwscf.save/

     init_run     :     35.36s CPU     36.13s WALL (       1 calls)
     electrons    :   6115.14s CPU   6206.48s WALL (      15 calls)
     update_pot   :     51.12s CPU     51.38s WALL (      14 calls)
     forces       :    382.48s CPU    388.28s WALL (      15 calls)

     Called by init_run:
     wfcinit      :     27.81s CPU     28.07s WALL (       1 calls)
     potinit      :      1.65s CPU      1.74s WALL (       1 calls)
     hinit0       :      2.55s CPU      2.59s WALL (       1 calls)

     Called by electrons:
     c_bands      :   4984.06s CPU   5014.13s WALL (      89 calls)
     sum_band     :    814.56s CPU    848.00s WALL (      89 calls)
     v_of_rho     :     34.12s CPU     35.27s WALL (     104 calls)
     newd         :    330.35s CPU    361.02s WALL (     104 calls)
     mix_rho      :      3.00s CPU      3.10s WALL (      89 calls)

     Called by c_bands:
     init_us_2    :      7.57s CPU      7.61s WALL (     388 calls)
     init_us_2:cp :      7.56s CPU      7.61s WALL (     388 calls)
     regterg      :   4946.43s CPU   4976.27s WALL (     178 calls)

     Called by *egterg:
     rdiaghg      :     59.99s CPU     60.58s WALL (    1402 calls)
     h_psi        :   2048.14s CPU   2068.77s WALL (    1432 calls)
     s_psi        :    729.25s CPU    730.26s WALL (    1432 calls)
     g_psi        :      1.52s CPU      1.54s WALL (    1252 calls)

     Called by h_psi:
     h_psi:calbec :    891.56s CPU    893.17s WALL (    1432 calls)
     vloc_psi     :    420.77s CPU    438.71s WALL (    1432 calls)
     add_vuspsi   :    732.48s CPU    733.57s WALL (    1432 calls)

     General routines
     calbec       :   1448.32s CPU   1450.86s WALL (    1730 calls)
     fft          :     26.96s CPU     28.48s WALL (    1799 calls)
     ffts         :      0.80s CPU      0.86s WALL (      89 calls)
     fftw         :    418.84s CPU    437.04s WALL (   95574 calls)

     Parallel routines

     PWSCF        :      1h50m CPU      1h52m WALL


   This run was terminated on:  17:46:19   8Jun2023            

=------------------------------------------------------------------------------=
   JOB DONE.
=------------------------------------------------------------------------------=
