
     Program PWSCF v.7.2 starts on  5Jun2023 at 22:53:24 

     This program is part of the open-source Quantum ESPRESSO suite
     for quantum simulation of materials; please cite
         "P. Giannozzi et al., J. Phys.:Condens. Matter 21 395502 (2009);
         "P. Giannozzi et al., J. Phys.:Condens. Matter 29 465901 (2017);
         "P. Giannozzi et al., J. Chem. Phys. 152 154105 (2020);
          URL http://www.quantum-espresso.org", 
     in publications or presentations arising from this work. More details at
     http://www.quantum-espresso.org/quote

     Parallel version (MPI), running on    12 processors

     MPI processes distributed on     1 nodes
     70038 MiB available memory on the printing compute node when the environment starts

     Reading input from md_Hf5Nb2Ta10Zr5H_relaxed_slab.in
Warning: card &CELL ignored
Warning: card / ignored

     Current dimensions of program PWSCF are:
     Max number of different atomic species (ntypx) = 10
     Max number of k-points (npk) =  40000
     Max angular momentum in pseudopotentials (lmaxx) =  4

     gamma-point specific algorithms are used

     R & G space division:  proc/nbgrp/npool/nimage =      12
     Subspace diagonalization in iterative solution of the eigenvalue problem:
     one sub-group per band group will be used
     custom distributed-memory algorithm (size of sub-group:  2*  2 procs)


     Parallelization info
     --------------------
     sticks:   dense  smooth     PW     G-vecs:    dense   smooth      PW
     Min         821     821    205                73378    73378    9174
     Max         824     824    206                73388    73388    9178
     Sum        9871    9871   2471               880587   880587  110101

     Using Slab Decomposition



     bravais-lattice index     =            0
     lattice parameter (alat)  =      15.7603  a.u.
     unit-cell volume          =    4958.3580 (a.u.)^3
     number of atoms/cell      =           23
     number of atomic types    =            5
     number of electrons       =       277.00
     number of Kohn-Sham states=          167
     kinetic-energy cutoff     =     120.0000  Ry
     charge density cutoff     =     480.0000  Ry
     scf convergence threshold =      1.0E-03
     mixing beta               =       0.7000
     number of iterations used =            8  TF        mixing
     energy convergence thresh.=      0.0E+00
     force convergence thresh. =      0.0E+00
     Exchange-correlation=  SLA  PW   PBX  PBC
                           (   1   4   3   4   0   0   0)
     nstep                     =           10


     celldm(1)=  15.760315  celldm(2)=   0.000000  celldm(3)=   0.000000
     celldm(4)=   0.000000  celldm(5)=   0.000000  celldm(6)=   0.000000

     crystal axes: (cart. coord. in units of alat)
               a(1) = (   1.000000   0.000000   0.000000 )  
               a(2) = (   0.000000   1.040767   0.000000 )  
               a(3) = (   0.000000   0.000000   1.216997 )  

     reciprocal axes: (cart. coord. in units 2 pi/alat)
               b(1) = (  1.000000  0.000000  0.000000 )  
               b(2) = (  0.000000  0.960830  0.000000 )  
               b(3) = (  0.000000  0.000000  0.821695 )  


     PseudoPot. # 1 for Hf read from file:
     q-e/pseudo/hf_pbe_v1.uspp.F.UPF
     MD5 check sum: 8ee9378dfe14276e333edf04c5e4aa26
     Pseudo is Ultrasoft + core correction, Zval = 12.0
     Generated by new atomic code, or converted to UPF format
     Using radial grid of  921 points,  8 beta functions with: 
                l(1) =   0
                l(2) =   0
                l(3) =   0
                l(4) =   1
                l(5) =   1
                l(6) =   2
                l(7) =   2
                l(8) =   3
     Q(r) pseudized with  6 coefficients,  rinner =    1.200   1.200   1.200
                                                       1.200   1.200   1.200
                                                       1.200

     PseudoPot. # 2 for Nb read from file:
     q-e/pseudo/nb_pbe_v1.uspp.F.UPF
     MD5 check sum: 573aab8a2fa660278ed4a62cd769473f
     Pseudo is Ultrasoft + core correction, Zval = 13.0
     Generated by new atomic code, or converted to UPF format
     Using radial grid of  887 points,  6 beta functions with: 
                l(1) =   0
                l(2) =   0
                l(3) =   1
                l(4) =   1
                l(5) =   2
                l(6) =   2
     Q(r) pseudized with  6 coefficients,  rinner =    1.000   1.000   1.000
                                                       1.000   1.000

     PseudoPot. # 3 for Ta read from file:
     q-e/pseudo/ta_pbe_v1.uspp.F.UPF
     MD5 check sum: f8bbe9446314a3b8ea5d9f3e3836c939
     Pseudo is Ultrasoft + core correction, Zval = 13.0
     Generated by new atomic code, or converted to UPF format
     Using radial grid of  921 points,  7 beta functions with: 
                l(1) =   0
                l(2) =   0
                l(3) =   1
                l(4) =   1
                l(5) =   2
                l(6) =   2
                l(7) =   3
     Q(r) pseudized with  6 coefficients,  rinner =    1.300   1.300   1.300
                                                       1.300   1.300   1.300
                                                       1.300

     PseudoPot. # 4 for Zr read from file:
     q-e/pseudo/zr_pbe_v1.uspp.F.UPF
     MD5 check sum: 5db81b1e868ab7776c4564c113de050b
     Pseudo is Ultrasoft + core correction, Zval = 12.0
     Generated by new atomic code, or converted to UPF format
     Using radial grid of  887 points,  6 beta functions with: 
                l(1) =   0
                l(2) =   0
                l(3) =   1
                l(4) =   1
                l(5) =   2
                l(6) =   2
     Q(r) pseudized with  6 coefficients,  rinner =    1.200   1.200   1.200
                                                       1.200   1.200

     PseudoPot. # 5 for H  read from file:
     q-e/pseudo/h_pbe_v1.4.uspp.F.UPF
     MD5 check sum: 761ae9a214b05c3daf00ab9f6b793d6f
     Pseudo is Ultrasoft, Zval =  1.0
     Generated by new atomic code, or converted to UPF format
     Using radial grid of  615 points,  2 beta functions with: 
                l(1) =   0
                l(2) =   0
     Q(r) pseudized with  8 coefficients,  rinner =    0.700

     atomic species   valence    mass     pseudopotential
        Hf            12.00   178.49000     Hf( 1.00)
        Nb            13.00    92.90637     Nb( 1.00)
        Ta            13.00   180.94788     Ta( 1.00)
        Zr            12.00    91.22400     Zr( 1.00)
        H              1.00     2.01400     H ( 1.00)

     Starting magnetic structure 
     atomic species   magnetization
        Hf           0.000
        Nb           0.000
        Ta           0.000
        Zr           0.000
        H            0.000

     No symmetry found



   Cartesian axes

     site n.     atom                  positions (alat units)
         1           Hf  tau(   1) = (   0.3201439   0.3389836   0.7918423  )
         2           Hf  tau(   2) = (   0.1502387   0.1542307   0.6065307  )
         3           Hf  tau(   3) = (   0.1505380   0.8860677   0.6100801  )
         4           Hf  tau(   4) = (   0.4900491   0.1542307   0.6065307  )
         5           Hf  tau(   5) = (   0.4897498   0.8860677   0.6100801  )
         6           Nb  tau(   6) = (   0.3201439   0.3353634   0.4215328  )
         7           Nb  tau(   7) = (   0.3201439   0.7046018   0.7955633  )
         8           Ta  tau(   8) = (   0.1450088   0.5204950   0.6080487  )
         9           Ta  tau(   9) = (   0.4952790   0.5204950   0.6080487  )
        10           Ta  tau(  10) = (   0.1567449   0.1575687   0.2468560  )
        11           Ta  tau(  11) = (   0.1562096   0.1568814   0.9705731  )
        12           Ta  tau(  12) = (   0.1563561   0.8843917   0.2453522  )
        13           Ta  tau(  13) = (   0.1567999   0.8831035   0.9695447  )
        14           Ta  tau(  14) = (   0.4835429   0.1575687   0.2468560  )
        15           Ta  tau(  15) = (   0.4840781   0.1568814   0.9705731  )
        16           Ta  tau(  16) = (   0.4839317   0.8843917   0.2453522  )
        17           Ta  tau(  17) = (   0.4834879   0.8831035   0.9695447  )
        18           Zr  tau(  18) = (   0.3201439   0.7033916   0.4229477  )
        19           Zr  tau(  19) = (   0.1491408   0.5182348   0.2398082  )
        20           Zr  tau(  20) = (   0.1487273   0.5220772   0.9771889  )
        21           Zr  tau(  21) = (   0.4911469   0.5182348   0.2398082  )
        22           Zr  tau(  22) = (   0.4915605   0.5220772   0.9771889  )
        23           H   tau(  23) = (   0.6751351   0.5203837   0.6081751  )

     number of k points=     1  Gaussian smearing, width (Ry)=  0.0220
                       cart. coord. in units 2pi/alat
        k(    1) = (   0.0000000   0.0000000   0.0000000), wk =   1.0000000

     Dense  grid:   440294 G-vectors     FFT dimensions: ( 120, 120, 135)

     Estimated max dynamical RAM per process >     369.12 MB

     Estimated total dynamical RAM >       4.33 GB

     Check: negative core charge=   -0.000002
     Generating pointlists ...
     new r_m :   0.1251 (alat units)  1.9717 (a.u.) for type    1
     new r_m :   0.1229 (alat units)  1.9374 (a.u.) for type    2
     new r_m :   0.0742 (alat units)  1.1693 (a.u.) for type    3
     new r_m :   0.1245 (alat units)  1.9625 (a.u.) for type    4
     new r_m :   0.0742 (alat units)  1.1693 (a.u.) for type    5

     Initial potential from superposition of free atoms

     starting charge     266.9726, renormalised to     277.0000

     negative rho (up, down):  9.206E-01 9.206E-01
     Starting wfcs are  287 randomized atomic wfcs

     total cpu time spent up to now is       27.0 secs

     Self-consistent Calculation

     iteration #  1     ecut=   120.00 Ry     beta= 0.70
     Davidson diagonalization with overlap
     ethr =  1.00E-02,  avg # of iterations =  3.0

     negative rho (up, down):  9.825E-01 9.822E-01

     total cpu time spent up to now is       70.3 secs

     total energy              =   -2932.09787611 Ry
     estimated scf accuracy    <     291.81665252 Ry

     total magnetization       =    -0.00 Bohr mag/cell
     absolute magnetization    =     0.08 Bohr mag/cell

     iteration #  2     ecut=   120.00 Ry     beta= 0.70
     Davidson diagonalization with overlap
     ethr =  1.00E-02,  avg # of iterations =  4.0

     negative rho (up, down):  9.369E-01 9.356E-01

     total cpu time spent up to now is      116.3 secs

     total energy              =   -2942.06874578 Ry
     estimated scf accuracy    <      36.66300283 Ry

     total magnetization       =     0.00 Bohr mag/cell
     absolute magnetization    =     0.14 Bohr mag/cell

     iteration #  3     ecut=   120.00 Ry     beta= 0.70
     Davidson diagonalization with overlap
     ethr =  1.00E-02,  avg # of iterations =  3.0

     negative rho (up, down):  9.663E-01 9.644E-01

     total cpu time spent up to now is      156.8 secs

     total energy              =   -2942.61255661 Ry
     estimated scf accuracy    <      15.37982620 Ry

     total magnetization       =    -0.02 Bohr mag/cell
     absolute magnetization    =     0.19 Bohr mag/cell

     iteration #  4     ecut=   120.00 Ry     beta= 0.70
     Davidson diagonalization with overlap
     ethr =  5.55E-03,  avg # of iterations =  3.0

     negative rho (up, down):  9.611E-01 9.597E-01

     total cpu time spent up to now is      195.6 secs

     total energy              =   -2942.85582914 Ry
     estimated scf accuracy    <       3.36190410 Ry

     total magnetization       =     0.03 Bohr mag/cell
     absolute magnetization    =     0.33 Bohr mag/cell

     iteration #  5     ecut=   120.00 Ry     beta= 0.70
     Davidson diagonalization with overlap
     ethr =  1.21E-03,  avg # of iterations =  6.5

     negative rho (up, down):  9.369E-01 9.359E-01

     total cpu time spent up to now is      244.9 secs

     total energy              =   -2943.00181240 Ry
     estimated scf accuracy    <       1.65203545 Ry

     total magnetization       =     0.03 Bohr mag/cell
     absolute magnetization    =     0.20 Bohr mag/cell

     iteration #  6     ecut=   120.00 Ry     beta= 0.70
     Davidson diagonalization with overlap
     ethr =  5.96E-04,  avg # of iterations =  2.0

     negative rho (up, down):  9.239E-01 9.234E-01

     total cpu time spent up to now is      284.8 secs

     total energy              =   -2943.00428502 Ry
     estimated scf accuracy    <       1.08129351 Ry

     total magnetization       =     0.01 Bohr mag/cell
     absolute magnetization    =     0.15 Bohr mag/cell

     iteration #  7     ecut=   120.00 Ry     beta= 0.70
     Davidson diagonalization with overlap
     ethr =  3.90E-04,  avg # of iterations =  2.0

     negative rho (up, down):  9.085E-01 9.084E-01

     total cpu time spent up to now is      323.0 secs

     total energy              =   -2942.98709709 Ry
     estimated scf accuracy    <       0.27992515 Ry

     total magnetization       =     0.02 Bohr mag/cell
     absolute magnetization    =     0.16 Bohr mag/cell

     iteration #  8     ecut=   120.00 Ry     beta= 0.70
     Davidson diagonalization with overlap
     ethr =  1.01E-04,  avg # of iterations = 13.5

     negative rho (up, down):  9.048E-01 9.048E-01

     total cpu time spent up to now is      369.3 secs

     total energy              =   -2942.98835689 Ry
     estimated scf accuracy    <       0.23542898 Ry

     total magnetization       =     0.02 Bohr mag/cell
     absolute magnetization    =     0.12 Bohr mag/cell

     iteration #  9     ecut=   120.00 Ry     beta= 0.70
     Davidson diagonalization with overlap
     ethr =  8.50E-05,  avg # of iterations =  2.0

     negative rho (up, down):  9.060E-01 9.060E-01

     total cpu time spent up to now is      408.1 secs

     total energy              =   -2942.99784426 Ry
     estimated scf accuracy    <       0.05698759 Ry

     total magnetization       =     0.01 Bohr mag/cell
     absolute magnetization    =     0.09 Bohr mag/cell

     iteration # 10     ecut=   120.00 Ry     beta= 0.70
     Davidson diagonalization with overlap
     ethr =  2.06E-05,  avg # of iterations =  8.5

     negative rho (up, down):  9.069E-01 9.069E-01

     total cpu time spent up to now is      451.7 secs

     total energy              =   -2943.00237879 Ry
     estimated scf accuracy    <       0.02867001 Ry

     total magnetization       =     0.00 Bohr mag/cell
     absolute magnetization    =     0.08 Bohr mag/cell

     iteration # 11     ecut=   120.00 Ry     beta= 0.70
     Davidson diagonalization with overlap
     ethr =  1.04E-05,  avg # of iterations =  4.0

     negative rho (up, down):  9.077E-01 9.077E-01

     total cpu time spent up to now is      492.0 secs

     total energy              =   -2943.00460001 Ry
     estimated scf accuracy    <       0.00513755 Ry

     total magnetization       =     0.00 Bohr mag/cell
     absolute magnetization    =     0.07 Bohr mag/cell

     iteration # 12     ecut=   120.00 Ry     beta= 0.70
     Davidson diagonalization with overlap
     ethr =  1.85E-06,  avg # of iterations = 12.0

     negative rho (up, down):  9.078E-01 9.078E-01

     Magnetic moment per site  (integrated on atomic sphere of radius R)
     atom   1 (R=0.125)  charge=  9.4607   -0.0000
     atom   2 (R=0.125)  charge=  9.0586    0.0003
     atom   3 (R=0.125)  charge=  9.0582    0.0000
     atom   4 (R=0.125)  charge=  9.0565    0.0003
     atom   5 (R=0.125)  charge=  9.0561   -0.0002
     atom   6 (R=0.123)  charge= 10.3453   -0.0000
     atom   7 (R=0.123)  charge= 10.3469   -0.0001
     atom   8 (R=0.074)  charge=  5.2336    0.0001
     atom   9 (R=0.074)  charge=  5.2523    0.0001
     atom  10 (R=0.074)  charge=  5.2165    0.0002
     atom  11 (R=0.074)  charge=  5.2160    0.0001
     atom  12 (R=0.074)  charge=  5.2167   -0.0002
     atom  13 (R=0.074)  charge=  5.2164   -0.0003
     atom  14 (R=0.074)  charge=  5.2164    0.0004
     atom  15 (R=0.074)  charge=  5.2162    0.0001
     atom  16 (R=0.074)  charge=  5.2177   -0.0005
     atom  17 (R=0.074)  charge=  5.2156   -0.0003
     atom  18 (R=0.125)  charge=  9.4559   -0.0001
     atom  19 (R=0.125)  charge=  9.0006    0.0016
     atom  20 (R=0.125)  charge=  8.9992   -0.0017
     atom  21 (R=0.125)  charge=  8.9970    0.0014
     atom  22 (R=0.125)  charge=  8.9971   -0.0014
     atom  23 (R=0.074)  charge=  0.8828    0.0000

     total cpu time spent up to now is      554.3 secs

     End of self-consistent calculation

 ------ SPIN UP ------------


          k = 0.0000 0.0000 0.0000 ( 55051 PWs)   bands (ev):

   -59.4835 -59.4792 -59.4383 -59.4341 -59.4051 -59.4005 -59.3613 -59.3568
   -59.2289 -58.7539 -53.0943 -53.0370 -52.9704 -52.9136 -51.3633 -44.9047
   -44.9022 -40.3153 -40.3042 -40.2129 -40.2093 -38.4707 -26.4831 -26.4774
   -26.3989 -26.3897 -26.3024 -26.2977 -26.1788 -26.1696 -26.0539 -26.0250
   -25.9890 -25.9612 -25.9542 -25.9266 -25.9161 -25.8665 -25.8562 -25.8353
   -25.7983 -25.6685 -25.6644 -25.6535 -25.6450 -25.5915 -25.5874 -25.5689
   -25.5657 -25.5010 -25.4764 -25.4288 -22.8717 -22.6621 -22.3480 -22.2720
   -22.0102 -21.8682 -21.8452 -21.7436 -21.6277 -21.5586 -21.5419 -21.3266
   -21.1531 -21.1059 -21.0626 -21.0112 -20.9555 -20.8982 -20.4339 -20.3630
   -20.2984 -18.8783 -18.5973 -18.5243 -18.5043 -18.2909 -18.2830 -18.2623
   -18.2540 -18.2470 -18.2047 -18.0442 -18.0304 -16.8211 -16.6133 -16.4934
     2.7024   3.9277   4.2250   4.4616   4.6068   4.8257   4.8418   4.9452
     5.0337   5.2292   5.2491   5.4660   5.5984   5.8092   5.9085   5.9973
     6.0814   6.0985   6.3459   6.3476   6.4227   6.5675   6.6145   6.6407
     6.7071   6.8613   6.8944   7.0087   7.0474   7.0546   7.0759   7.1150
     7.2330   7.4581   7.4708   7.5630   7.5758   7.6167   7.6574   7.6941
     7.8737   7.9052   7.9327   8.0292   8.1794   8.2806   8.3166   8.3318
     8.4573   8.5184   8.6027   8.6178   8.6321   8.8290   8.8546   8.8570
     8.9144   8.9597   9.1873   9.2622   9.3627   9.3828   9.5708   9.6158
     9.6389   9.6444   9.6715   9.6872   9.7390   9.8871  10.0106  10.0887
    10.1450  10.2455  10.3742  10.4208  10.4283  10.5556  10.5777

 ------ SPIN DOWN ----------


          k = 0.0000 0.0000 0.0000 ( 55051 PWs)   bands (ev):

   -59.4835 -59.4798 -59.4383 -59.4347 -59.4057 -59.4005 -59.3619 -59.3568
   -59.2283 -58.7534 -53.0942 -53.0368 -52.9703 -52.9134 -51.3633 -44.9042
   -44.9020 -40.3143 -40.3057 -40.2146 -40.2082 -38.4706 -26.4833 -26.4776
   -26.3991 -26.3900 -26.3025 -26.2980 -26.1788 -26.1703 -26.0539 -26.0254
   -25.9891 -25.9612 -25.9549 -25.9271 -25.9169 -25.8666 -25.8568 -25.8351
   -25.7976 -25.6685 -25.6652 -25.6536 -25.6453 -25.5916 -25.5879 -25.5693
   -25.5660 -25.5005 -25.4759 -25.4281 -22.8714 -22.6617 -22.3480 -22.2719
   -22.0099 -21.8679 -21.8450 -21.7434 -21.6274 -21.5583 -21.5416 -21.3262
   -21.1529 -21.1057 -21.0625 -21.0110 -20.9551 -20.8979 -20.4340 -20.3630
   -20.2984 -18.8766 -18.6004 -18.5223 -18.5029 -18.2913 -18.2834 -18.2633
   -18.2551 -18.2478 -18.2064 -18.0423 -18.0328 -16.8212 -16.6129 -16.4931
     2.7028   3.9277   4.2249   4.4619   4.6081   4.8256   4.8416   4.9451
     5.0346   5.2293   5.2488   5.4661   5.5984   5.8096   5.9088   5.9973
     6.0817   6.0983   6.3459   6.3476   6.4226   6.5676   6.6138   6.6409
     6.7071   6.8612   6.8949   7.0085   7.0471   7.0548   7.0757   7.1158
     7.2324   7.4580   7.4709   7.5626   7.5761   7.6169   7.6575   7.6945
     7.8736   7.9047   7.9324   8.0288   8.1795   8.2815   8.3168   8.3303
     8.4575   8.5186   8.6021   8.6177   8.6320   8.8293   8.8542   8.8568
     8.9137   8.9596   9.1875   9.2628   9.3626   9.3824   9.5708   9.6156
     9.6387   9.6447   9.6713   9.6876   9.7395   9.8871  10.0101  10.0885
    10.1449  10.2450  10.3732  10.4206  10.4276  10.5558  10.5775

     the Fermi energy is     8.5676 ev

!    total energy              =   -2943.00591118 Ry
     estimated scf accuracy    <       0.00075727 Ry
     smearing contrib. (-TS)   =      -0.10128077 Ry
     internal energy E=F+TS    =   -2942.90463041 Ry

     total magnetization       =    -0.00 Bohr mag/cell
     absolute magnetization    =     0.05 Bohr mag/cell

     convergence has been achieved in  12 iterations

     negative rho (up, down):  9.078E-01 9.078E-01

     Forces acting on atoms (cartesian axes, Ry/au):

     atom    1 type  1   force =    -0.00995053   -0.02772771    0.01245311
     atom    2 type  1   force =    -0.12221735   -0.01735409   -0.00125435
     atom    3 type  1   force =    -0.12040823    0.01387524    0.00187895
     atom    4 type  1   force =     0.12307570   -0.01857750   -0.00274443
     atom    5 type  1   force =     0.12142901    0.01557916    0.00278265
     atom    6 type  2   force =    -0.00914113   -0.01722345    0.00423305
     atom    7 type  2   force =    -0.00921555    0.01536975   -0.00285352
     atom    8 type  3   force =    -0.13943856    0.00405641   -0.00409819
     atom    9 type  3   force =    -0.09496072    0.00330600   -0.00497508
     atom   10 type  3   force =    -0.02482911   -0.03034666   -0.05850174
     atom   11 type  3   force =    -0.02310057   -0.03636282    0.05595841
     atom   12 type  3   force =    -0.01901730    0.03514314   -0.05485305
     atom   13 type  3   force =    -0.02060764    0.02970272    0.05922167
     atom   14 type  3   force =     0.02664497   -0.03080185   -0.05665088
     atom   15 type  3   force =     0.02428627   -0.03365624    0.05270489
     atom   16 type  3   force =     0.02028440    0.03386744   -0.05130476
     atom   17 type  3   force =     0.02181169    0.02950423    0.05719784
     atom   18 type  4   force =    -0.01046415    0.02672334   -0.01527948
     atom   19 type  4   force =    -0.13618181   -0.00300895   -0.11377452
     atom   20 type  4   force =    -0.13914613    0.00590371    0.11678627
     atom   21 type  4   force =     0.13681088   -0.00424395   -0.11854024
     atom   22 type  4   force =     0.13975388    0.00650100    0.12071221
     atom   23 type  5   force =     0.26458199   -0.00022893    0.00090119
     The non-local contrib.  to forces
     atom    1 type  1   force =    -0.00675449   -0.01886951    0.03411562
     atom    2 type  1   force =    -0.24409374   -0.16487278    0.01850715
     atom    3 type  1   force =    -0.23841924    0.15930001   -0.02827194
     atom    4 type  1   force =     0.25825736   -0.16087197    0.01684928
     atom    5 type  1   force =     0.25284602    0.15551885   -0.02766157
     atom    6 type  2   force =    -0.00888286   -0.06007829   -0.07087519
     atom    7 type  2   force =    -0.01015348    0.07133083    0.06359089
     atom    8 type  3   force =    -0.26933141    0.00049679   -0.00505183
     atom    9 type  3   force =    -0.06100994    0.00127706   -0.00673915
     atom   10 type  3   force =    -0.21831640    0.00679081   -0.21141258
     atom   11 type  3   force =    -0.22265043    0.00785719    0.20098630
     atom   12 type  3   force =    -0.20421070   -0.02125848   -0.18523873
     atom   13 type  3   force =    -0.21417872   -0.00669681    0.21061924
     atom   14 type  3   force =     0.21997153    0.00358895   -0.21299995
     atom   15 type  3   force =     0.22447193    0.00884056    0.20163100
     atom   16 type  3   force =     0.20529947   -0.02032296   -0.18586430
     atom   17 type  3   force =     0.21457126   -0.00442246    0.21232418
     atom   18 type  4   force =    -0.01079249    0.06662407   -0.06878629
     atom   19 type  4   force =     0.06952316    0.00823401    0.06518363
     atom   20 type  4   force =     0.06452744   -0.00966863   -0.05926281
     atom   21 type  4   force =    -0.06653092    0.00769741    0.06774733
     atom   22 type  4   force =    -0.06204638   -0.00949116   -0.06212926
     atom   23 type  5   force =    -0.10039927    0.00003843    0.00007306
     The ionic contribution  to forces
     atom    1 type  1   force =    -0.24768728   -4.75281381   14.44854351
     atom    2 type  1   force =   -34.49625394   -6.24608621    0.77897172
     atom    3 type  1   force =   -34.47877231    6.23232259   -0.71247644
     atom    4 type  1   force =    34.30682273   -6.48352303    0.77770459
     atom    5 type  1   force =    34.28833849    6.47031599   -0.71100486
     atom    6 type  2   force =    -0.26169896   -3.72140580  -14.38243299
     atom    7 type  2   force =    -0.26172725    3.75740632   14.41618489
     atom    8 type  3   force =   -46.17661811    0.07250906   -0.06585871
     atom    9 type  3   force =    43.13987372    0.07433966   -0.06794179
     atom   10 type  3   force =   -31.09913046   -2.14726556  -23.64568899
     atom   11 type  3   force =   -30.16771256   -0.89464002   22.64765206
     atom   12 type  3   force =   -30.28327514    0.84284555  -22.69590239
     atom   13 type  3   force =   -31.07556260    2.23383566   23.62832406
     atom   14 type  3   force =    31.02319869   -2.20609484  -23.71967923
     atom   15 type  3   force =    30.09267973   -0.95295237   22.72122415
     atom   16 type  3   force =    30.20842294    0.90077631  -22.76910157
     atom   17 type  3   force =    30.99958542    2.29266377   23.70231771
     atom   18 type  4   force =    -0.24473043    4.51989144  -14.30817241
     atom   19 type  4   force =   -31.10349444    0.96129748  -26.14177245
     atom   20 type  4   force =   -31.07500870   -0.95698037   26.12018806
     atom   21 type  4   force =    30.92883452    0.95976936  -26.39908372
     atom   22 type  4   force =    30.90171665   -0.95578085   26.37685893
     atom   23 type  5   force =     5.08219928   -0.00043034    0.00114588
     The local contribution  to forces
     atom    1 type  1   force =     0.23865289    4.74152632  -14.47769677
     atom    2 type  1   force =    34.62590484    6.39124841   -0.79851957
     atom    3 type  1   force =    34.60595647   -6.37907793    0.74147965
     atom    4 type  1   force =   -34.45101056    6.61824977   -0.79761715
     atom    5 type  1   force =   -34.43039282   -6.60599229    0.73959410
     atom    6 type  2   force =     0.25390939    3.77002014   14.47040409
     atom    7 type  2   force =     0.25463231   -3.81667976  -14.49495341
     atom    8 type  3   force =    46.31974315   -0.06568849    0.06251975
     atom    9 type  3   force =   -43.16813072   -0.06929175    0.06586642
     atom   10 type  3   force =    31.30656781    2.09478393   23.81738048
     atom   11 type  3   force =    30.38820426    0.83651040  -22.81563055
     atom   12 type  3   force =    30.48882940   -0.77762442   22.84294335
     atom   13 type  3   force =    31.28543567   -2.18654461  -23.79612054
     atom   14 type  3   force =   -31.23071867    2.15175060   23.89236242
     atom   15 type  3   force =   -30.31486213    0.89627812  -22.89080122
     atom   16 type  3   force =   -30.41437443   -0.83214468   22.91814361
     atom   17 type  3   force =   -31.21156496   -2.24515194  -23.87149137
     atom   18 type  4   force =     0.23772880   -4.56005423   14.36779825
     atom   19 type  4   force =    30.90062314   -0.96696516   25.97428942
     atom   20 type  4   force =    30.87620092    0.97437556  -25.95154341
     atom   21 type  4   force =   -30.73078843   -0.96704611   26.21848085
     atom   22 type  4   force =   -30.70626482    0.97160030  -26.19670049
     atom   23 type  5   force =    -4.71589711    0.00023911   -0.00059814
     The core correction contribution to forces
     atom    1 type  1   force =     0.00101029    0.00303701   -0.00146912
     atom    2 type  1   force =    -0.01187389   -0.00152842    0.00089119
     atom    3 type  1   force =    -0.01209845    0.00233886   -0.00160463
     atom    4 type  1   force =     0.01232485   -0.00168998    0.00095563
     atom    5 type  1   force =     0.01241218    0.00249890   -0.00180161
     atom    6 type  2   force =     0.00026020    0.00266504    0.00271152
     atom    7 type  2   force =     0.00031719   -0.00324334   -0.00218326
     atom    8 type  3   force =    -0.03115632    0.00037196   -0.00058791
     atom    9 type  3   force =     0.00142157    0.00006569   -0.00046752
     atom   10 type  3   force =    -0.02220206    0.00881925   -0.01636184
     atom   11 type  3   force =    -0.02401070    0.00919111    0.01719980
     atom   12 type  3   force =    -0.02224162   -0.00912840   -0.01594391
     atom   13 type  3   force =    -0.02213579   -0.00835704    0.01690049
     atom   14 type  3   force =     0.02338999    0.00983193   -0.01468303
     atom   15 type  3   force =     0.02474635    0.01089477    0.01535657
     atom   16 type  3   force =     0.02291985   -0.01083256   -0.01398269
     atom   17 type  3   force =     0.02308354   -0.00951815    0.01513591
     atom   18 type  4   force =     0.00043112   -0.00358230    0.00332020
     atom   19 type  4   force =    -0.01027463    0.00016727   -0.00903091
     atom   20 type  4   force =    -0.01010328    0.00013478    0.00889187
     atom   21 type  4   force =     0.01034405    0.00019248   -0.00915716
     atom   22 type  4   force =     0.01019213    0.00011228    0.00901458
     atom   23 type  5   force =     0.00000000    0.00000000    0.00000000
     The Hubbard contrib.    to forces
     atom    1 type  1   force =     0.00000000    0.00000000    0.00000000
     atom    2 type  1   force =     0.00000000    0.00000000    0.00000000
     atom    3 type  1   force =     0.00000000    0.00000000    0.00000000
     atom    4 type  1   force =     0.00000000    0.00000000    0.00000000
     atom    5 type  1   force =     0.00000000    0.00000000    0.00000000
     atom    6 type  2   force =     0.00000000    0.00000000    0.00000000
     atom    7 type  2   force =     0.00000000    0.00000000    0.00000000
     atom    8 type  3   force =     0.00000000    0.00000000    0.00000000
     atom    9 type  3   force =     0.00000000    0.00000000    0.00000000
     atom   10 type  3   force =     0.00000000    0.00000000    0.00000000
     atom   11 type  3   force =     0.00000000    0.00000000    0.00000000
     atom   12 type  3   force =     0.00000000    0.00000000    0.00000000
     atom   13 type  3   force =     0.00000000    0.00000000    0.00000000
     atom   14 type  3   force =     0.00000000    0.00000000    0.00000000
     atom   15 type  3   force =     0.00000000    0.00000000    0.00000000
     atom   16 type  3   force =     0.00000000    0.00000000    0.00000000
     atom   17 type  3   force =     0.00000000    0.00000000    0.00000000
     atom   18 type  4   force =     0.00000000    0.00000000    0.00000000
     atom   19 type  4   force =     0.00000000    0.00000000    0.00000000
     atom   20 type  4   force =     0.00000000    0.00000000    0.00000000
     atom   21 type  4   force =     0.00000000    0.00000000    0.00000000
     atom   22 type  4   force =     0.00000000    0.00000000    0.00000000
     atom   23 type  5   force =     0.00000000    0.00000000    0.00000000
     The SCF correction term to forces
     atom    1 type  1   force =     0.00000000   -0.00000000    0.00000000
     atom    2 type  1   force =     0.00000000    0.00000000   -0.00000000
     atom    3 type  1   force =     0.00000000   -0.00000000    0.00000000
     atom    4 type  1   force =    -0.00000000    0.00000000   -0.00000000
     atom    5 type  1   force =    -0.00000000   -0.00000000    0.00000000
     atom    6 type  2   force =     0.00000000   -0.00000000   -0.00000000
     atom    7 type  2   force =     0.00000000    0.00000000    0.00000000
     atom    8 type  3   force =     0.00000000   -0.00000000    0.00000000
     atom    9 type  3   force =    -0.00000000   -0.00000000    0.00000000
     atom   10 type  3   force =     0.00000000    0.00000000   -0.00000000
     atom   11 type  3   force =     0.00000000    0.00000000    0.00000000
     atom   12 type  3   force =     0.00000000    0.00000000   -0.00000000
     atom   13 type  3   force =     0.00000000   -0.00000000   -0.00000000
     atom   14 type  3   force =    -0.00945294    0.01005650   -0.00171516
     atom   15 type  3   force =    -0.00300598    0.00321766    0.00523031
     atom   16 type  3   force =    -0.00223979   -0.00367369   -0.00056388
     atom   17 type  3   force =    -0.00411993   -0.00413201   -0.00115267
     atom   18 type  4   force =     0.00664249    0.00377935   -0.00950330
     atom   19 type  4   force =     0.00718460   -0.00580757   -0.00250828
     atom   20 type  4   force =     0.00498113   -0.00202264   -0.00155151
     atom   21 type  4   force =    -0.00530471   -0.00492211    0.00340837
     atom   22 type  4   force =    -0.00410008   -0.00000459   -0.00639562
     atom   23 type  5   force =    -0.00157727   -0.00014115    0.00021631

     Total force =     0.469793     Total SCF correction =     0.026274

     Molecular Dynamics Calculation

     Starting temperature  =   300.00 K

     temperature is set once at start

     mass Hf               =   178.49
     mass Nb               =    92.91
     mass Ta               =   180.95
     mass Zr               =    91.22
     mass H                =     2.01
     Time step             =    10.50 a.u.,  0.5080 femto-seconds

     Entering Dynamics:    iteration =     1
                           time      =   0.0005 pico-seconds


ATOMIC_POSITIONS (angstrom)
Hf            2.6699999570        2.8271230292        6.6039642186    0   0   0
Hf            1.2529906802        1.2862841814        5.0584662261    0   0   0
Hf            1.2554868986        7.3898042948        5.0880677674    0   0   0
Hf            4.0870092338        1.2862841814        5.0584662261    0   0   0
Hf            4.0845130154        7.3898042948        5.0880677674    0   0   0
Nb            2.6699999570        2.7969306055        3.5155832167    0   0   0
Nb            2.6699999570        5.8763786763        6.6349979432    0   0   0
Ta            1.2093730560        4.3409278516        5.0711258323    0   0   0
Ta            4.1306268580        4.3409278516        5.0711258323    0   0   0
Ta            1.3072526841        1.3141225894        2.0587791101    0   0   0
Ta            1.3027883142        1.3083911360        8.0945792024    0   0   0
Ta            1.3040096221        7.3758261241        2.0462371798    0   0   0
Ta            1.3077107984        7.3650829484        8.0860022208    0   0   0
Ta            4.0327519427        1.3141171413        2.0587690900
Ta            4.0372158954        1.3083851831        8.0945885246
Ta            4.0359938797        7.3758321144        2.0462281053
Ta            4.0322929735        7.3650881670        8.0860123377
Zr            2.6699962857        5.8662952190        3.5273785697
Zr            1.2437868408        4.3220769088        1.9999600832
Zr            1.2403365945        4.3541253558        8.1497965227
Zr            4.0962132939        4.3220764755        1.9999584112
Zr            4.0996635327        4.3541255653        8.1497979001
H             5.4986450158        4.3399963122        5.0721941159


     kinetic energy (Ekin) =           0.55137389 Ry
     temperature           =        5803.67016310 K 
     Ekin + Etot (const)   =       -2942.45453728 Ry

     File outdir/pwscf.msd.dat deleted, as requested

     Writing config-only to output data dir outdir/pwscf.save/
     NEW-OLD atomic charge density approx. for the potential

     Check: negative core charge=   -0.000002

     negative rho (up, down):  9.077E-01 9.077E-01
     Generating pointlists ...
     new r_m :   0.0677 (alat units)  1.0664 (a.u.) for type    3
     new r_m :   0.0677 (alat units)  1.0664 (a.u.) for type    5

     total cpu time spent up to now is      578.4 secs

     Self-consistent Calculation

     iteration #  1     ecut=   120.00 Ry     beta= 0.70
     Davidson diagonalization with overlap
     ethr =  1.00E-06,  avg # of iterations =  7.0

     negative rho (up, down):  9.078E-01 9.078E-01

     total cpu time spent up to now is      653.8 secs

     total energy              =   -2942.91132388 Ry
     estimated scf accuracy    <       0.02987743 Ry

     total magnetization       =    -0.00 Bohr mag/cell
     absolute magnetization    =     0.04 Bohr mag/cell

     iteration #  2     ecut=   120.00 Ry     beta= 0.70
     Davidson diagonalization with overlap
     ethr =  1.08E-05,  avg # of iterations =  2.0

     negative rho (up, down):  9.077E-01 9.077E-01

     total cpu time spent up to now is      694.9 secs

     total energy              =   -2942.91520675 Ry
     estimated scf accuracy    <       0.00641398 Ry

     total magnetization       =    -0.00 Bohr mag/cell
     absolute magnetization    =     0.04 Bohr mag/cell

     iteration #  3     ecut=   120.00 Ry     beta= 0.70
     Davidson diagonalization with overlap
     ethr =  2.32E-06,  avg # of iterations =  2.0

     negative rho (up, down):  9.075E-01 9.075E-01

     Magnetic moment per site  (integrated on atomic sphere of radius R)
     atom   1 (R=0.125)  charge=  9.4647    0.0000
     atom   2 (R=0.125)  charge=  9.0572    0.0000
     atom   3 (R=0.125)  charge=  9.0578   -0.0000
     atom   4 (R=0.125)  charge=  9.0560    0.0001
     atom   5 (R=0.125)  charge=  9.0569   -0.0001
     atom   6 (R=0.123)  charge= 10.3478   -0.0001
     atom   7 (R=0.123)  charge= 10.3500   -0.0000
     atom   8 (R=0.068)  charge=  4.2002    0.0000
     atom   9 (R=0.068)  charge=  4.2214    0.0000
     atom  10 (R=0.068)  charge=  4.1885    0.0001
     atom  11 (R=0.068)  charge=  4.1874    0.0000
     atom  12 (R=0.068)  charge=  4.1866   -0.0001
     atom  13 (R=0.068)  charge=  4.1897   -0.0001
     atom  14 (R=0.068)  charge=  4.1901    0.0002
     atom  15 (R=0.068)  charge=  4.1894    0.0001
     atom  16 (R=0.068)  charge=  4.1880   -0.0002
     atom  17 (R=0.068)  charge=  4.1908   -0.0002
     atom  18 (R=0.125)  charge=  9.4569   -0.0001
     atom  19 (R=0.125)  charge=  9.0002    0.0013
     atom  20 (R=0.125)  charge=  9.0002   -0.0013
     atom  21 (R=0.125)  charge=  8.9988    0.0012
     atom  22 (R=0.125)  charge=  8.9994   -0.0012
     atom  23 (R=0.068)  charge=  0.8573    0.0000

     total cpu time spent up to now is      732.7 secs

     End of self-consistent calculation

 ------ SPIN UP ------------


          k = 0.0000 0.0000 0.0000 ( 55051 PWs)   bands (ev):

   -59.4921 -59.4870 -59.4467 -59.4414 -59.4120 -59.4082 -59.3681 -59.3640
   -59.2256 -58.6509 -53.1038 -53.0501 -52.9798 -52.9265 -51.3870 -44.9171
   -44.9123 -40.3259 -40.3125 -40.2220 -40.2205 -38.4912 -26.4940 -26.4864
   -26.4039 -26.4034 -26.3136 -26.3038 -26.1901 -26.1730 -26.0721 -26.0354
   -26.0037 -25.9700 -25.9660 -25.9368 -25.9243 -25.8723 -25.8641 -25.8369
   -25.7957 -25.6777 -25.6722 -25.6658 -25.6491 -25.6040 -25.5931 -25.5886
   -25.5786 -25.5706 -25.3926 -25.3184 -22.8815 -22.6715 -22.3600 -22.2828
   -22.0220 -21.8798 -21.8579 -21.7559 -21.6384 -21.5703 -21.5512 -21.3369
   -21.1660 -21.1171 -21.0747 -21.0226 -20.9670 -20.9090 -20.4533 -20.3823
   -20.3207 -18.8881 -18.6068 -18.5338 -18.5151 -18.3015 -18.2937 -18.2738
   -18.2667 -18.2565 -18.2138 -18.0531 -18.0391 -16.8413 -16.6312 -16.5116
     2.6631   3.7527   4.2131   4.4527   4.6030   4.8154   4.8291   4.9288
     5.0223   5.2211   5.2362   5.4702   5.5886   5.7964   5.9003   5.9853
     6.0687   6.1002   6.3357   6.3376   6.4123   6.5582   6.6049   6.6307
     6.7013   6.8519   6.8841   6.9980   7.0411   7.0525   7.0624   7.1222
     7.2234   7.4515   7.4642   7.5518   7.5686   7.6206   7.6512   7.6817
     7.8838   7.9157   7.9252   8.0201   8.1770   8.2705   8.3146   8.3237
     8.4454   8.5102   8.5950   8.6085   8.6191   8.8223   8.8439   8.8551
     8.9065   8.9517   9.1784   9.2509   9.3534   9.3770   9.5648   9.6065
     9.6286   9.6359   9.6652   9.6772   9.7333   9.8815  10.0063  10.0923
    10.1375  10.2466  10.3523  10.4081  10.4186  10.5522  10.5763

 ------ SPIN DOWN ----------


          k = 0.0000 0.0000 0.0000 ( 55051 PWs)   bands (ev):

   -59.4925 -59.4867 -59.4470 -59.4411 -59.4120 -59.4085 -59.3681 -59.3643
   -59.2255 -58.6508 -53.1038 -53.0501 -52.9797 -52.9264 -51.3870 -44.9171
   -44.9123 -40.3248 -40.3137 -40.2231 -40.2195 -38.4913 -26.4942 -26.4864
   -26.4040 -26.4034 -26.3140 -26.3034 -26.1901 -26.1734 -26.0720 -26.0354
   -26.0036 -25.9703 -25.9658 -25.9369 -25.9247 -25.8724 -25.8644 -25.8369
   -25.7956 -25.6781 -25.6719 -25.6659 -25.6491 -25.6041 -25.5931 -25.5887
   -25.5787 -25.5708 -25.3925 -25.3183 -22.8815 -22.6715 -22.3600 -22.2828
   -22.0219 -21.8798 -21.8579 -21.7559 -21.6383 -21.5703 -21.5512 -21.3369
   -21.1660 -21.1172 -21.0747 -21.0226 -20.9670 -20.9091 -20.4534 -20.3823
   -20.3207 -18.8866 -18.6090 -18.5323 -18.5136 -18.3015 -18.2940 -18.2740
   -18.2671 -18.2573 -18.2150 -18.0512 -18.0408 -16.8415 -16.6311 -16.5115
     2.6631   3.7527   4.2131   4.4527   4.6032   4.8152   4.8290   4.9287
     5.0226   5.2211   5.2361   5.4702   5.5886   5.7963   5.9003   5.9852
     6.0688   6.1000   6.3356   6.3375   6.4124   6.5584   6.6046   6.6307
     6.7012   6.8518   6.8840   6.9977   7.0412   7.0525   7.0623   7.1223
     7.2232   7.4514   7.4642   7.5517   7.5686   7.6206   7.6512   7.6817
     7.8838   7.9156   7.9250   8.0199   8.1770   8.2711   8.3146   8.3229
     8.4455   8.5101   8.5947   8.6082   8.6191   8.8225   8.8438   8.8545
     8.9062   8.9519   9.1784   9.2510   9.3534   9.3769   9.5646   9.6064
     9.6284   9.6359   9.6652   9.6773   9.7334   9.8814  10.0062  10.0922
    10.1375  10.2466  10.3520  10.4081  10.4183  10.5521  10.5763

     the Fermi energy is     8.5591 ev

!    total energy              =   -2942.91504318 Ry
     estimated scf accuracy    <       0.00095308 Ry
     smearing contrib. (-TS)   =      -0.10140910 Ry
     internal energy E=F+TS    =   -2942.81363407 Ry

     total magnetization       =    -0.00 Bohr mag/cell
     absolute magnetization    =     0.04 Bohr mag/cell

     convergence has been achieved in   3 iterations

     negative rho (up, down):  9.075E-01 9.075E-01

     Forces acting on atoms (cartesian axes, Ry/au):

     atom    1 type  1   force =    -0.01063970   -0.03520531    0.02633826
     atom    2 type  1   force =    -0.11876102   -0.01877208    0.00280670
     atom    3 type  1   force =    -0.11684240    0.01719909    0.00638842
     atom    4 type  1   force =     0.11956364   -0.02222695    0.00186534
     atom    5 type  1   force =     0.11804668    0.02060492    0.00796973
     atom    6 type  2   force =    -0.00881857   -0.01944146   -0.00018285
     atom    7 type  2   force =    -0.00892643    0.01755689   -0.00097586
     atom    8 type  3   force =    -0.14143463    0.00316882   -0.00215449
     atom    9 type  3   force =    -0.30840217    0.00308842   -0.00357541
     atom   10 type  3   force =    -0.02397128   -0.02874123   -0.06342266
     atom   11 type  3   force =    -0.02135680   -0.03551087    0.05714869
     atom   12 type  3   force =    -0.01896156    0.03522036   -0.05824094
     atom   13 type  3   force =    -0.01860283    0.03029094    0.05856519
     atom   14 type  3   force =     0.02586425   -0.02874218   -0.06174347
     atom   15 type  3   force =     0.02277103   -0.03327445    0.05396713
     atom   16 type  3   force =     0.02030030    0.03333239   -0.05510502
     atom   17 type  3   force =     0.02030003    0.02995893    0.05683550
     atom   18 type  4   force =    -0.01038979    0.03207522   -0.02271107
     atom   19 type  4   force =    -0.13411838   -0.00433312   -0.11668374
     atom   20 type  4   force =    -0.13792414    0.00415621    0.11526306
     atom   21 type  4   force =     0.13435501   -0.00532070   -0.12309190
     atom   22 type  4   force =     0.13819641    0.00529563    0.12078233
     atom   23 type  5   force =     0.47975235   -0.00037948   -0.00004296
     The non-local contrib.  to forces
     atom    1 type  1   force =    -0.00697264   -0.02143445    0.04093748
     atom    2 type  1   force =    -0.24406139   -0.16363477    0.02082082
     atom    3 type  1   force =    -0.23858821    0.15922695   -0.02581590
     atom    4 type  1   force =     0.25645384   -0.16109024    0.01977786
     atom    5 type  1   force =     0.25155498    0.15668397   -0.02492056
     atom    6 type  2   force =    -0.00919755   -0.06021925   -0.07113934
     atom    7 type  2   force =    -0.01035923    0.07200638    0.06452130
     atom    8 type  3   force =    -0.25749601   -0.00042772   -0.00191332
     atom    9 type  3   force =     0.02033313    0.00073790   -0.00361501
     atom   10 type  3   force =    -0.21635965    0.00803164   -0.21671811
     atom   11 type  3   force =    -0.21995522    0.00922460    0.20485599
     atom   12 type  3   force =    -0.20349602   -0.02234928   -0.18891746
     atom   13 type  3   force =    -0.21067049   -0.00713679    0.21309387
     atom   14 type  3   force =     0.21803302    0.00537006   -0.21823777
     atom   15 type  3   force =     0.22188206    0.00958859    0.20532098
     atom   16 type  3   force =     0.20497565   -0.02195769   -0.18983568
     atom   17 type  3   force =     0.21120362   -0.00512344    0.21492694
     atom   18 type  4   force =    -0.01079731    0.06966058   -0.07168951
     atom   19 type  4   force =     0.07119510    0.00701911    0.06375482
     atom   20 type  4   force =     0.06579876   -0.01087941   -0.05928960
     atom   21 type  4   force =    -0.06813795    0.00669282    0.06513831
     atom   22 type  4   force =    -0.06350041   -0.01014430   -0.06093817
     atom   23 type  5   force =    -0.13007419    0.00003514    0.00002993
     The ionic contribution  to forces
     atom    1 type  1   force =    -0.27514120   -4.76767169   14.46506170
     atom    2 type  1   force =   -34.51258215   -6.24470368    0.77898951
     atom    3 type  1   force =   -34.49515502    6.23097914   -0.71242960
     atom    4 type  1   force =    34.31160192   -6.50621834    0.77759202
     atom    5 type  1   force =    34.29308212    6.49310666   -0.71084218
     atom    6 type  2   force =    -0.29044635   -3.73716778  -14.39993742
     atom    7 type  2   force =    -0.29048552    3.77312692   14.43374159
     atom    8 type  3   force =   -46.23294229    0.07251728   -0.06588141
     atom    9 type  3   force =    42.47577244    0.07503112   -0.06876491
     atom   10 type  3   force =   -31.10684407   -2.14691657  -23.64501848
     atom   11 type  3   force =   -30.17537731   -0.89427910   22.64696641
     atom   12 type  3   force =   -30.29100646    0.84256863  -22.69530418
     atom   13 type  3   force =   -31.08327993    2.23352064   23.62764513
     atom   14 type  3   force =    31.02576900   -2.21046195  -23.72491378
     atom   15 type  3   force =    30.09527635   -0.95726875   22.72641019
     atom   16 type  3   force =    30.21108534    0.90509932  -22.77430903
     atom   17 type  3   force =    31.00214439    2.29706933   23.70755404
     atom   18 type  4   force =    -0.27176992    4.53440275  -14.32441328
     atom   19 type  4   force =   -31.11760612    0.96124125  -26.13892875
     atom   20 type  4   force =   -31.08906170   -0.95697578   26.11730670
     atom   21 type  4   force =    30.93243847    0.95960351  -26.42152072
     atom   22 type  4   force =    30.90538202   -0.95566131   26.39918296
     atom   23 type  5   force =     5.97914599   -0.00094161    0.00181350
     The local contribution  to forces
     atom    1 type  1   force =     0.26144250    4.72796658  -14.44371147
     atom    2 type  1   force =    34.65648166    6.38212083   -0.78134145
     atom    3 type  1   force =    34.63724776   -6.36564400    0.76062449
     atom    4 type  1   force =   -34.46932401    6.62892629   -0.77883958
     atom    5 type  1   force =   -34.44884688   -6.61337182    0.76087880
     atom    6 type  2   force =     0.27804550    3.75368013   14.45508131
     atom    7 type  2   force =     0.28072742   -3.79901171  -14.46017888
     atom    8 type  3   force =    46.37415027   -0.07047716    0.08397632
     atom    9 type  3   force =   -42.80501315   -0.07360496    0.08758458
     atom   10 type  3   force =    31.32041324    2.10013195   23.79675603
     atom   11 type  3   force =    30.40353020    0.83374229  -22.80085071
     atom   12 type  3   force =    30.49793876   -0.77205331   22.83099906
     atom   13 type  3   force =    31.30051762   -2.17429036  -23.79171525
     atom   14 type  3   force =   -31.24120936    2.16228250   23.87642585
     atom   15 type  3   force =   -30.32411274    0.89389880  -22.88101008
     atom   16 type  3   force =   -30.41888535   -0.83369479   22.91046222
     atom   17 type  3   force =   -31.21842730   -2.23620348  -23.87222022
     atom   18 type  4   force =     0.26117402   -4.54869262   14.35904826
     atom   19 type  4   force =    30.92130610   -0.97524395   25.95074752
     atom   20 type  4   force =    30.89672286    0.96600361  -25.94180395
     atom   21 type  4   force =   -30.74163977   -0.97331808   26.21583215
     atom   22 type  4   force =   -30.71697266    0.96565864  -26.20722070
     atom   23 type  5   force =    -5.37070038    0.00025095    0.00049547
     The core correction contribution to forces
     atom    1 type  1   force =     0.00095251    0.00327668   -0.00156114
     atom    2 type  1   force =    -0.01192634   -0.00128508    0.00090399
     atom    3 type  1   force =    -0.01217605    0.00219411   -0.00160173
     atom    4 type  1   force =     0.01226430   -0.00154077    0.00101119
     atom    5 type  1   force =     0.01243995    0.00244492   -0.00182148
     atom    6 type  2   force =     0.00029757    0.00261761    0.00272608
     atom    7 type  2   force =     0.00034606   -0.00326101   -0.00222129
     atom    8 type  3   force =    -0.03043452    0.00036910   -0.00059838
     atom    9 type  3   force =     0.00432475    0.00005101   -0.00048044
     atom   10 type  3   force =    -0.02205198    0.00889718   -0.01654053
     atom   11 type  3   force =    -0.02371318    0.00939483    0.01724153
     atom   12 type  3   force =    -0.02209281   -0.00930340   -0.01606381
     atom   13 type  3   force =    -0.02180528   -0.00860899    0.01695638
     atom   14 type  3   force =     0.02328782    0.00979998   -0.01498624
     atom   15 type  3   force =     0.02442889    0.01095781    0.01550338
     atom   16 type  3   force =     0.02280743   -0.01083619   -0.01428445
     atom   17 type  3   force =     0.02273959   -0.00965719    0.01534250
     atom   18 type  4   force =     0.00041822   -0.00353534    0.00330559
     atom   19 type  4   force =    -0.01026917    0.00019007   -0.00911728
     atom   20 type  4   force =    -0.01011941    0.00013887    0.00893882
     atom   21 type  4   force =     0.01029640    0.00021779   -0.00924494
     atom   22 type  4   force =     0.01019628    0.00009938    0.00906596
     atom   23 type  5   force =     0.00000000    0.00000000    0.00000000
     The Hubbard contrib.    to forces
     atom    1 type  1   force =     0.00000000    0.00000000    0.00000000
     atom    2 type  1   force =     0.00000000    0.00000000    0.00000000
     atom    3 type  1   force =     0.00000000    0.00000000    0.00000000
     atom    4 type  1   force =     0.00000000    0.00000000    0.00000000
     atom    5 type  1   force =     0.00000000    0.00000000    0.00000000
     atom    6 type  2   force =     0.00000000    0.00000000    0.00000000
     atom    7 type  2   force =     0.00000000    0.00000000    0.00000000
     atom    8 type  3   force =     0.00000000    0.00000000    0.00000000
     atom    9 type  3   force =     0.00000000    0.00000000    0.00000000
     atom   10 type  3   force =     0.00000000    0.00000000    0.00000000
     atom   11 type  3   force =     0.00000000    0.00000000    0.00000000
     atom   12 type  3   force =     0.00000000    0.00000000    0.00000000
     atom   13 type  3   force =     0.00000000    0.00000000    0.00000000
     atom   14 type  3   force =     0.00000000    0.00000000    0.00000000
     atom   15 type  3   force =     0.00000000    0.00000000    0.00000000
     atom   16 type  3   force =     0.00000000    0.00000000    0.00000000
     atom   17 type  3   force =     0.00000000    0.00000000    0.00000000
     atom   18 type  4   force =     0.00000000    0.00000000    0.00000000
     atom   19 type  4   force =     0.00000000    0.00000000    0.00000000
     atom   20 type  4   force =     0.00000000    0.00000000    0.00000000
     atom   21 type  4   force =     0.00000000    0.00000000    0.00000000
     atom   22 type  4   force =     0.00000000    0.00000000    0.00000000
     atom   23 type  5   force =     0.00000000    0.00000000    0.00000000
     The SCF correction term to forces
     atom    1 type  1   force =     0.00000000    0.00000000   -0.00000000
     atom    2 type  1   force =    -0.00000000    0.00000000   -0.00000000
     atom    3 type  1   force =    -0.00000000   -0.00000000   -0.00000000
     atom    4 type  1   force =     0.00000000    0.00000000   -0.00000000
     atom    5 type  1   force =     0.00000000   -0.00000000   -0.00000000
     atom    6 type  2   force =     0.00000000    0.00000000    0.00000000
     atom    7 type  2   force =     0.00000000   -0.00000000   -0.00000000
     atom    8 type  3   force =     0.00000000    0.00000000   -0.00000000
     atom    9 type  3   force =    -0.00000000    0.00000000   -0.00000000
     atom   10 type  3   force =     0.00000000    0.00000000    0.00000000
     atom   11 type  3   force =    -0.00000000    0.00000000   -0.00000000
     atom   12 type  3   force =    -0.00000000   -0.00000000    0.00000000
     atom   13 type  3   force =    -0.00000000   -0.00000000   -0.00000000
     atom   14 type  3   force =    -0.00044715    0.00413125    0.02115403
     atom   15 type  3   force =     0.00486555    0.00941311   -0.01107180
     atom   16 type  3   force =    -0.00011369   -0.00541424    0.01404746
     atom   17 type  3   force =     0.00220880   -0.01626228   -0.00758221
     atom   18 type  4   force =     0.01015427   -0.01989615    0.01222342
     atom   19 type  4   force =     0.00082478    0.00232442    0.01804551
     atom   20 type  4   force =    -0.00169558    0.00573293   -0.00870336
     atom   21 type  4   force =     0.00096694    0.00134727    0.02788884
     atom   22 type  4   force =     0.00266025    0.00520725   -0.01812217
     atom   23 type  5   force =     0.00095001    0.00014005   -0.00119630

     Total force =     0.617781     Total SCF correction =     0.059078

     Entering Dynamics:    iteration =     2
                           time      =   0.0010 pico-seconds


ATOMIC_POSITIONS (angstrom)
Hf            2.6699999570        2.8271230292        6.6039642186    0   0   0
Hf            1.2529906802        1.2862841814        5.0584662261    0   0   0
Hf            1.2554868986        7.3898042948        5.0880677674    0   0   0
Hf            4.0870092338        1.2862841814        5.0584662261    0   0   0
Hf            4.0845130154        7.3898042948        5.0880677674    0   0   0
Nb            2.6699999570        2.7969306055        3.5155832167    0   0   0
Nb            2.6699999570        5.8763786763        6.6349979432    0   0   0
Ta            1.2093730560        4.3409278516        5.0711258323    0   0   0
Ta            4.1306268580        4.3409278516        5.0711258323    0   0   0
Ta            1.3072526841        1.3141225894        2.0587791101    0   0   0
Ta            1.3027883142        1.3083911360        8.0945792024    0   0   0
Ta            1.3040096221        7.3758261241        2.0462371798    0   0   0
Ta            1.3077107984        7.3650829484        8.0860022208    0   0   0
Ta            4.0327658050        1.3141015257        2.0587372281
Ta            4.0372282463        1.3083674593        8.0946169376
Ta            4.0360046487        7.3758498960        2.0461995374
Ta            4.0323040126        7.3651039835        8.0860425601
Zr            2.6699853242        5.8663271013        3.5273572731
Zr            1.2436449541        4.3220728127        1.9998382915
Zr            1.2401909974        4.3541303434        8.1499183742
Zr            4.0963555673        4.3220712532        1.9998304510
Zr            4.0998095341        4.3541315620        8.1499250017
H             5.3819109763        4.3399806134        5.0722070716


     kinetic energy (Ekin) =           0.45984831 Ry
     temperature           =        4840.28704735 K 
     Ekin + Etot (const)   =       -2942.45519487 Ry

     Writing config-only to output data dir outdir/pwscf.save/
     NEW-OLD atomic charge density approx. for the potential

     Check: negative core charge=   -0.000002

     negative rho (up, down):  9.073E-01 9.073E-01
     Generating pointlists ...
     new r_m :   0.0619 (alat units)  0.9754 (a.u.) for type    3
     new r_m :   0.0619 (alat units)  0.9754 (a.u.) for type    5

     total cpu time spent up to now is      757.0 secs

     Self-consistent Calculation

     iteration #  1     ecut=   120.00 Ry     beta= 0.70
     Davidson diagonalization with overlap
     c_bands:  1 eigenvalues not converged
     c_bands:  1 eigenvalues not converged
     ethr =  1.00E-06,  avg # of iterations = 20.0

     negative rho (up, down):  9.074E-01 9.074E-01

     total cpu time spent up to now is      840.4 secs

     total energy              =   -2942.75291088 Ry
     estimated scf accuracy    <       0.24500131 Ry

     total magnetization       =    -0.00 Bohr mag/cell
     absolute magnetization    =     0.03 Bohr mag/cell

     iteration #  2     ecut=   120.00 Ry     beta= 0.70
     Davidson diagonalization with overlap
     ethr =  8.84E-05,  avg # of iterations =  2.0

     negative rho (up, down):  9.074E-01 9.074E-01

     total cpu time spent up to now is      878.6 secs

     total energy              =   -2942.77366668 Ry
     estimated scf accuracy    <       0.08013968 Ry

     total magnetization       =    -0.00 Bohr mag/cell
     absolute magnetization    =     0.03 Bohr mag/cell

     iteration #  3     ecut=   120.00 Ry     beta= 0.70
     Davidson diagonalization with overlap
     ethr =  2.89E-05,  avg # of iterations =  1.0

     negative rho (up, down):  9.073E-01 9.073E-01

     total cpu time spent up to now is      913.6 secs

     total energy              =   -2942.77865151 Ry
     estimated scf accuracy    <       0.00583646 Ry

     total magnetization       =    -0.00 Bohr mag/cell
     absolute magnetization    =     0.03 Bohr mag/cell

     iteration #  4     ecut=   120.00 Ry     beta= 0.70
     Davidson diagonalization with overlap
     c_bands:  1 eigenvalues not converged
     c_bands:  2 eigenvalues not converged
     ethr =  2.11E-06,  avg # of iterations = 20.0

     negative rho (up, down):  9.072E-01 9.072E-01

     total cpu time spent up to now is      955.5 secs

     total energy              =   -2942.77883022 Ry
     estimated scf accuracy    <       0.00108202 Ry

     total magnetization       =    -0.00 Bohr mag/cell
     absolute magnetization    =     0.02 Bohr mag/cell

     iteration #  5     ecut=   120.00 Ry     beta= 0.70
     Davidson diagonalization with overlap
     ethr =  3.91E-07,  avg # of iterations = 17.0

     negative rho (up, down):  9.072E-01 9.072E-01

     Magnetic moment per site  (integrated on atomic sphere of radius R)
     atom   1 (R=0.125)  charge=  9.4631    0.0000
     atom   2 (R=0.125)  charge=  9.0574   -0.0000
     atom   3 (R=0.125)  charge=  9.0576   -0.0000
     atom   4 (R=0.125)  charge=  9.0554    0.0000
     atom   5 (R=0.125)  charge=  9.0559   -0.0001
     atom   6 (R=0.123)  charge= 10.3528   -0.0001
     atom   7 (R=0.123)  charge= 10.3516   -0.0000
     atom   8 (R=0.062)  charge=  3.2474    0.0000
     atom   9 (R=0.062)  charge=  3.2729   -0.0000
     atom  10 (R=0.062)  charge=  3.2353    0.0001
     atom  11 (R=0.062)  charge=  3.2338    0.0000
     atom  12 (R=0.062)  charge=  3.2336   -0.0000
     atom  13 (R=0.062)  charge=  3.2351   -0.0000
     atom  14 (R=0.062)  charge=  3.2355    0.0001
     atom  15 (R=0.062)  charge=  3.2344    0.0000
     atom  16 (R=0.062)  charge=  3.2336   -0.0001
     atom  17 (R=0.062)  charge=  3.2354   -0.0001
     atom  18 (R=0.125)  charge=  9.4554   -0.0000
     atom  19 (R=0.125)  charge=  8.9999    0.0008
     atom  20 (R=0.125)  charge=  8.9967   -0.0009
     atom  21 (R=0.125)  charge=  8.9973    0.0008
     atom  22 (R=0.125)  charge=  8.9939   -0.0008
     atom  23 (R=0.062)  charge=  0.8352    0.0000

     total cpu time spent up to now is     1000.0 secs

     End of self-consistent calculation

 ------ SPIN UP ------------


          k = 0.0000 0.0000 0.0000 ( 55051 PWs)   bands (ev):

   -59.4942 -59.4880 -59.4489 -59.4426 -59.4153 -59.4073 -59.3714 -59.3635
   -59.2303 -58.6639 -53.0887 -53.0358 -52.9647 -52.9121 -51.3955 -44.9426
   -44.9264 -40.3196 -40.3020 -40.2147 -40.2124 -38.4895 -26.4968 -26.4877
   -26.4099 -26.3990 -26.3193 -26.3065 -26.1878 -26.1799 -26.1649 -26.0383
   -26.0237 -25.9747 -25.9652 -25.9363 -25.9274 -25.8748 -25.8657 -25.8376
   -25.8007 -25.7953 -25.6779 -25.6722 -25.6612 -25.6549 -25.5993 -25.5970
   -25.5774 -25.5732 -25.3653 -25.2897 -22.8725 -22.6595 -22.3568 -22.2729
   -22.0139 -21.8731 -21.8491 -21.7494 -21.6305 -21.5585 -21.5412 -21.3245
   -21.1861 -21.1313 -21.0805 -21.0305 -20.9713 -20.9151 -20.4567 -20.3851
   -20.3288 -18.8825 -18.5967 -18.5276 -18.5096 -18.2969 -18.2858 -18.2684
   -18.2604 -18.2483 -18.2072 -18.0468 -18.0289 -16.8432 -16.6280 -16.5086
     2.6168   3.5847   4.2155   4.4528   4.5984   4.8143   4.8269   4.9175
     5.0160   5.2157   5.2375   5.4766   5.5871   5.7872   5.8974   5.9858
     6.0610   6.1101   6.3330   6.3371   6.4159   6.5594   6.6084   6.6305
     6.7049   6.8500   6.8744   6.9990   7.0437   7.0556   7.0633   7.1204
     7.2244   7.4518   7.4613   7.5551   7.5694   7.6274   7.6558   7.6828
     7.8824   7.9211   7.9493   8.0199   8.1737   8.2734   8.3117   8.3258
     8.4413   8.5146   8.5959   8.6108   8.6211   8.8222   8.8466   8.8607
     8.9085   8.9484   9.1822   9.2404   9.3534   9.3804   9.5648   9.5908
     9.6314   9.6375   9.6606   9.6653   9.7315   9.8833  10.0091  10.1039
    10.1271  10.2490  10.3278  10.4136  10.4184  10.5564  10.5787

 ------ SPIN DOWN ----------


          k = 0.0000 0.0000 0.0000 ( 55051 PWs)   bands (ev):

   -59.4940 -59.4881 -59.4487 -59.4427 -59.4154 -59.4073 -59.3716 -59.3635
   -59.2303 -58.6639 -53.0888 -53.0359 -52.9647 -52.9122 -51.3954 -44.9426
   -44.9264 -40.3189 -40.3027 -40.2141 -40.2130 -38.4895 -26.4968 -26.4877
   -26.4099 -26.3991 -26.3192 -26.3065 -26.1879 -26.1801 -26.1648 -26.0381
   -26.0238 -25.9744 -25.9654 -25.9364 -25.9274 -25.8749 -25.8657 -25.8376
   -25.8007 -25.7952 -25.6777 -25.6724 -25.6612 -25.6549 -25.5994 -25.5971
   -25.5775 -25.5732 -25.3653 -25.2898 -22.8725 -22.6595 -22.3568 -22.2730
   -22.0139 -21.8731 -21.8491 -21.7494 -21.6305 -21.5585 -21.5412 -21.3245
   -21.1861 -21.1313 -21.0805 -21.0305 -20.9713 -20.9151 -20.4568 -20.3851
   -20.3288 -18.8816 -18.5981 -18.5266 -18.5086 -18.2967 -18.2861 -18.2683
   -18.2607 -18.2490 -18.2080 -18.0456 -18.0300 -16.8433 -16.6280 -16.5085
     2.6168   3.5847   4.2154   4.4528   4.5984   4.8142   4.8268   4.9174
     5.0162   5.2156   5.2374   5.4765   5.5870   5.7871   5.8973   5.9857
     6.0610   6.1100   6.3329   6.3371   6.4159   6.5595   6.6083   6.6305
     6.7049   6.8500   6.8743   6.9989   7.0437   7.0556   7.0633   7.1204
     7.2243   7.4517   7.4613   7.5551   7.5694   7.6273   7.6558   7.6827
     7.8824   7.9211   7.9492   8.0198   8.1736   8.2736   8.3117   8.3254
     8.4413   8.5145   8.5958   8.6106   8.6210   8.8223   8.8465   8.8603
     8.9083   8.9485   9.1822   9.2404   9.3534   9.3803   9.5647   9.5908
     9.6312   9.6374   9.6606   9.6653   9.7314   9.8833  10.0091  10.1039
    10.1271  10.2490  10.3278  10.4137  10.4181  10.5564  10.5785

     the Fermi energy is     8.5603 ev

!    total energy              =   -2942.77868684 Ry
     estimated scf accuracy    <       0.00028804 Ry
     smearing contrib. (-TS)   =      -0.10110687 Ry
     internal energy E=F+TS    =   -2942.67757997 Ry

     total magnetization       =    -0.00 Bohr mag/cell
     absolute magnetization    =     0.02 Bohr mag/cell

     convergence has been achieved in   5 iterations

     negative rho (up, down):  9.072E-01 9.072E-01

     Forces acting on atoms (cartesian axes, Ry/au):

     atom    1 type  1   force =    -0.00587742   -0.02663490    0.00979802
     atom    2 type  1   force =    -0.12284033   -0.01454323   -0.00535555
     atom    3 type  1   force =    -0.12189750    0.01234790   -0.00055042
     atom    4 type  1   force =     0.12333943   -0.01366153   -0.00657724
     atom    5 type  1   force =     0.12253072    0.01167107    0.00066457
     atom    6 type  2   force =    -0.00684373   -0.01851836    0.00335247
     atom    7 type  2   force =    -0.00706722    0.01634403   -0.00046728
     atom    8 type  3   force =    -0.14261369    0.00306444   -0.00419560
     atom    9 type  3   force =    -0.61508739    0.00306026   -0.00593006
     atom   10 type  3   force =    -0.02515652   -0.02939972   -0.05551144
     atom   11 type  3   force =    -0.02379109   -0.03446548    0.05621234
     atom   12 type  3   force =    -0.02003565    0.03493672   -0.05208962
     atom   13 type  3   force =    -0.02064445    0.02745128    0.05872986
     atom   14 type  3   force =     0.02576411   -0.02853301   -0.05365703
     atom   15 type  3   force =     0.02396534   -0.03166596    0.05313201
     atom   16 type  3   force =     0.02043471    0.03279401   -0.04881973
     atom   17 type  3   force =     0.02096615    0.02642619    0.05701095
     atom   18 type  4   force =    -0.00678252    0.02793760   -0.01648401
     atom   19 type  4   force =    -0.13687130   -0.00434570   -0.11022732
     atom   20 type  4   force =    -0.14005804    0.00554190    0.11465370
     atom   21 type  4   force =     0.13564112   -0.00547199   -0.11299462
     atom   22 type  4   force =     0.13888591    0.00647193    0.11677191
     atom   23 type  5   force =     0.78403936   -0.00080744    0.00253409
     The non-local contrib.  to forces
     atom    1 type  1   force =    -0.00333207   -0.01457122    0.02898441
     atom    2 type  1   force =    -0.24636106   -0.16130043    0.01605028
     atom    3 type  1   force =    -0.24122788    0.15681868   -0.03007976
     atom    4 type  1   force =     0.25743679   -0.15735403    0.01489396
     atom    5 type  1   force =     0.25275155    0.15297540   -0.02931705
     atom    6 type  2   force =    -0.01037160   -0.05998566   -0.07067548
     atom    7 type  2   force =    -0.01146184    0.07188318    0.06385450
     atom    8 type  3   force =    -0.24068569   -0.00053954   -0.00539962
     atom    9 type  3   force =     0.16827540    0.00047879   -0.00705926
     atom   10 type  3   force =    -0.21671619    0.00777332   -0.21268282
     atom   11 type  3   force =    -0.22316391    0.01000491    0.20354072
     atom   12 type  3   force =    -0.20376235   -0.02228986   -0.18649670
     atom   13 type  3   force =    -0.21290992   -0.00860679    0.21280541
     atom   14 type  3   force =     0.21840037    0.00581520   -0.21370408
     atom   15 type  3   force =     0.22561971    0.01080610    0.20356497
     atom   16 type  3   force =     0.20590865   -0.02186186   -0.18704007
     atom   17 type  3   force =     0.21344193   -0.00719223    0.21403617
     atom   18 type  4   force =    -0.01037575    0.06736711   -0.07053376
     atom   19 type  4   force =     0.07074201    0.00745926    0.06932897
     atom   20 type  4   force =     0.06535103   -0.01011441   -0.06284275
     atom   21 type  4   force =    -0.06752026    0.00703736    0.07105185
     atom   22 type  4   force =    -0.06325047   -0.00941819   -0.06474664
     atom   23 type  5   force =    -0.15943435    0.00005617    0.00014430
     The ionic contribution  to forces
     atom    1 type  1   force =    -0.29913932   -4.78101138   14.48223784
     atom    2 type  1   force =   -34.52664501   -6.24405455    0.77902100
     atom    3 type  1   force =   -34.50930046    6.23039114   -0.71225757
     atom    4 type  1   force =    34.31771471   -6.52590042    0.77749319
     atom    5 type  1   force =    34.29920511    6.51282867   -0.71063900
     atom    6 type  2   force =    -0.31547067   -3.75114392  -14.41804427
     atom    7 type  2   force =    -0.31553103    3.78713584   14.45185483
     atom    8 type  3   force =   -46.28099763    0.07258690   -0.06600134
     atom    9 type  3   force =    41.70655489    0.07607071   -0.06997175
     atom   10 type  3   force =   -31.11312391   -2.14668091  -23.64402732
     atom   11 type  3   force =   -30.18161655   -0.89403234   22.64596428
     atom   12 type  3   force =   -30.29753119    0.84257831  -22.69457306
     atom   13 type  3   force =   -31.08956720    2.23336710   23.62663338
     atom   14 type  3   force =    31.02804279   -2.21347364  -23.72820346
     atom   15 type  3   force =    30.09759506   -0.96025751   22.72968681
     atom   16 type  3   force =    30.21366619    0.90819451  -22.77772291
     atom   17 type  3   force =    31.00439901    2.30017369   23.71085497
     atom   18 type  4   force =    -0.29542139    4.54686644  -14.34097216
     atom   19 type  4   force =   -31.12799926    0.96104722  -26.13446657
     atom   20 type  4   force =   -31.09941326   -0.95691857   26.11281794
     atom   21 type  4   force =    30.93559940    0.95940542  -26.43803776
     atom   22 type  4   force =    30.90861047   -0.95551539   26.41567125
     atom   23 type  5   force =     6.94036926   -0.00165730    0.00268169
     The local contribution  to forces
     atom    1 type  1   force =     0.29758646    4.77096770  -14.52138631
     atom    2 type  1   force =    34.65841235    6.39671228   -0.81538740
     atom    3 type  1   force =    34.63544054   -6.38033038    0.73086094
     atom    4 type  1   force =   -34.45981520    6.67794505   -0.81399560
     atom    5 type  1   force =   -34.43595655   -6.66201455    0.72996078
     atom    6 type  2   force =     0.32086828    3.79242507   14.49597944
     atom    7 type  2   force =     0.32172318   -3.84568353  -14.53895852
     atom    8 type  3   force =    46.40555840   -0.07062512    0.05437267
     atom    9 type  3   force =   -42.49920325   -0.07477146    0.05778143
     atom   10 type  3   force =    31.32350934    2.10008612   23.83581356
     atom   11 type  3   force =    30.40234163    0.84370025  -22.82175330
     atom   12 type  3   force =    30.49902751   -0.77582615   22.85927899
     atom   13 type  3   force =    31.30082519   -2.19398196  -23.80763365
     atom   14 type  3   force =   -31.24099133    2.16965156   23.92166204
     atom   15 type  3   force =   -30.32212444    0.91095019  -22.90754287
     atom   16 type  3   force =   -30.41848960   -0.84262368   22.94468992
     atom   17 type  3   force =   -31.21773941   -2.26264304  -23.89388328
     atom   18 type  4   force =     0.30053738   -4.58526603   14.39582215
     atom   19 type  4   force =    30.92345256   -0.97297232   25.97949190
     atom   20 type  4   force =    30.89921115    0.97406726  -25.95545404
     atom   21 type  4   force =   -30.73538603   -0.97247882   26.28246865
     atom   22 type  4   force =   -30.71199203    0.97275824  -26.25812240
     atom   23 type  5   force =    -5.99782462    0.00089146   -0.00248698
     The core correction contribution to forces
     atom    1 type  1   force =     0.00119795    0.00353023   -0.00185104
     atom    2 type  1   force =    -0.01200478   -0.00131679    0.00088886
     atom    3 type  1   force =    -0.01223063    0.00219941   -0.00160612
     atom    4 type  1   force =     0.01236721   -0.00140010    0.00100514
     atom    5 type  1   force =     0.01247114    0.00225294   -0.00178600
     atom    6 type  2   force =     0.00042438    0.00268886    0.00275768
     atom    7 type  2   force =     0.00046865   -0.00331685   -0.00226282
     atom    8 type  3   force =    -0.02935331    0.00037533   -0.00063321
     atom    9 type  3   force =     0.01005524    0.00001874   -0.00043338
     atom   10 type  3   force =    -0.02199184    0.00894331   -0.01657186
     atom   11 type  3   force =    -0.02383532    0.00944226    0.01734508
     atom   12 type  3   force =    -0.02191666   -0.00933209   -0.01612146
     atom   13 type  3   force =    -0.02187533   -0.00860203    0.01708686
     atom   14 type  3   force =     0.02326675    0.00971280   -0.01510434
     atom   15 type  3   force =     0.02465875    0.01081806    0.01571154
     atom   16 type  3   force =     0.02273644   -0.01069390   -0.01440627
     atom   17 type  3   force =     0.02291579   -0.00950073    0.01559164
     atom   18 type  4   force =     0.00053523   -0.00363073    0.00343332
     atom   19 type  4   force =    -0.01028052    0.00017001   -0.00923872
     atom   20 type  4   force =    -0.01009707    0.00014684    0.00900952
     atom   21 type  4   force =     0.01029487    0.00019300   -0.00925999
     atom   22 type  4   force =     0.01016797    0.00010829    0.00902966
     atom   23 type  5   force =     0.00000000    0.00000000    0.00000000
     The Hubbard contrib.    to forces
     atom    1 type  1   force =     0.00000000    0.00000000    0.00000000
     atom    2 type  1   force =     0.00000000    0.00000000    0.00000000
     atom    3 type  1   force =     0.00000000    0.00000000    0.00000000
     atom    4 type  1   force =     0.00000000    0.00000000    0.00000000
     atom    5 type  1   force =     0.00000000    0.00000000    0.00000000
     atom    6 type  2   force =     0.00000000    0.00000000    0.00000000
     atom    7 type  2   force =     0.00000000    0.00000000    0.00000000
     atom    8 type  3   force =     0.00000000    0.00000000    0.00000000
     atom    9 type  3   force =     0.00000000    0.00000000    0.00000000
     atom   10 type  3   force =     0.00000000    0.00000000    0.00000000
     atom   11 type  3   force =     0.00000000    0.00000000    0.00000000
     atom   12 type  3   force =     0.00000000    0.00000000    0.00000000
     atom   13 type  3   force =     0.00000000    0.00000000    0.00000000
     atom   14 type  3   force =     0.00000000    0.00000000    0.00000000
     atom   15 type  3   force =     0.00000000    0.00000000    0.00000000
     atom   16 type  3   force =     0.00000000    0.00000000    0.00000000
     atom   17 type  3   force =     0.00000000    0.00000000    0.00000000
     atom   18 type  4   force =     0.00000000    0.00000000    0.00000000
     atom   19 type  4   force =     0.00000000    0.00000000    0.00000000
     atom   20 type  4   force =     0.00000000    0.00000000    0.00000000
     atom   21 type  4   force =     0.00000000    0.00000000    0.00000000
     atom   22 type  4   force =     0.00000000    0.00000000    0.00000000
     atom   23 type  5   force =     0.00000000    0.00000000    0.00000000
     The SCF correction term to forces
     atom    1 type  1   force =    -0.00000000   -0.00000000    0.00000000
     atom    2 type  1   force =     0.00000000   -0.00000000    0.00000000
     atom    3 type  1   force =     0.00000000    0.00000000    0.00000000
     atom    4 type  1   force =    -0.00000000   -0.00000000    0.00000000
     atom    5 type  1   force =    -0.00000000    0.00000000    0.00000000
     atom    6 type  2   force =    -0.00000000   -0.00000000   -0.00000000
     atom    7 type  2   force =    -0.00000000    0.00000000    0.00000000
     atom    8 type  3   force =     0.00000000    0.00000000    0.00000000
     atom    9 type  3   force =    -0.00000000    0.00000000    0.00000000
     atom   10 type  3   force =     0.00000000    0.00000000   -0.00000000
     atom   11 type  3   force =     0.00000000   -0.00000000    0.00000000
     atom   12 type  3   force =     0.00000000   -0.00000000   -0.00000000
     atom   13 type  3   force =     0.00000000    0.00000000    0.00000000
     atom   14 type  3   force =    -0.00294986   -0.00016987   -0.01931594
     atom   15 type  3   force =    -0.00177911   -0.00391376    0.01070281
     atom   16 type  3   force =    -0.00338235   -0.00015200   -0.01534914
     atom   17 type  3   force =    -0.00204657    0.00565756    0.00940269
     atom   18 type  4   force =    -0.00205338    0.00266988   -0.00524229
     atom   19 type  4   force =     0.00721852    0.00001919   -0.01635164
     atom   20 type  4   force =     0.00489472   -0.00157015    0.01011429
     atom   21 type  4   force =    -0.00734225    0.00044010   -0.02022612
     atom   22 type  4   force =    -0.00464541   -0.00139196    0.01393129
     atom   23 type  5   force =     0.00093369   -0.00002872    0.00118634

     Total force =     0.872183     Total SCF correction =     0.045350

     Entering Dynamics:    iteration =     3
                           time      =   0.0015 pico-seconds


ATOMIC_POSITIONS (angstrom)
Hf            2.6699999570        2.8271230292        6.6039642186    0   0   0
Hf            1.2529906802        1.2862841814        5.0584662261    0   0   0
Hf            1.2554868986        7.3898042948        5.0880677674    0   0   0
Hf            4.0870092338        1.2862841814        5.0584662261    0   0   0
Hf            4.0845130154        7.3898042948        5.0880677674    0   0   0
Nb            2.6699999570        2.7969306055        3.5155832167    0   0   0
Nb            2.6699999570        5.8763786763        6.6349979432    0   0   0
Ta            1.2093730560        4.3409278516        5.0711258323    0   0   0
Ta            4.1306268580        4.3409278516        5.0711258323    0   0   0
Ta            1.3072526841        1.3141225894        2.0587791101    0   0   0
Ta            1.3027883142        1.3083911360        8.0945792024    0   0   0
Ta            1.3040096221        7.3758261241        2.0462371798    0   0   0
Ta            1.3077107984        7.3650829484        8.0860022208    0   0   0
Ta            4.0327887814        1.3140758166        2.0586863851
Ta            4.0372490749        1.3083385337        8.0946641461
Ta            4.0360226465        7.3758792785        2.0461536995
Ta            4.0323224684        7.3651291483        8.0860929501
Zr            2.6699696034        5.8663785869        3.5273244099
Zr            1.2434070273        4.3220656673        1.9996391553
Zr            1.2399471240        4.3541392196        8.1501206761
Zr            4.0965930177        4.3220621912        1.9996232045
Zr            4.1000529892        4.3541420999        8.1501340402
H             5.2900957886        4.3399392521        5.0723005674


     kinetic energy (Ekin) =           0.32362151 Ry
     temperature           =        3406.38635747 K 
     Ekin + Etot (const)   =       -2942.45506533 Ry

     Writing config-only to output data dir outdir/pwscf.save/
     NEW-OLD atomic charge density approx. for the potential

     Check: negative core charge=   -0.000002

     negative rho (up, down):  9.070E-01 9.070E-01
     Generating pointlists ...
     new r_m :   0.0573 (alat units)  0.9038 (a.u.) for type    3
     new r_m :   0.0573 (alat units)  0.9038 (a.u.) for type    5

     total cpu time spent up to now is     1023.6 secs

     Self-consistent Calculation

[...]
   -25.9893 -25.9643 -25.9603 -25.9307 -25.9185 -25.8668 -25.8586 -25.8299
   -25.7877 -25.6712 -25.6679 -25.6590 -25.6442 -25.5970 -25.5862 -25.5728
   -25.5666 -25.5108 -25.4777 -25.4050 -22.8726 -22.6608 -22.3530 -22.2723
   -22.0115 -21.8718 -21.8485 -21.7472 -21.6299 -21.5586 -21.5421 -21.3249
   -21.1763 -21.1247 -21.0721 -21.0244 -20.9647 -20.9102 -20.4398 -20.3710
   -20.3116 -18.8754 -18.6062 -18.5300 -18.5095 -18.3054 -18.2980 -18.2763
   -18.2693 -18.2609 -18.2183 -18.0583 -18.0495 -16.8366 -16.6286 -16.5101
     2.6825   3.8494   4.2182   4.4601   4.6050   4.8212   4.8378   4.9363
     5.0262   5.2282   5.2430   5.4629   5.5933   5.8015   5.9000   5.9898
     6.0754   6.0908   6.3404   6.3425   6.4167   6.5609   6.6061   6.6389
     6.7026   6.8576   6.8841   7.0034   7.0434   7.0533   7.0680   7.1143
     7.2276   7.4534   7.4675   7.5627   7.5721   7.6184   7.6558   7.6882
     7.8783   7.9083   7.9287   8.0225   8.1795   8.2746   8.3155   8.3267
     8.4519   8.5125   8.5977   8.6086   8.6236   8.8260   8.8473   8.8521
     8.9107   8.9547   9.1856   9.2581   9.3605   9.3859   9.5717   9.6118
     9.6342   9.6413   9.6695   9.6838   9.7394   9.8833  10.0096  10.0864
    10.1389  10.2408  10.3612  10.4119  10.4236  10.5511  10.5730

     the Fermi energy is     8.5620 ev

!    total energy              =   -2942.98296318 Ry
     estimated scf accuracy    <       0.00099310 Ry
     smearing contrib. (-TS)   =      -0.10152739 Ry
     internal energy E=F+TS    =   -2942.88143579 Ry

     total magnetization       =    -0.00 Bohr mag/cell
     absolute magnetization    =     0.00 Bohr mag/cell

     convergence has been achieved in   4 iterations

     negative rho (up, down):  9.078E-01 9.078E-01

     Forces acting on atoms (cartesian axes, Ry/au):

     atom    1 type  1   force =    -0.00640925   -0.02666378    0.02275973
     atom    2 type  1   force =    -0.11948523   -0.01643283    0.00883367
     atom    3 type  1   force =    -0.11789003    0.01390526    0.01350661
     atom    4 type  1   force =     0.11996817   -0.01427757    0.00758721
     atom    5 type  1   force =     0.11869403    0.01189904    0.01462403
     atom    6 type  2   force =    -0.00835499   -0.01585719   -0.00000990
     atom    7 type  2   force =    -0.00859916    0.01413957   -0.00287533
     atom    8 type  3   force =    -0.13568153    0.00355168   -0.00002196
     atom    9 type  3   force =    -0.17228089    0.00374585   -0.00290701
     atom   10 type  3   force =    -0.02345893   -0.02816697   -0.06691678
     atom   11 type  3   force =    -0.02216078   -0.03634460    0.05577089
     atom   12 type  3   force =    -0.01869826    0.03448583   -0.06307308
     atom   13 type  3   force =    -0.01932352    0.03010218    0.05793231
     atom   14 type  3   force =     0.02380114   -0.02746549   -0.06489879
     atom   15 type  3   force =     0.02203032   -0.03363842    0.05235020
     atom   16 type  3   force =     0.01880095    0.03217223   -0.05948795
     atom   17 type  3   force =     0.01933417    0.02936021    0.05595783
     atom   18 type  4   force =    -0.00741528    0.02448574   -0.01818248
     atom   19 type  4   force =    -0.13079443   -0.00423000   -0.11892151
     atom   20 type  4   force =    -0.13612747    0.00514023    0.11377434
     atom   21 type  4   force =     0.13019688   -0.00520658   -0.12102706
     atom   22 type  4   force =     0.13525661    0.00601555    0.11554578
     atom   23 type  5   force =     0.33859747   -0.00071994   -0.00032074
     The non-local contrib.  to forces
     atom    1 type  1   force =    -0.00436797   -0.01953749    0.03756259
     atom    2 type  1   force =    -0.24459912   -0.16303622    0.02524011
     atom    3 type  1   force =    -0.23920815    0.15797763   -0.02139749
     atom    4 type  1   force =     0.25776469   -0.15833156    0.02388463
     atom    5 type  1   force =     0.25293082    0.15331352   -0.02086555
     atom    6 type  2   force =    -0.00928657   -0.06082334   -0.06861254
     atom    7 type  2   force =    -0.01075516    0.07220854    0.06272787
     atom    8 type  3   force =    -0.25948295   -0.00007876    0.00076587
     atom    9 type  3   force =    -0.04757423    0.00155446   -0.00213696
     atom   10 type  3   force =    -0.21610788    0.00887304   -0.21856829
     atom   11 type  3   force =    -0.21901961    0.00805900    0.20347999
     atom   12 type  3   force =    -0.20243548   -0.02334168   -0.19152128
     atom   13 type  3   force =    -0.20992069   -0.00694067    0.21254466
     atom   14 type  3   force =     0.21834070    0.00618100   -0.21993514
     atom   15 type  3   force =     0.22164971    0.00849006    0.20405533
     atom   16 type  3   force =     0.20480427   -0.02262931   -0.19230744
     atom   17 type  3   force =     0.21084640   -0.00473856    0.21443619
     atom   18 type  4   force =    -0.00949430    0.06787562   -0.06690418
     atom   19 type  4   force =     0.07192724    0.00732626    0.06218664
     atom   20 type  4   force =     0.06521668   -0.01013002   -0.05888706
     atom   21 type  4   force =    -0.06834159    0.00690468    0.06558192
     atom   22 type  4   force =    -0.06238960   -0.00958224   -0.06217106
     atom   23 type  5   force =    -0.11055386    0.00011446   -0.00018456
     The ionic contribution  to forces
     atom    1 type  1   force =    -0.25203174   -4.69511462   14.48027738
     atom    2 type  1   force =   -34.48732827   -6.23179723    0.77975221
     atom    3 type  1   force =   -34.47125481    6.21871437   -0.70846949
     atom    4 type  1   force =    34.29407353   -6.47859925    0.77776860
     atom    5 type  1   force =    34.27728499    6.46367772   -0.70856163
     atom    6 type  2   force =    -0.26472068   -3.65455246  -14.41288496
     atom    7 type  2   force =    -0.26535139    3.69315951   14.44492545
     atom    8 type  3   force =   -46.15230947    0.07476657   -0.06935417
     atom    9 type  3   force =    42.84957453    0.08148748   -0.07916233
     atom   10 type  3   force =   -31.08107376   -2.13861023  -23.61612714
     atom   11 type  3   force =   -30.14940025   -0.88581202   22.61812377
     atom   12 type  3   force =   -30.27302009    0.83997599  -22.67286683
     atom   13 type  3   force =   -31.05756569    2.22733681   23.59807941
     atom   14 type  3   force =    30.99557948   -2.18002849  -23.67761501
     atom   15 type  3   force =    30.06561980   -0.92773594   22.67996554
     atom   16 type  3   force =    30.18893849    0.87884563  -22.73231622
     atom   17 type  3   force =    30.97119772    2.26928262   23.66033154
     atom   18 type  4   force =    -0.24947927    4.44348630  -14.32774722
     atom   19 type  4   force =   -31.02926462    0.95681875  -26.02729671
     atom   20 type  4   force =   -31.00034023   -0.95555586   26.00574342
     atom   21 type  4   force =    30.84984536    0.95780219  -26.28791492
     atom   22 type  4   force =    30.82188660   -0.95464978   26.26858480
     atom   23 type  5   force =     5.41913976   -0.00289805    0.00676451
     The local contribution  to forces
     atom    1 type  1   force =     0.25535369    4.68271788  -14.46882365
     atom    2 type  1   force =    34.63297494    6.37990117   -0.75948917
     atom    3 type  1   force =    34.61355721   -6.36561906    0.78308886
     atom    4 type  1   force =   -34.44991192    6.62760687   -0.75761007
     atom    5 type  1   force =   -34.42969853   -6.61186830    0.78329978
     atom    6 type  2   force =     0.27376966    3.70405969   14.49901885
     atom    7 type  2   force =     0.27461053   -3.74498328  -14.47869360
     atom    8 type  3   force =    46.32478091   -0.07098752    0.10789266
     atom    9 type  3   force =   -42.98782457   -0.07856885    0.11614759
     atom   10 type  3   force =    31.30523844    2.09705941   23.75534948
     atom   11 type  3   force =    30.37725800    0.82419674  -22.77435259
     atom   12 type  3   force =    30.48678977   -0.77612696   22.78874604
     atom   13 type  3   force =    31.27714894   -2.17357733  -23.76171883
     atom   14 type  3   force =   -31.22049047    2.14163982   23.81964062
     atom   15 type  3   force =   -30.29414127    0.86718185  -22.83911549
     atom   16 type  3   force =   -30.40310018   -0.81737238   22.85216544
     atom   17 type  3   force =   -31.19003029   -2.21740582  -23.82689961
     atom   18 type  4   force =     0.25938171   -4.49043784   14.39378977
     atom   19 type  4   force =    30.84753243   -0.96951982   25.83068606
     atom   20 type  4   force =    30.81324471    0.97049414  -25.83322308
     atom   21 type  4   force =   -30.66903242   -0.97072552   26.09098800
     atom   22 type  4   force =   -30.63571227    0.96969161  -26.09501087
     atom   23 type  5   force =    -4.96925479    0.00203744   -0.00171592
     The core correction contribution to forces
     atom    1 type  1   force =     0.00111005    0.00313813   -0.00160722
     atom    2 type  1   force =    -0.01196046   -0.00149051    0.00103090
     atom    3 type  1   force =    -0.01219755    0.00234713   -0.00156327
     atom    4 type  1   force =     0.01233017   -0.00160899    0.00111318
     atom    5 type  1   force =     0.01250625    0.00246338   -0.00177484
     atom    6 type  2   force =     0.00032364    0.00264313    0.00260482
     atom    7 type  2   force =     0.00037868   -0.00327759   -0.00211633
     atom    8 type  3   force =    -0.03079279    0.00035572   -0.00053015
     atom    9 type  3   force =     0.00179192    0.00015601   -0.00062885
     atom   10 type  3   force =    -0.02222730    0.00886735   -0.01660980
     atom   11 type  3   force =    -0.02373688    0.00924338    0.01718107
     atom   12 type  3   force =    -0.02218479   -0.00922262   -0.01612943
     atom   13 type  3   force =    -0.02185204   -0.00845645    0.01694519
     atom   14 type  3   force =     0.02346389    0.00985414   -0.01499122
     atom   15 type  3   force =     0.02445680    0.01092203    0.01533878
     atom   16 type  3   force =     0.02294438   -0.01083510   -0.01426783
     atom   17 type  3   force =     0.02274240   -0.00960224    0.01524511
     atom   18 type  4   force =     0.00048981   -0.00359036    0.00326189
     atom   19 type  4   force =    -0.01024503    0.00017345   -0.00911043
     atom   20 type  4   force =    -0.01007642    0.00014142    0.00891709
     atom   21 type  4   force =     0.01028753    0.00020310   -0.00920190
     atom   22 type  4   force =     0.01015727    0.00010933    0.00899284
     atom   23 type  5   force =     0.00000000    0.00000000    0.00000000
     The Hubbard contrib.    to forces
     atom    1 type  1   force =     0.00000000    0.00000000    0.00000000
     atom    2 type  1   force =     0.00000000    0.00000000    0.00000000
     atom    3 type  1   force =     0.00000000    0.00000000    0.00000000
     atom    4 type  1   force =     0.00000000    0.00000000    0.00000000
     atom    5 type  1   force =     0.00000000    0.00000000    0.00000000
     atom    6 type  2   force =     0.00000000    0.00000000    0.00000000
     atom    7 type  2   force =     0.00000000    0.00000000    0.00000000
     atom    8 type  3   force =     0.00000000    0.00000000    0.00000000
     atom    9 type  3   force =     0.00000000    0.00000000    0.00000000
     atom   10 type  3   force =     0.00000000    0.00000000    0.00000000
     atom   11 type  3   force =     0.00000000    0.00000000    0.00000000
     atom   12 type  3   force =     0.00000000    0.00000000    0.00000000
     atom   13 type  3   force =     0.00000000    0.00000000    0.00000000
     atom   14 type  3   force =     0.00000000    0.00000000    0.00000000
     atom   15 type  3   force =     0.00000000    0.00000000    0.00000000
     atom   16 type  3   force =     0.00000000    0.00000000    0.00000000
     atom   17 type  3   force =     0.00000000    0.00000000    0.00000000
     atom   18 type  4   force =     0.00000000    0.00000000    0.00000000
     atom   19 type  4   force =     0.00000000    0.00000000    0.00000000
     atom   20 type  4   force =     0.00000000    0.00000000    0.00000000
     atom   21 type  4   force =     0.00000000    0.00000000    0.00000000
     atom   22 type  4   force =     0.00000000    0.00000000    0.00000000
     atom   23 type  5   force =     0.00000000    0.00000000    0.00000000
     The SCF correction term to forces
     atom    1 type  1   force =    -0.00000000    0.00000000   -0.00000000
     atom    2 type  1   force =    -0.00000000   -0.00000000   -0.00000000
     atom    3 type  1   force =    -0.00000000    0.00000000   -0.00000000
     atom    4 type  1   force =     0.00000000   -0.00000000   -0.00000000
     atom    5 type  1   force =     0.00000000    0.00000000   -0.00000000
     atom    6 type  2   force =    -0.00000000   -0.00000000   -0.00000000
     atom    7 type  2   force =    -0.00000000   -0.00000000   -0.00000000
     atom    8 type  3   force =    -0.00000000   -0.00000000   -0.00000000
     atom    9 type  3   force =     0.00000000   -0.00000000   -0.00000000
     atom   10 type  3   force =    -0.00000000   -0.00000000    0.00000000
     atom   11 type  3   force =    -0.00000000    0.00000000   -0.00000000
     atom   12 type  3   force =    -0.00000000    0.00000000    0.00000000
     atom   13 type  3   force =    -0.00000000   -0.00000000   -0.00000000
     atom   14 type  3   force =     0.00729384   -0.00517440    0.03008308
     atom   15 type  3   force =     0.00483157    0.00744114   -0.00581285
     atom   16 type  3   force =     0.00560029    0.00410096    0.02931921
     atom   17 type  3   force =     0.00496424   -0.00823821   -0.00507427
     atom   18 type  4   force =    -0.00792693    0.00708959   -0.01850161
     atom   19 type  4   force =    -0.01035815    0.00090893    0.02669404
     atom   20 type  4   force =    -0.00378591    0.00012812   -0.00669492
     atom   21 type  4   force =     0.00782430    0.00054654    0.02160095
     atom   22 type  4   force =     0.00170092    0.00038420   -0.00276881
     atom   23 type  5   force =    -0.00034734   -0.00003623   -0.00310365

     Total force =     0.510779     Total SCF correction =     0.063304
     SCF correction compared to forces is large: reduce conv_thr to get better values

     Entering Dynamics:    iteration =    10
                           time      =   0.0051 pico-seconds


ATOMIC_POSITIONS (angstrom)
Hf            2.6699999570        2.8271230292        6.6039642186    0   0   0
Hf            1.2529906802        1.2862841814        5.0584662261    0   0   0
Hf            1.2554868986        7.3898042948        5.0880677674    0   0   0
Hf            4.0870092338        1.2862841814        5.0584662261    0   0   0
Hf            4.0845130154        7.3898042948        5.0880677674    0   0   0
Nb            2.6699999570        2.7969306055        3.5155832167    0   0   0
Nb            2.6699999570        5.8763786763        6.6349979432    0   0   0
Ta            1.2093730560        4.3409278516        5.0711258323    0   0   0
Ta            4.1306268580        4.3409278516        5.0711258323    0   0   0
Ta            1.3072526841        1.3141225894        2.0587791101    0   0   0
Ta            1.3027883142        1.3083911360        8.0945792024    0   0   0
Ta            1.3040096221        7.3758261241        2.0462371798    0   0   0
Ta            1.3077107984        7.3650829484        8.0860022208    0   0   0
Ta            4.0331964962        1.3136213828        2.0577543129
Ta            4.0376280669        1.3078200871        8.0955266768
Ta            4.0363459493        7.3764040652        2.0453084790
Ta            4.0326518392        7.3655740317        8.0870105901
Zr            2.6697530760        5.8672953628        3.5267188498
Zr            1.2390860989        4.3219290654        1.9959984505
Zr            1.2355069533        4.3543031329        8.1538062940
Zr            4.1008827699        4.3218930995        1.9958693566
Zr            4.1044643831        4.3543366332        8.1539141784
H             5.7156343799        4.3384081633        5.0752726532


     kinetic energy (Ekin) =           0.52933501 Ry
     temperature           =        5571.69252252 K 
     Ekin + Etot (const)   =       -2942.45362817 Ry

     The maximum number of steps has been reached.

     End of molecular dynamics calculation

     diffusion coefficients :
     atom     1   D =       0.00000000 cm^2/s
     atom     2   D =       0.00000000 cm^2/s
     atom     3   D =       0.00000000 cm^2/s
     atom     4   D =       0.00000000 cm^2/s
     atom     5   D =       0.00000000 cm^2/s
     atom     6   D =       0.00000000 cm^2/s
     atom     7   D =       0.00000000 cm^2/s
     atom     8   D =       0.00000000 cm^2/s
     atom     9   D =       0.00000000 cm^2/s
     atom    10   D =       0.00000000 cm^2/s
     atom    11   D =       0.00000000 cm^2/s
     atom    12   D =       0.00000000 cm^2/s
     atom    13   D =       0.00000000 cm^2/s
     atom    14   D =       0.00000000 cm^2/s
     atom    15   D =       0.00000000 cm^2/s
     atom    16   D =       0.00000000 cm^2/s
     atom    17   D =       0.00000000 cm^2/s
     atom    18   D =       0.00000000 cm^2/s
     atom    19   D =       0.00000013 cm^2/s
     atom    20   D =       0.00000013 cm^2/s
     atom    21   D =       0.00000013 cm^2/s
     atom    22   D =       0.00000013 cm^2/s
     atom    23   D =       0.00002375 cm^2/s

     < D > =       0.00000243 cm^2/s

     Writing all to output data dir outdir/pwscf.save/

     init_run     :     25.77s CPU     26.28s WALL (       1 calls)
     electrons    :   2376.01s CPU   2413.02s WALL (      10 calls)
     update_pot   :     23.18s CPU     23.25s WALL (       9 calls)
     forces       :    182.72s CPU    185.26s WALL (      10 calls)

     Called by init_run:
     wfcinit      :     20.24s CPU     20.44s WALL (       1 calls)
     potinit      :      1.11s CPU      1.14s WALL (       1 calls)
     hinit0       :      1.87s CPU      1.90s WALL (       1 calls)

     Called by electrons:
     c_bands      :   1914.00s CPU   1926.49s WALL (      52 calls)
     sum_band     :    330.40s CPU    343.62s WALL (      52 calls)
     v_of_rho     :     15.08s CPU     15.62s WALL (      62 calls)
     newd         :    139.69s CPU    151.94s WALL (      62 calls)
     mix_rho      :      1.14s CPU      1.18s WALL (      52 calls)

     Called by c_bands:
     init_us_2    :      3.21s CPU      3.23s WALL (     230 calls)
     init_us_2:cp :      3.21s CPU      3.23s WALL (     230 calls)
     regterg      :   1898.33s CPU   1910.74s WALL (     104 calls)

     Called by *egterg:
     rdiaghg      :     32.99s CPU     33.30s WALL (     816 calls)
     h_psi        :    797.69s CPU    806.37s WALL (     836 calls)
     s_psi        :    281.35s CPU    281.74s WALL (     836 calls)
     g_psi        :      0.60s CPU      0.61s WALL (     730 calls)

     Called by h_psi:
     h_psi:calbec :    358.48s CPU    359.19s WALL (     836 calls)
     vloc_psi     :    154.90s CPU    162.46s WALL (     836 calls)
     add_vuspsi   :    282.96s CPU    283.37s WALL (     836 calls)

     General routines
     calbec       :    606.23s CPU    607.32s WALL (    1020 calls)
     fft          :     13.49s CPU     14.14s WALL (    1089 calls)
     ffts         :      0.31s CPU      0.34s WALL (      52 calls)
     fftw         :    157.19s CPU    164.70s WALL (   53800 calls)

     Parallel routines

     PWSCF        :  43m49.82s CPU  44m32.46s WALL


   This run was terminated on:  23:37:57   5Jun2023            

=------------------------------------------------------------------------------=
   JOB DONE.
=------------------------------------------------------------------------------=
