
     Program PWSCF v.7.2 starts on  5Jun2023 at 14:29:20 

     This program is part of the open-source Quantum ESPRESSO suite
     for quantum simulation of materials; please cite
         "P. Giannozzi et al., J. Phys.:Condens. Matter 21 395502 (2009);
         "P. Giannozzi et al., J. Phys.:Condens. Matter 29 465901 (2017);
         "P. Giannozzi et al., J. Chem. Phys. 152 154105 (2020);
          URL http://www.quantum-espresso.org", 
     in publications or presentations arising from this work. More details at
     http://www.quantum-espresso.org/quote

     Parallel version (MPI), running on    12 processors

     MPI processes distributed on     1 nodes
     72443 MiB available memory on the printing compute node when the environment starts

     Reading input from md_Hf5Nb2Ta10Zr5H_10steps_30eV.in
Warning: card &CELL ignored
Warning: card / ignored

     Current dimensions of program PWSCF are:
     Max number of different atomic species (ntypx) = 10
     Max number of k-points (npk) =  40000
     Max angular momentum in pseudopotentials (lmaxx) =  4

     File outdir/pwscf.md deleted, as requested

     gamma-point specific algorithms are used

     R & G space division:  proc/nbgrp/npool/nimage =      12
     Subspace diagonalization in iterative solution of the eigenvalue problem:
     one sub-group per band group will be used
     custom distributed-memory algorithm (size of sub-group:  2*  2 procs)


     Parallelization info
     --------------------
     sticks:   dense  smooth     PW     G-vecs:    dense   smooth      PW
     Min         590     590    147                55418    55418    6924
     Max         592     592    148                55428    55428    6932
     Sum        7089    7089   1775               665061   665061   83133

     Using Slab Decomposition



     bravais-lattice index     =            0
     lattice parameter (alat)  =      13.3037  a.u.
     unit-cell volume          =    3744.5260 (a.u.)^3
     number of atoms/cell      =           23
     number of atomic types    =            5
     number of electrons       =       277.00
     number of Kohn-Sham states=          167
     kinetic-energy cutoff     =     120.0000  Ry
     charge density cutoff     =     480.0000  Ry
     scf convergence threshold =      1.0E-03
     mixing beta               =       0.7000
     number of iterations used =            8  TF        mixing
     energy convergence thresh.=      0.0E+00
     force convergence thresh. =      0.0E+00
     Exchange-correlation=  SLA  PW   PBX  PBC
                           (   1   4   3   4   0   0   0)
     nstep                     =           10


     celldm(1)=  13.303672  celldm(2)=   0.000000  celldm(3)=   0.000000
     celldm(4)=   0.000000  celldm(5)=   0.000000  celldm(6)=   0.000000

     crystal axes: (cart. coord. in units of alat)
               a(1) = (   1.000000   0.000000   0.000000 )  
               a(2) = (   0.000000   1.048295   0.000000 )  
               a(3) = (   0.000000   0.000000   1.517045 )  

     reciprocal axes: (cart. coord. in units 2 pi/alat)
               b(1) = (  1.000000  0.000000  0.000000 )  
               b(2) = (  0.000000  0.953930  0.000000 )  
               b(3) = (  0.000000  0.000000  0.659176 )  


     PseudoPot. # 1 for Hf read from file:
     q-e/pseudo/hf_pbe_v1.uspp.F.UPF
     MD5 check sum: 8ee9378dfe14276e333edf04c5e4aa26
     Pseudo is Ultrasoft + core correction, Zval = 12.0
     Generated by new atomic code, or converted to UPF format
     Using radial grid of  921 points,  8 beta functions with: 
                l(1) =   0
                l(2) =   0
                l(3) =   0
                l(4) =   1
                l(5) =   1
                l(6) =   2
                l(7) =   2
                l(8) =   3
     Q(r) pseudized with  6 coefficients,  rinner =    1.200   1.200   1.200
                                                       1.200   1.200   1.200
                                                       1.200

     PseudoPot. # 2 for Nb read from file:
     q-e/pseudo/nb_pbe_v1.uspp.F.UPF
     MD5 check sum: 573aab8a2fa660278ed4a62cd769473f
     Pseudo is Ultrasoft + core correction, Zval = 13.0
     Generated by new atomic code, or converted to UPF format
     Using radial grid of  887 points,  6 beta functions with: 
                l(1) =   0
                l(2) =   0
                l(3) =   1
                l(4) =   1
                l(5) =   2
                l(6) =   2
     Q(r) pseudized with  6 coefficients,  rinner =    1.000   1.000   1.000
                                                       1.000   1.000

     PseudoPot. # 3 for Ta read from file:
     q-e/pseudo/ta_pbe_v1.uspp.F.UPF
     MD5 check sum: f8bbe9446314a3b8ea5d9f3e3836c939
     Pseudo is Ultrasoft + core correction, Zval = 13.0
     Generated by new atomic code, or converted to UPF format
     Using radial grid of  921 points,  7 beta functions with: 
                l(1) =   0
                l(2) =   0
                l(3) =   1
                l(4) =   1
                l(5) =   2
                l(6) =   2
                l(7) =   3
     Q(r) pseudized with  6 coefficients,  rinner =    1.300   1.300   1.300
                                                       1.300   1.300   1.300
                                                       1.300

     PseudoPot. # 4 for Zr read from file:
     q-e/pseudo/zr_pbe_v1.uspp.F.UPF
     MD5 check sum: 5db81b1e868ab7776c4564c113de050b
     Pseudo is Ultrasoft + core correction, Zval = 12.0
     Generated by new atomic code, or converted to UPF format
     Using radial grid of  887 points,  6 beta functions with: 
                l(1) =   0
                l(2) =   0
                l(3) =   1
                l(4) =   1
                l(5) =   2
                l(6) =   2
     Q(r) pseudized with  6 coefficients,  rinner =    1.200   1.200   1.200
                                                       1.200   1.200

     PseudoPot. # 5 for H  read from file:
     q-e/pseudo/h_pbe_v1.4.uspp.F.UPF
     MD5 check sum: 761ae9a214b05c3daf00ab9f6b793d6f
     Pseudo is Ultrasoft, Zval =  1.0
     Generated by new atomic code, or converted to UPF format
     Using radial grid of  615 points,  2 beta functions with: 
                l(1) =   0
                l(2) =   0
     Q(r) pseudized with  8 coefficients,  rinner =    0.700

     atomic species   valence    mass     pseudopotential
        Hf            12.00   178.49000     Hf( 1.00)
        Nb            13.00    92.90637     Nb( 1.00)
        Ta            13.00   180.94788     Ta( 1.00)
        Zr            12.00    91.22400     Zr( 1.00)
        H              1.00     2.01400     H ( 1.00)

     Starting magnetic structure 
     atomic species   magnetization
        Hf           0.000
        Nb           0.000
        Ta           0.000
        Zr           0.000
        H            0.000

     No symmetry found



   Cartesian axes

     site n.     atom                  positions (alat units)
         1           Hf  tau(   1) = (   0.2656250   0.2656250   0.9957387  )
         2           Hf  tau(   2) = (   0.0284091   0.0284091   0.7585227  )
         3           Hf  tau(   3) = (   0.0284091   0.9772727   0.7585227  )
         4           Hf  tau(   4) = (   0.5028409   0.0284091   0.7585227  )
         5           Hf  tau(   5) = (   0.5028409   0.9772727   0.7585227  )
         6           Nb  tau(   6) = (   0.2656250   0.2656250   0.5213068  )
         7           Nb  tau(   7) = (   0.2656250   0.7400569   0.9957387  )
         8           Ta  tau(   8) = (   0.0284091   0.5028409   0.7585227  )
         9           Ta  tau(   9) = (   0.5028409   0.5028409   0.7585227  )
        10           Ta  tau(  10) = (   0.0284091   0.0284091   0.2840909  )
        11           Ta  tau(  11) = (   0.0284091   0.0284091   1.2329545  )
        12           Ta  tau(  12) = (   0.0284091   0.9772727   0.2840909  )
        13           Ta  tau(  13) = (   0.0284091   0.9772727   1.2329545  )
        14           Ta  tau(  14) = (   0.5028409   0.0284091   0.2840909  )
        15           Ta  tau(  15) = (   0.5028409   0.0284091   1.2329545  )
        16           Ta  tau(  16) = (   0.5028409   0.9772727   0.2840909  )
        17           Ta  tau(  17) = (   0.5028409   0.9772727   1.2329545  )
        18           Zr  tau(  18) = (   0.2656250   0.7400569   0.5213068  )
        19           Zr  tau(  19) = (   0.0284091   0.5028409   0.2840909  )
        20           Zr  tau(  20) = (   0.0284091   0.5028409   1.2329545  )
        21           Zr  tau(  21) = (   0.5028409   0.5028409   0.2840909  )
        22           Zr  tau(  22) = (   0.5028409   0.5028409   1.2329545  )
        23           H   tau(  23) = (   0.7159091   0.5028409   0.7585227  )

     number of k points=     1  Gaussian smearing, width (Ry)=  0.0220
                       cart. coord. in units 2pi/alat
        k(    1) = (   0.0000000   0.0000000   0.0000000), wk =   1.0000000

     Dense  grid:   332531 G-vectors     FFT dimensions: (  96, 100, 144)

     Estimated max dynamical RAM per process >     282.33 MB

     Estimated total dynamical RAM >       3.31 GB

     Check: negative core charge=   -0.000002
     Generating pointlists ...
     new r_m :   0.0410 (alat units)  0.5457 (a.u.) for type    1
     new r_m :   0.1695 (alat units)  2.2548 (a.u.) for type    2
     new r_m :   0.0410 (alat units)  0.5457 (a.u.) for type    3
     new r_m :   0.1695 (alat units)  2.2548 (a.u.) for type    4
     new r_m :   0.0879 (alat units)  1.1693 (a.u.) for type    5

     Initial potential from superposition of free atoms

     starting charge     266.9726, renormalised to     277.0000

     negative rho (up, down):  4.713E-01 4.713E-01
     Starting wfcs are  287 randomized atomic wfcs

     total cpu time spent up to now is       20.0 secs

     Self-consistent Calculation

     iteration #  1     ecut=   120.00 Ry     beta= 0.70
     Davidson diagonalization with overlap
     ethr =  1.00E-02,  avg # of iterations =  6.0

     negative rho (up, down):  5.739E-01 5.741E-01

     total cpu time spent up to now is       65.9 secs

     total energy              =   -2626.12998428 Ry
     estimated scf accuracy    <     341.96838177 Ry

     total magnetization       =    -0.01 Bohr mag/cell
     absolute magnetization    =     0.12 Bohr mag/cell

     iteration #  2     ecut=   120.00 Ry     beta= 0.70
     Davidson diagonalization with overlap
     ethr =  1.00E-02,  avg # of iterations =  4.0

     negative rho (up, down):  6.947E-01 6.947E-01

     total cpu time spent up to now is       96.7 secs

     total energy              =   -2632.56189618 Ry
     estimated scf accuracy    <      82.90634030 Ry

     total magnetization       =     0.00 Bohr mag/cell
     absolute magnetization    =     0.09 Bohr mag/cell

     iteration #  3     ecut=   120.00 Ry     beta= 0.70
     Davidson diagonalization with overlap
     ethr =  1.00E-02,  avg # of iterations =  4.0

     negative rho (up, down):  7.498E-01 7.497E-01

     total cpu time spent up to now is      125.3 secs

     total energy              =   -2630.71497960 Ry
     estimated scf accuracy    <      31.16725498 Ry

     total magnetization       =    -0.09 Bohr mag/cell
     absolute magnetization    =     0.29 Bohr mag/cell

     iteration #  4     ecut=   120.00 Ry     beta= 0.70
     Davidson diagonalization with overlap
     ethr =  1.00E-02,  avg # of iterations =  4.5

     negative rho (up, down):  7.260E-01 7.260E-01

     total cpu time spent up to now is      153.4 secs

     total energy              =   -2631.76866633 Ry
     estimated scf accuracy    <       7.89625325 Ry

     total magnetization       =     0.11 Bohr mag/cell
     absolute magnetization    =     0.65 Bohr mag/cell

     iteration #  5     ecut=   120.00 Ry     beta= 0.70
     Davidson diagonalization with overlap
     ethr =  2.85E-03,  avg # of iterations =  3.0

     negative rho (up, down):  7.187E-01 7.188E-01

     total cpu time spent up to now is      180.4 secs

     total energy              =   -2631.24487411 Ry
     estimated scf accuracy    <       5.20358394 Ry

     total magnetization       =     0.08 Bohr mag/cell
     absolute magnetization    =     0.39 Bohr mag/cell

     iteration #  6     ecut=   120.00 Ry     beta= 0.70
     Davidson diagonalization with overlap
     ethr =  1.88E-03,  avg # of iterations =  4.5

     negative rho (up, down):  6.970E-01 6.970E-01

     total cpu time spent up to now is      208.0 secs

     total energy              =   -2630.88582126 Ry
     estimated scf accuracy    <       1.67462245 Ry

     total magnetization       =     0.12 Bohr mag/cell
     absolute magnetization    =     0.34 Bohr mag/cell

     iteration #  7     ecut=   120.00 Ry     beta= 0.70
     Davidson diagonalization with overlap
     ethr =  6.05E-04,  avg # of iterations =  5.5

     negative rho (up, down):  6.932E-01 6.933E-01

     total cpu time spent up to now is      247.1 secs

     total energy              =   -2631.09533852 Ry
     estimated scf accuracy    <       0.37392009 Ry

     total magnetization       =     0.13 Bohr mag/cell
     absolute magnetization    =     0.30 Bohr mag/cell

     iteration #  8     ecut=   120.00 Ry     beta= 0.70
     Davidson diagonalization with overlap
     ethr =  1.35E-04,  avg # of iterations =  6.5

     negative rho (up, down):  6.947E-01 6.948E-01

     total cpu time spent up to now is      278.9 secs

     total energy              =   -2631.11171312 Ry
     estimated scf accuracy    <       0.22007316 Ry

     total magnetization       =     0.15 Bohr mag/cell
     absolute magnetization    =     0.25 Bohr mag/cell

     iteration #  9     ecut=   120.00 Ry     beta= 0.70
     Davidson diagonalization with overlap
     ethr =  7.94E-05,  avg # of iterations =  3.0

     negative rho (up, down):  6.941E-01 6.943E-01

     total cpu time spent up to now is      306.4 secs

     total energy              =   -2631.12076666 Ry
     estimated scf accuracy    <       0.13117867 Ry

     total magnetization       =     0.15 Bohr mag/cell
     absolute magnetization    =     0.22 Bohr mag/cell

     iteration # 10     ecut=   120.00 Ry     beta= 0.70
     Davidson diagonalization with overlap
     ethr =  4.74E-05,  avg # of iterations =  1.0

     negative rho (up, down):  6.941E-01 6.943E-01

     total cpu time spent up to now is      329.6 secs

     total energy              =   -2631.12272667 Ry
     estimated scf accuracy    <       0.02297046 Ry

     total magnetization       =     0.15 Bohr mag/cell
     absolute magnetization    =     0.21 Bohr mag/cell

     iteration # 11     ecut=   120.00 Ry     beta= 0.70
     Davidson diagonalization with overlap
     ethr =  8.29E-06,  avg # of iterations = 10.0

     negative rho (up, down):  6.947E-01 6.949E-01

     total cpu time spent up to now is      361.5 secs

     total energy              =   -2631.12740288 Ry
     estimated scf accuracy    <       0.02371225 Ry

     total magnetization       =     0.17 Bohr mag/cell
     absolute magnetization    =     0.21 Bohr mag/cell

     iteration # 12     ecut=   120.00 Ry     beta= 0.70
     Davidson diagonalization with overlap
     ethr =  8.29E-06,  avg # of iterations =  2.0

     negative rho (up, down):  6.951E-01 6.953E-01

     total cpu time spent up to now is      387.3 secs

     total energy              =   -2631.12750087 Ry
     estimated scf accuracy    <       0.00738430 Ry

     total magnetization       =     0.17 Bohr mag/cell
     absolute magnetization    =     0.21 Bohr mag/cell

     iteration # 13     ecut=   120.00 Ry     beta= 0.70
     Davidson diagonalization with overlap
     ethr =  2.67E-06,  avg # of iterations =  2.5

     negative rho (up, down):  6.951E-01 6.953E-01

     total cpu time spent up to now is      414.1 secs

     total energy              =   -2631.12789467 Ry
     estimated scf accuracy    <       0.00124523 Ry

     total magnetization       =     0.18 Bohr mag/cell
     absolute magnetization    =     0.21 Bohr mag/cell

     iteration # 14     ecut=   120.00 Ry     beta= 0.70
     Davidson diagonalization with overlap
     ethr =  4.50E-07,  avg # of iterations =  7.0

     negative rho (up, down):  6.949E-01 6.951E-01

     Magnetic moment per site  (integrated on atomic sphere of radius R)
     atom   1 (R=0.041)  charge=  0.0281    0.0000
     atom   2 (R=0.041)  charge=  0.2750    0.0001
     atom   3 (R=0.041)  charge=  0.2758    0.0001
     atom   4 (R=0.041)  charge=  0.2750    0.0000
     atom   5 (R=0.041)  charge=  0.2758    0.0000
     atom   6 (R=0.169)  charge= 10.9488    0.0068
     atom   7 (R=0.169)  charge= 10.9558    0.0023
     atom   8 (R=0.041)  charge=  0.0850   -0.0000
     atom   9 (R=0.041)  charge=  0.0859   -0.0000
     atom  10 (R=0.041)  charge=  0.3859   -0.0000
     atom  11 (R=0.041)  charge=  0.3858   -0.0000
     atom  12 (R=0.041)  charge=  0.3867   -0.0000
     atom  13 (R=0.041)  charge=  0.3869   -0.0000
     atom  14 (R=0.041)  charge=  0.3859   -0.0000
     atom  15 (R=0.041)  charge=  0.3858    0.0000
     atom  16 (R=0.041)  charge=  0.3868    0.0000
     atom  17 (R=0.041)  charge=  0.3869   -0.0000
     atom  18 (R=0.169)  charge=  9.8589    0.0143
     atom  19 (R=0.169)  charge=  9.5983    0.0041
     atom  20 (R=0.169)  charge=  9.5935    0.0056
     atom  21 (R=0.169)  charge=  9.6114    0.0460
     atom  22 (R=0.169)  charge=  9.6013    0.0174
     atom  23 (R=0.088)  charge=  0.9149    0.0002

     total cpu time spent up to now is      443.5 secs

     End of self-consistent calculation

 ------ SPIN UP ------------


          k = 0.0000 0.0000 0.0000 ( 41567 PWs)   bands (ev):

  -154.5149-154.5144-154.4982-154.4976-148.6013-148.5940 -60.4972 -60.4907
   -60.4793 -60.4729 -60.3603 -60.3549 -60.3466 -60.3411 -56.1537 -56.1234
   -56.1212 -56.1090 -56.1068 -55.6897 -50.4168 -50.4097 -49.9773 -49.9542
   -49.8628 -49.8531 -49.8397 -42.6504 -42.6134 -36.9662 -36.9387 -36.9348
   -36.9206 -36.5506 -31.1394 -31.1247 -31.1104 -31.0965 -25.0239 -24.9735
   -22.7218 -22.5420 -22.4671 -22.3689 -22.1985 -22.1045 -18.9235 -18.8655
   -18.7555 -18.7384 -18.7056 -18.7045 -18.6758 -18.5534 -18.5379 -15.2476
   -15.1452 -15.1092 -15.0862 -15.0572 -14.9908 -14.9433 -14.9129 -14.8642
   -14.8462 -14.8277 -14.7937 -14.7902 -14.5231 -14.4840 -12.6555 -12.6142
   -12.5918 -12.5631 -12.4662 -12.4520 -12.3997 -12.3872  -6.8960  -6.6977
    -6.6807  -6.6747  -3.8492  -3.7943  -3.6240  -3.5802  -3.3489  -3.3091
    -3.2874  -3.1748  -1.5070  -1.1829  -0.2776  -0.0210   0.9931   1.3796
     1.9397   2.0347   2.1230   3.5828   5.6777   6.1487   6.1735   6.3072
     6.9730   7.0269   7.2744   7.3677   7.3891   7.6968   7.7531   7.7845
     7.8032   8.1226   8.7490   9.4098   9.5395   9.9116   9.9717  10.0998
    10.1202  10.2535  10.3184  10.4741  10.6519  10.8888  10.9964  11.0854
    11.1887  11.4205  11.4486  11.4667  11.6065  11.7547  11.7715  11.8404
    11.8517  11.9003  11.9955  12.0619  12.2314  12.3634  12.4199  12.5992
    12.7392  12.8465  13.0227  13.1935  13.2447  13.2919  13.4509  13.6752
    13.6926  13.8396  13.8699  13.8916  13.9666  14.1457  14.2577  14.3103
    14.5182  14.5242  14.5716  14.6627  14.7434  14.8172  15.0245

 ------ SPIN DOWN ----------


          k = 0.0000 0.0000 0.0000 ( 41567 PWs)   bands (ev):

  -154.5148-154.5142-154.4979-154.4973-148.6012-148.5936 -60.4972 -60.4907
   -60.4791 -60.4727 -60.3602 -60.3548 -60.3465 -60.3410 -56.1540 -56.1233
   -56.1211 -56.1087 -56.1065 -55.6928 -50.4166 -50.4091 -49.9772 -49.9540
   -49.8622 -49.8527 -49.8383 -42.6483 -42.6090 -36.9474 -36.9310 -36.9235
   -36.9141 -36.5420 -31.1393 -31.1245 -31.1103 -31.0963 -25.0231 -24.9726
   -22.7216 -22.5428 -22.4679 -22.3716 -22.2039 -22.1092 -18.9210 -18.8606
   -18.7538 -18.7355 -18.7028 -18.7021 -18.6684 -18.5503 -18.5351 -15.2291
   -15.1251 -15.0973 -15.0763 -15.0482 -14.9845 -14.9258 -14.8943 -14.8535
   -14.8356 -14.8141 -14.7884 -14.7834 -14.5089 -14.4703 -12.6552 -12.6136
   -12.5915 -12.5625 -12.4659 -12.4516 -12.3995 -12.3869  -6.8956  -6.6971
    -6.6801  -6.6742  -3.8491  -3.7942  -3.6239  -3.5800  -3.3487  -3.3089
    -3.2873  -3.1747  -1.5070  -1.1828  -0.2775  -0.0210   0.9932   1.3799
     1.9400   2.0351   2.1236   3.5833   5.6783   6.1495   6.1743   6.3093
     6.9748   7.0288   7.2781   7.3712   7.3909   7.7006   7.7552   7.7866
     7.8071   8.1246   8.7559   9.4127   9.5466   9.9150   9.9729  10.1047
    10.1305  10.2561  10.3206  10.4777  10.6554  10.8941  11.0091  11.0894
    11.1952  11.4274  11.4565  11.4726  11.6171  11.7739  11.7793  11.8515
    11.8702  11.9136  12.0060  12.0946  12.2363  12.3814  12.4298  12.6096
    12.7471  12.8515  13.0300  13.1974  13.2491  13.2995  13.4600  13.6774
    13.7031  13.8508  13.8771  13.9052  13.9770  14.1517  14.2616  14.3190
    14.5257  14.5293  14.5803  14.6671  14.7495  14.8218  15.0292

     the Fermi energy is    12.0480 ev

!    total energy              =   -2631.12787267 Ry
     estimated scf accuracy    <       0.00042992 Ry
     smearing contrib. (-TS)   =      -0.07850022 Ry
     internal energy E=F+TS    =   -2631.04937245 Ry

     total magnetization       =     0.18 Bohr mag/cell
     absolute magnetization    =     0.22 Bohr mag/cell

     convergence has been achieved in  14 iterations

     negative rho (up, down):  6.949E-01 6.951E-01

     Forces acting on atoms (cartesian axes, Ry/au):

     atom    1 type  1   force =    -0.00164277    0.07726548   -0.00379823
     atom    2 type  1   force =    -0.07299756   63.85805826    0.00623996
     atom    3 type  1   force =    -0.07412924  -63.86030220   -0.00555720
     atom    4 type  1   force =     0.07191237   63.85857576    0.00552730
     atom    5 type  1   force =     0.07346606  -63.86093167   -0.00565564
     atom    6 type  2   force =    -0.00339441    0.13155724    0.01437208
     atom    7 type  2   force =    -0.00360580   -0.13236025   -0.01676552
     atom    8 type  3   force =    -0.00925567   -0.00034253    0.00460225
     atom    9 type  3   force =    -0.27769536   -0.00039266    0.00514811
     atom   10 type  3   force =    -0.05050491  109.84155031   -0.06530185
     atom   11 type  3   force =    -0.04749955  109.84301263    0.05413680
     atom   12 type  3   force =    -0.04916663 -109.83982124   -0.05734218
     atom   13 type  3   force =    -0.05235421 -109.84428627    0.07028957
     atom   14 type  3   force =     0.05051500  109.83843862   -0.06518146
     atom   15 type  3   force =     0.04735507  109.84082634    0.05436777
     atom   16 type  3   force =     0.04916017 -109.83643488   -0.05756239
     atom   17 type  3   force =     0.05221827 -109.84223973    0.07014673
     atom   18 type  4   force =    -0.00153144   -0.07556180   -0.00747178
     atom   19 type  4   force =     0.01672796   -0.01489310    0.02401593
     atom   20 type  4   force =     0.01910045    0.01629044   -0.02411062
     atom   21 type  4   force =    -0.01735235   -0.01471498    0.02548611
     atom   22 type  4   force =    -0.01970509    0.01598958   -0.02526742
     atom   23 type  5   force =     0.30037965    0.00071664   -0.00031833
     The non-local contrib.  to forces
     atom    1 type  1   force =     0.00253480   -0.40544825    0.07880346
     atom    2 type  1   force =     0.10462598  -60.49480734    0.01397742
     atom    3 type  1   force =     0.10386858   60.49530974   -0.01335236
     atom    4 type  1   force =    -0.10358506  -60.49506223    0.01372292
     atom    5 type  1   force =    -0.10269540   60.49551119   -0.01368776
     atom    6 type  2   force =     0.00046593    0.08106621   -0.00111111
     atom    7 type  2   force =     0.00034300   -0.07799290   -0.01167376
     atom    8 type  3   force =    -0.41696242    0.00370255   -0.00163419
     atom    9 type  3   force =     0.17035921    0.00347832   -0.00154672
     atom   10 type  3   force =     0.08904837  -42.50129713    0.06251265
     atom   11 type  3   force =     0.10613108  -42.48604082   -0.08065403
     atom   12 type  3   force =     0.10360254   42.48668617    0.07767031
     atom   13 type  3   force =     0.08677903   42.49917268   -0.06127882
     atom   14 type  3   force =    -0.08887582  -42.50525895    0.06298131
     atom   15 type  3   force =    -0.10578079  -42.48881305   -0.08073236
     atom   16 type  3   force =    -0.10310674   42.49072119    0.07782695
     atom   17 type  3   force =    -0.08666965   42.50179326   -0.06179718
     atom   18 type  4   force =     0.00014833   -0.05894419   -0.01817668
     atom   19 type  4   force =     0.09763722   -0.00607493    0.06454671
     atom   20 type  4   force =     0.08984771   -0.00127013   -0.05963421
     atom   21 type  4   force =    -0.09609453   -0.00633480    0.06524513
     atom   22 type  4   force =    -0.08857740   -0.00112797   -0.06009470
     atom   23 type  5   force =    -0.06498302    0.00034215   -0.00031592
     The ionic contribution  to forces
     atom    1 type  1   force =    -0.07877740   11.45302555   13.60990303
     atom    2 type  1   force =   -17.93328614  161.79040874    0.14998977
     atom    3 type  1   force =   -17.93328706 -161.79040638   -0.14999046
     atom    4 type  1   force =    17.91180920  161.74774198    0.14998977
     atom    5 type  1   force =    17.91181012 -161.74773962   -0.14999046
     atom    6 type  2   force =    -0.08534220   12.58969353  -14.42544296
     atom    7 type  2   force =    -0.08534217  -12.58970109   14.42543861
     atom    8 type  3   force =   -20.91555186    0.00000086    0.00000008
     atom    9 type  3   force =    19.08280495    0.00000080    0.00000003
     atom   10 type  3   force =   -12.74458597  190.80945284  -21.86530491
     atom   11 type  3   force =   -12.59806349  191.43361106   21.70902494
     atom   12 type  3   force =   -12.59806185 -191.43361009  -21.70902408
     atom   13 type  3   force =   -12.74458873 -190.80945081   21.86530689
     atom   14 type  3   force =    12.74083135  190.80393504  -21.88784415
     atom   15 type  3   force =    12.59430886  191.42809326   21.73156418
     atom   16 type  3   force =    12.59430723 -191.42809228  -21.73156332
     atom   17 type  3   force =    12.74083411 -190.80393301   21.88784613
     atom   18 type  4   force =    -0.07877740  -11.45303155  -13.60990607
     atom   19 type  4   force =   -12.13192847    0.33359640  -21.00341965
     atom   20 type  4   force =   -12.13193101   -0.33359584   21.00342112
     atom   21 type  4   force =    12.11577739    0.33359640  -21.08548608
     atom   22 type  4   force =    12.11577993   -0.33359584   21.08548756
     atom   23 type  5   force =     2.25126062    0.00000004    0.00000003
     The local contribution  to forces
     atom    1 type  1   force =     0.07796624  -10.93579130  -13.69563072
     atom    2 type  1   force =    17.72835624  -27.81753560   -0.16006201
     atom    3 type  1   force =    17.72892914   27.80926295    0.16005755
     atom    4 type  1   force =   -17.70841670  -27.77400011   -0.16121899
     atom    5 type  1   force =   -17.70874818   27.76554842    0.15946183
     atom    6 type  2   force =     0.08966995  -12.51155780   14.42461397
     atom    7 type  2   force =     0.08592642   12.51772463  -14.42589654
     atom    8 type  3   force =    21.34812929   -0.00095792    0.00232026
     atom    9 type  3   force =   -19.53452142   -0.00017602   -0.00059362
     atom   10 type  3   force =    12.58800120  -33.33716542   21.73187188
     atom   11 type  3   force =    12.43495827  -33.97817397  -21.57047695
     atom   12 type  3   force =    12.43036788   33.97530483   21.56877140
     atom   13 type  3   force =    12.59479964   33.33379304  -21.73113173
     atom   14 type  3   force =   -12.58338170  -33.32722133   21.75305395
     atom   15 type  3   force =   -12.43083449  -33.97005747  -21.59112406
     atom   16 type  3   force =   -12.42598941   33.96573808   21.58997572
     atom   17 type  3   force =   -12.59053122   33.32564671  -21.75175939
     atom   18 type  4   force =     0.08488856   11.41428893   13.60705675
     atom   19 type  4   force =    12.05417820   -0.34219762   20.96113373
     atom   20 type  4   force =    12.06609640    0.35518775  -20.96810398
     atom   21 type  4   force =   -12.03888314   -0.34157126   21.04359688
     atom   22 type  4   force =   -12.05062964    0.35470109  -21.04817396
     atom   23 type  5   force =    -1.88549725    0.00040397   -0.00085790
     The core correction contribution to forces
     atom    1 type  1   force =     0.00042911   -0.03109545    0.00714124
     atom    2 type  1   force =     0.01548377   -9.62391378    0.00176393
     atom    3 type  1   force =     0.01553592    9.62385381   -0.00146526
     atom    4 type  1   force =    -0.01545820   -9.62389461    0.00169350
     atom    5 type  1   force =    -0.01546278    9.62384127   -0.00142978
     atom    6 type  2   force =    -0.00001559   -0.01404248   -0.00205594
     atom    7 type  2   force =    -0.00000874    0.01383429    0.00265445
     atom    8 type  3   force =    -0.03510271    0.00039605   -0.00028220
     atom    9 type  3   force =     0.01525320    0.00016337    0.00010077
     atom   10 type  3   force =     0.00673884   -5.12667750    0.00423798
     atom   11 type  3   force =     0.00447198   -5.12834987   -0.00397741
     atom   12 type  3   force =     0.00509558    5.12828488    0.00382612
     atom   13 type  3   force =     0.00712235    5.12620531   -0.00446213
     atom   14 type  3   force =    -0.00661261   -5.12670099    0.00424432
     atom   15 type  3   force =    -0.00444589   -5.12832076   -0.00402229
     atom   16 type  3   force =    -0.00507244    5.12824187    0.00387244
     atom   17 type  3   force =    -0.00701898    5.12624024   -0.00446258
     atom   18 type  4   force =     0.00008140    0.00992859   -0.00071554
     atom   19 type  4   force =    -0.00965500    0.00057574   -0.00842391
     atom   20 type  4   force =    -0.00934695    0.00002689    0.00821608
     atom   21 type  4   force =     0.00964736    0.00059674   -0.00851685
     atom   22 type  4   force =     0.00934061    0.00001639    0.00830685
     atom   23 type  5   force =     0.00000000    0.00000000    0.00000000
     The Hubbard contrib.    to forces
     atom    1 type  1   force =     0.00000000    0.00000000    0.00000000
     atom    2 type  1   force =     0.00000000    0.00000000    0.00000000
     atom    3 type  1   force =     0.00000000    0.00000000    0.00000000
     atom    4 type  1   force =     0.00000000    0.00000000    0.00000000
     atom    5 type  1   force =     0.00000000    0.00000000    0.00000000
     atom    6 type  2   force =     0.00000000    0.00000000    0.00000000
     atom    7 type  2   force =     0.00000000    0.00000000    0.00000000
     atom    8 type  3   force =     0.00000000    0.00000000    0.00000000
     atom    9 type  3   force =     0.00000000    0.00000000    0.00000000
     atom   10 type  3   force =     0.00000000    0.00000000    0.00000000
     atom   11 type  3   force =     0.00000000    0.00000000    0.00000000
     atom   12 type  3   force =     0.00000000    0.00000000    0.00000000
     atom   13 type  3   force =     0.00000000    0.00000000    0.00000000
     atom   14 type  3   force =     0.00000000    0.00000000    0.00000000
     atom   15 type  3   force =     0.00000000    0.00000000    0.00000000
     atom   16 type  3   force =     0.00000000    0.00000000    0.00000000
     atom   17 type  3   force =     0.00000000    0.00000000    0.00000000
     atom   18 type  4   force =     0.00000000    0.00000000    0.00000000
     atom   19 type  4   force =     0.00000000    0.00000000    0.00000000
     atom   20 type  4   force =     0.00000000    0.00000000    0.00000000
     atom   21 type  4   force =     0.00000000    0.00000000    0.00000000
     atom   22 type  4   force =     0.00000000    0.00000000    0.00000000
     atom   23 type  5   force =     0.00000000    0.00000000    0.00000000
     The SCF correction term to forces
     atom    1 type  1   force =    -0.00000000   -0.00000000   -0.00000000
     atom    2 type  1   force =     0.00000000    0.00000000    0.00000000
     atom    3 type  1   force =     0.00000000    0.00000000   -0.00000000
     atom    4 type  1   force =    -0.00000000    0.00000000    0.00000000
     atom    5 type  1   force =    -0.00000000    0.00000000   -0.00000000
     atom    6 type  2   force =    -0.00000000   -0.00000000    0.00000000
     atom    7 type  2   force =    -0.00000000    0.00000000   -0.00000000
     atom    8 type  3   force =     0.00000000   -0.00000000    0.00000000
     atom    9 type  3   force =    -0.00000000   -0.00000000    0.00000000
     atom   10 type  3   force =     0.00000000   -0.00000000    0.00000000
     atom   11 type  3   force =     0.00000000    0.00000000   -0.00000000
     atom   12 type  3   force =     0.00000000    0.00000000    0.00000000
     atom   13 type  3   force =     0.00000000    0.00000000    0.00000000
     atom   14 type  3   force =    -0.01125013   -0.00640834    0.00209891
     atom   15 type  3   force =    -0.00569654   -0.00016883   -0.00160190
     atom   16 type  3   force =    -0.01078240    0.00686306    0.00204162
     atom   17 type  3   force =    -0.00419990    0.00791987    0.00003554
     atom   18 type  4   force =    -0.00767625    0.01210323    0.01398556
     atom   19 type  4   force =     0.00669209   -0.00088589    0.00989485
     atom   20 type  4   force =     0.00463038   -0.00415142   -0.00829383
     atom   21 type  4   force =    -0.00760334   -0.00109527    0.01036283
     atom   22 type  4   force =    -0.00542251   -0.00409729   -0.01107737
     atom   23 type  5   force =    -0.00020463   -0.00012273    0.00057126

     Total force =   219.679257     Total SCF correction =     0.037982

     Molecular Dynamics Calculation

     Starting temperature  =   300.00 K

     temperature is set once at start

     mass Hf               =   178.49
     mass Nb               =    92.91
     mass Ta               =   180.95
     mass Zr               =    91.22
     mass H                =     2.01
     Time step             =    10.50 a.u.,  0.5080 femto-seconds

     Entering Dynamics:    iteration =     1
                           time      =   0.0005 pico-seconds


ATOMIC_POSITIONS (angstrom)
Hf            1.8699999570        1.8699999570        7.0100002690    0   0   0
Hf            0.2000000000        0.2000000000        5.3399999140    0   0   0
Hf            0.2000000000        6.8799998280        5.3399999140    0   0   0
Hf            3.5399999140        0.2000000000        5.3399999140    0   0   0
Hf            3.5399999140        6.8799998280        5.3399999140    0   0   0
Nb            1.8699999570        1.8699999570        3.6699999570    0   0   0
Nb            1.8699999570        5.2100002690        7.0100002690    0   0   0
Ta            0.2000000000        3.5399999140        5.3399999140    0   0   0
Ta            3.5399999140        3.5399999140        5.3399999140    0   0   0
Ta            0.2000000000        0.2000000000        2.0000000000    0   0   0
Ta            0.2000000000        0.2000000000        8.6799998280    0   0   0
Ta            0.2000000000        6.8799998280        2.0000000000    0   0   0
Ta            0.2000000000        6.8799998280        8.6799998280    0   0   0
Ta            3.5400088488        0.2194276594        1.9999884710
Ta            3.5400082899        0.2194280817        8.6800094443
Ta            3.5400086092        6.8605725230        1.9999898187
Ta            3.5400091501        6.8605714963        8.6800122352
Zr            1.8699994197        5.2099737588        3.6699973356
Zr            0.2000058689        3.5399946889        2.0000084258
Zr            0.2000067012        3.5400056294        8.6799913690
Zr            3.5399938261        3.5399947514        2.0000089416
Zr            3.5399930006        3.5400055238        8.6799909631
H             4.9085869441        3.5400113385        5.3399948916


     kinetic energy (Ekin) =           0.55137389 Ry
     temperature           =        5803.67016310 K 
     Ekin + Etot (const)   =       -2630.57649878 Ry

     File outdir/pwscf.msd.dat deleted, as requested

     Writing config-only to output data dir outdir/pwscf.save/
     NEW-OLD atomic charge density approx. for the potential

     Check: negative core charge=   -0.000002

     negative rho (up, down):  7.097E-01 7.099E-01
     Generating pointlists ...
     new r_m :   0.0802 (alat units)  1.0668 (a.u.) for type    5

     total cpu time spent up to now is      460.8 secs

     Self-consistent Calculation

     iteration #  1     ecut=   120.00 Ry     beta= 0.70
     Davidson diagonalization with overlap
     ethr =  1.00E-06,  avg # of iterations = 12.5

     negative rho (up, down):  7.021E-01 7.023E-01

     total cpu time spent up to now is      523.4 secs

     total energy              =   -2646.02139089 Ry
     estimated scf accuracy    <       0.13592776 Ry

     total magnetization       =     0.20 Bohr mag/cell
     absolute magnetization    =     0.24 Bohr mag/cell

     iteration #  2     ecut=   120.00 Ry     beta= 0.70
     Davidson diagonalization with overlap
     ethr =  4.91E-05,  avg # of iterations =  2.0

     negative rho (up, down):  7.004E-01 7.007E-01

     total cpu time spent up to now is      551.0 secs

     total energy              =   -2646.03394966 Ry
     estimated scf accuracy    <       0.07781908 Ry

     total magnetization       =     0.19 Bohr mag/cell
     absolute magnetization    =     0.23 Bohr mag/cell

     iteration #  3     ecut=   120.00 Ry     beta= 0.70
     Davidson diagonalization with overlap
     ethr =  2.81E-05,  avg # of iterations =  1.0

     negative rho (up, down):  6.987E-01 6.990E-01

     total cpu time spent up to now is      574.5 secs

     total energy              =   -2646.03838126 Ry
     estimated scf accuracy    <       0.00304162 Ry

     total magnetization       =     0.20 Bohr mag/cell
     absolute magnetization    =     0.24 Bohr mag/cell

     iteration #  4     ecut=   120.00 Ry     beta= 0.70
     Davidson diagonalization with overlap
     ethr =  1.10E-06,  avg # of iterations =  4.0

     negative rho (up, down):  6.980E-01 6.983E-01

     total cpu time spent up to now is      603.2 secs

     total energy              =   -2646.03858651 Ry
     estimated scf accuracy    <       0.00146401 Ry

     total magnetization       =     0.21 Bohr mag/cell
     absolute magnetization    =     0.25 Bohr mag/cell

     iteration #  5     ecut=   120.00 Ry     beta= 0.70
     Davidson diagonalization with overlap
     ethr =  5.29E-07,  avg # of iterations =  2.0

     negative rho (up, down):  6.981E-01 6.983E-01

     Magnetic moment per site  (integrated on atomic sphere of radius R)
     atom   1 (R=0.041)  charge=  0.0281    0.0000
     atom   2 (R=0.041)  charge=  0.2749    0.0001
     atom   3 (R=0.041)  charge=  0.2757    0.0001
     atom   4 (R=0.041)  charge=  0.2749    0.0000
     atom   5 (R=0.041)  charge=  0.2757    0.0000
     atom   6 (R=0.169)  charge= 10.9611    0.0074
     atom   7 (R=0.169)  charge= 10.9572    0.0008
     atom   8 (R=0.041)  charge=  0.0851    0.0000
     atom   9 (R=0.041)  charge=  0.0868   -0.0000
     atom  10 (R=0.041)  charge=  0.3860   -0.0000
     atom  11 (R=0.041)  charge=  0.3859   -0.0000
     atom  12 (R=0.041)  charge=  0.3868   -0.0000
     atom  13 (R=0.041)  charge=  0.3869   -0.0000
     atom  14 (R=0.041)  charge=  0.3629    0.0000
     atom  15 (R=0.041)  charge=  0.3629    0.0000
     atom  16 (R=0.041)  charge=  0.3626    0.0000
     atom  17 (R=0.041)  charge=  0.3627    0.0000
     atom  18 (R=0.169)  charge=  9.8655    0.0180
     atom  19 (R=0.169)  charge=  9.5958    0.0057
     atom  20 (R=0.169)  charge=  9.5966    0.0053
     atom  21 (R=0.169)  charge=  9.5912    0.0557
     atom  22 (R=0.169)  charge=  9.5955    0.0209
     atom  23 (R=0.080)  charge=  0.8733    0.0002

     total cpu time spent up to now is      629.4 secs

     End of self-consistent calculation

 ------ SPIN UP ------------


          k = 0.0000 0.0000 0.0000 ( 41567 PWs)   bands (ev):

  -154.5681-154.5451-148.6072-148.6043-143.3086-143.2869 -60.5486 -60.5238
   -60.4105 -60.3888 -57.2811 -57.2568 -57.1391 -57.1184 -56.2027 -56.1816
   -56.1612 -55.6020 -53.7214 -53.7020 -50.4254 -50.4213 -49.9861 -49.9644
   -49.8831 -49.8643 -49.8567 -42.6633 -42.6415 -36.9713 -36.9559 -36.9475
   -36.9383 -36.5847 -31.2102 -31.1915 -31.1769 -31.1583 -25.0358 -24.9857
   -22.7831 -22.5778 -22.5105 -22.4710 -22.1171 -22.0252 -18.9392 -18.8930
   -18.7693 -18.7668 -18.7335 -18.7196 -18.7036 -18.5848 -18.5695 -15.2653
   -15.1610 -15.1211 -15.1016 -15.0775 -15.0082 -14.9552 -14.9260 -14.8830
   -14.8651 -14.8371 -14.8202 -14.8096 -14.5504 -14.5115 -12.6844 -12.6422
   -12.5050 -12.4829 -12.3996 -12.3640 -12.2123 -12.1932  -6.9072  -6.7083
    -6.6916  -6.6858  -3.6709  -3.5963  -3.5484  -3.5044  -2.2660  -2.1400
    -2.1305  -2.0919  -1.2193  -0.8762   0.2521   0.5738   0.9820   1.3762
     1.9323   2.0488   2.2018   3.5828   5.7127   6.2001   6.2391   6.3045
     7.0125   7.0201   7.2240   7.3216   7.4232   7.6142   7.7097   7.7481
     7.8325   8.1547   8.6990   9.4011   9.5271   9.8933   9.9528  10.0824
    10.0966  10.2413  10.3022  10.4652  10.6974  10.8634  10.9693  11.0692
    11.1766  11.4031  11.4297  11.4527  11.5860  11.7349  11.7479  11.8094
    11.8383  11.8834  11.9677  12.0388  12.1936  12.3385  12.4029  12.5733
    12.7236  12.8187  12.9928  13.1751  13.1980  13.2752  13.4218  13.5850
    13.6795  13.8209  13.8284  13.8762  13.9347  14.1347  14.2325  14.2808
    14.3901  14.4943  14.5494  14.6090  14.7069  14.7779  14.9441

 ------ SPIN DOWN ----------


          k = 0.0000 0.0000 0.0000 ( 41567 PWs)   bands (ev):

  -154.5680-154.5449-148.6066-148.6041-143.3083-143.2865 -60.5486 -60.5236
   -60.4104 -60.3887 -57.2809 -57.2565 -57.1389 -57.1182 -56.2026 -56.1816
   -56.1610 -55.6053 -53.7210 -53.7016 -50.4248 -50.4209 -49.9858 -49.9641
   -49.8813 -49.8636 -49.8561 -42.6626 -42.6372 -36.9595 -36.9499 -36.9280
   -36.9221 -36.5740 -31.2100 -31.1911 -31.1769 -31.1581 -25.0347 -24.9846
   -22.7825 -22.5780 -22.5107 -22.4736 -22.1229 -22.0304 -18.9382 -18.8884
   -18.7693 -18.7642 -18.7311 -18.7180 -18.6962 -18.5815 -18.5661 -15.2449
   -15.1366 -15.1076 -15.0890 -15.0655 -15.0010 -14.9377 -14.9016 -14.8746
   -14.8495 -14.8200 -14.8081 -14.8032 -14.5343 -14.4928 -12.6844 -12.6417
   -12.5048 -12.4826 -12.3991 -12.3630 -12.2118 -12.1927  -6.9067  -6.7074
    -6.6909  -6.6853  -3.6708  -3.5963  -3.5483  -3.5043  -2.2658  -2.1398
    -2.1303  -2.0916  -1.2192  -0.8762   0.2522   0.5739   0.9822   1.3766
     1.9328   2.0495   2.2024   3.5833   5.7135   6.2012   6.2405   6.3065
     7.0147   7.0223   7.2283   7.3262   7.4250   7.6181   7.7142   7.7507
     7.8349   8.1573   8.7073   9.4048   9.5355   9.8974   9.9543  10.0883
    10.1088  10.2445  10.3055  10.4694  10.7016  10.8697  10.9837  11.0735
    11.1841  11.4114  11.4388  11.4600  11.5983  11.7503  11.7624  11.8246
    11.8592  11.9000  11.9806  12.0767  12.2008  12.3590  12.4155  12.5856
    12.7330  12.8246  13.0014  13.1794  13.2032  13.2844  13.4331  13.5887
    13.6923  13.8336  13.8360  13.8926  13.9471  14.1419  14.2370  14.2887
    14.3965  14.5024  14.5607  14.6133  14.7139  14.7861  14.9511

     the Fermi energy is    12.0256 ev

!    total energy              =   -2646.03846506 Ry
     estimated scf accuracy    <       0.00026258 Ry
     smearing contrib. (-TS)   =      -0.07935648 Ry
     internal energy E=F+TS    =   -2645.95910858 Ry

     total magnetization       =     0.22 Bohr mag/cell
     absolute magnetization    =     0.26 Bohr mag/cell

     convergence has been achieved in   5 iterations

     negative rho (up, down):  6.981E-01 6.983E-01

     Forces acting on atoms (cartesian axes, Ry/au):

     atom    1 type  1   force =    -0.00233833    0.07366631   -0.00990716
     atom    2 type  1   force =    -0.06452307   63.84392935    0.00716170
     atom    3 type  1   force =    -0.06595094  -63.84434027   -0.00449340
     atom    4 type  1   force =     0.06378208   63.83598289    0.00706394
     atom    5 type  1   force =     0.06578461  -63.83652873   -0.00382441
     atom    6 type  2   force =    -0.00624301    0.13000191    0.01738853
     atom    7 type  2   force =    -0.00648699   -0.13156028   -0.01999915
     atom    8 type  3   force =    -0.00393252   -0.00100337    0.00466944
     atom    9 type  3   force =    -0.49075517   -0.00137249    0.00646575
     atom   10 type  3   force =    -0.04764936  109.82719123   -0.06612140
     atom   11 type  3   force =    -0.04576262  109.81862319    0.05383294
     atom   12 type  3   force =    -0.04642063 -109.82495762   -0.05816782
     atom   13 type  3   force =    -0.05085476 -109.82017295    0.07003057
     atom   14 type  3   force =     0.04785775   94.97710450   -0.06598257
     atom   15 type  3   force =     0.04622168   94.96969365    0.05251524
     atom   16 type  3   force =     0.04668012  -94.97561067   -0.05727291
     atom   17 type  3   force =     0.05120497  -94.97032316    0.06998453
     atom   18 type  4   force =    -0.00374189   -0.07123530   -0.00115483
     atom   19 type  4   force =     0.01929216   -0.01546609    0.02744554
     atom   20 type  4   force =     0.02039278    0.01571512   -0.02776431
     atom   21 type  4   force =    -0.02040617   -0.01527999    0.03038907
     atom   22 type  4   force =    -0.02105908    0.01519590   -0.03101818
     atom   23 type  5   force =     0.51490840    0.00074689   -0.00124110
     The non-local contrib.  to forces
     atom    1 type  1   force =     0.00545637   -0.40780612    0.07734538
     atom    2 type  1   force =     0.11031838  -60.50925604    0.01488195
     atom    3 type  1   force =     0.10957121   60.51048176   -0.01253647
     atom    4 type  1   force =    -0.10889376  -60.51515480    0.01508284
     atom    5 type  1   force =    -0.10790210   60.51622183   -0.01248247
     atom    6 type  2   force =    -0.00007729    0.08416368    0.00127606
     atom    7 type  2   force =     0.00007527   -0.08161934   -0.01474199
     atom    8 type  3   force =    -0.45125206    0.00321368   -0.00069978
     atom    9 type  3   force =     0.21811252    0.00289319    0.00011126
     atom   10 type  3   force =     0.09208001  -42.51114200    0.06101174
     atom   11 type  3   force =     0.10763338  -42.50614486   -0.07964518
     atom   12 type  3   force =     0.10650751   42.49631200    0.07639112
     atom   13 type  3   force =     0.08817963   42.52035480   -0.05993898
     atom   14 type  3   force =    -0.09290850  -37.34666176    0.06257371
     atom   15 type  3   force =    -0.10826893  -37.33887233   -0.08204777
     atom   16 type  3   force =    -0.10762778   37.32930041    0.07911903
     atom   17 type  3   force =    -0.08936526   37.35535275   -0.06197748
     atom   18 type  4   force =    -0.00119691   -0.05997715   -0.01195487
     atom   19 type  4   force =     0.09820726   -0.00691689    0.06604734
     atom   20 type  4   force =     0.08934267   -0.00178323   -0.06083758
     atom   21 type  4   force =    -0.09779418   -0.00732130    0.06959776
     atom   22 type  4   force =    -0.09041736   -0.00135145   -0.06581408
     atom   23 type  5   force =    -0.09756834    0.00041473   -0.00050393
     The ionic contribution  to forces
     atom    1 type  1   force =    -0.13365336   11.41332682   13.59112178
     atom    2 type  1   force =   -17.94240403  161.79106679    0.14994656
     atom    3 type  1   force =   -17.94236861 -161.79114891   -0.15007590
     atom    4 type  1   force =    17.91544446  161.72083706    0.14994628
     atom    5 type  1   force =    17.91540777 -161.72092191   -0.15007621
     atom    6 type  2   force =    -0.14478745   12.54649476  -14.40501173
     atom    7 type  2   force =    -0.14478622  -12.54665301   14.40499655
     atom    8 type  3   force =   -21.10434437   -0.00002344    0.00009565
     atom    9 type  3   force =    18.41547969   -0.00004502    0.00010354
     atom   10 type  3   force =   -12.73779629  190.79320623  -21.86528746
     atom   11 type  3   force =   -12.59132137  191.41750955   21.70905308
     atom   12 type  3   force =   -12.59124238 -191.41752131  -21.70897203
     atom   13 type  3   force =   -12.73784630 -190.79325185   21.86533676
     atom   14 type  3   force =    12.76496554  170.89328588  -21.92591312
     atom   15 type  3   force =    12.61013973  171.51490385   21.76011023
     atom   16 type  3   force =    12.61019460 -171.51560167  -21.76034919
     atom   17 type  3   force =    12.76515122 -170.89265082   21.92628520
     atom   18 type  4   force =    -0.13365258  -11.41274928  -13.59113418
     atom   19 type  4   force =   -12.14359505    0.33368152  -20.98752851
     atom   20 type  4   force =   -12.14352548   -0.33372561   20.98744645
     atom   21 type  4   force =    12.11833919    0.33368545  -21.09448799
     atom   22 type  4   force =    12.11827006   -0.33372581   21.09440706
     atom   23 type  5   force =     3.25793124    0.00002073   -0.00001285
     The local contribution  to forces
     atom    1 type  1   force =     0.13059386  -10.90531662  -13.69090161
     atom    2 type  1   force =    17.75914228  -27.81471957   -0.15542291
     atom    3 type  1   force =    17.75839842   27.81485160    0.16443861
     atom    4 type  1   force =   -17.73301939  -27.74519256   -0.15475567
     atom    5 type  1   force =   -17.73203276   27.74497746    0.16553847
     atom    6 type  2   force =     0.14251401  -12.49371315   14.43809908
     atom    7 type  2   force =     0.14507589   12.48788532  -14.41853685
     atom    8 type  3   force =    21.61194036   -0.00595071    0.01103636
     atom    9 type  3   force =   -19.15545121   -0.00528812    0.01337828
     atom   10 type  3   force =    12.59846317  -33.32926061   21.74037494
     atom   11 type  3   force =    12.43728895  -33.96772153  -21.58024302
     atom   12 type  3   force =    12.43972423   33.97286994   21.57651529
     atom   13 type  3   force =    12.59609297   33.32994555  -21.73988459
     atom   14 type  3   force =   -12.62295645  -33.99816872   21.79943084
     atom   15 type  3   force =   -12.45331870  -34.63392004  -21.63080025
     atom   16 type  3   force =   -12.45582432   34.64090831   21.62612587
     atom   17 type  3   force =   -12.61968192   33.99705707  -21.79928108
     atom   18 type  4   force =     0.13508241   11.39780003   13.61737470
     atom   19 type  4   force =    12.07968766   -0.34502065   20.96611683
     atom   20 type  4   force =    12.08701004    0.35138150  -20.97292496
     atom   21 type  4   force =   -12.05636537   -0.34456467   21.07862624
     atom   22 type  4   force =   -12.06117074    0.35064894  -21.08532211
     atom   23 type  5   force =    -2.64877199    0.00018914    0.00028574
     The core correction contribution to forces
     atom    1 type  1   force =     0.00078557   -0.03158739    0.00775414
     atom    2 type  1   force =     0.01559894   -9.62394107    0.00173019
     atom    3 type  1   force =     0.01565963    9.62387114   -0.00148986
     atom    4 type  1   force =    -0.01553876   -9.62409856    0.00157235
     atom    5 type  1   force =    -0.01553515    9.62403312   -0.00135460
     atom    6 type  2   force =     0.00008844   -0.01421277   -0.00211799
     atom    7 type  2   force =     0.00006935    0.01401548    0.00277920
     atom    8 type  3   force =    -0.03919546    0.00045212   -0.00032123
     atom    9 type  3   force =     0.01652445    0.00012492    0.00013441
     atom   10 type  3   force =     0.00662726   -5.12668688    0.00404846
     atom   11 type  3   force =     0.00444727   -5.12829035   -0.00384377
     atom   12 type  3   force =     0.00505208    5.12823922    0.00367265
     atom   13 type  3   force =     0.00695729    5.12627818   -0.00430790
     atom   14 type  3   force =    -0.00635374   -4.57981585    0.00405072
     atom   15 type  3   force =    -0.00380665   -4.58188978   -0.00365841
     atom   16 type  3   force =    -0.00451709    4.58175608    0.00348532
     atom   17 type  3   force =    -0.00677803    4.57930242   -0.00434453
     atom   18 type  4   force =     0.00020878    0.01016284   -0.00085114
     atom   19 type  4   force =    -0.00959116    0.00061472   -0.00837764
     atom   20 type  4   force =    -0.00926850    0.00003080    0.00819730
     atom   21 type  4   force =     0.00956309    0.00064633   -0.00851235
     atom   22 type  4   force =     0.00934638   -0.00000035    0.00842431
     atom   23 type  5   force =     0.00000000    0.00000000    0.00000000
     The Hubbard contrib.    to forces
     atom    1 type  1   force =     0.00000000    0.00000000    0.00000000
     atom    2 type  1   force =     0.00000000    0.00000000    0.00000000
     atom    3 type  1   force =     0.00000000    0.00000000    0.00000000
     atom    4 type  1   force =     0.00000000    0.00000000    0.00000000
     atom    5 type  1   force =     0.00000000    0.00000000    0.00000000
     atom    6 type  2   force =     0.00000000    0.00000000    0.00000000
     atom    7 type  2   force =     0.00000000    0.00000000    0.00000000
     atom    8 type  3   force =     0.00000000    0.00000000    0.00000000
     atom    9 type  3   force =     0.00000000    0.00000000    0.00000000
     atom   10 type  3   force =     0.00000000    0.00000000    0.00000000
     atom   11 type  3   force =     0.00000000    0.00000000    0.00000000
     atom   12 type  3   force =     0.00000000    0.00000000    0.00000000
     atom   13 type  3   force =     0.00000000    0.00000000    0.00000000
     atom   14 type  3   force =     0.00000000    0.00000000    0.00000000
     atom   15 type  3   force =     0.00000000    0.00000000    0.00000000
     atom   16 type  3   force =     0.00000000    0.00000000    0.00000000
     atom   17 type  3   force =     0.00000000    0.00000000    0.00000000
     atom   18 type  4   force =     0.00000000    0.00000000    0.00000000
     atom   19 type  4   force =     0.00000000    0.00000000    0.00000000
     atom   20 type  4   force =     0.00000000    0.00000000    0.00000000
     atom   21 type  4   force =     0.00000000    0.00000000    0.00000000
     atom   22 type  4   force =     0.00000000    0.00000000    0.00000000
     atom   23 type  5   force =     0.00000000    0.00000000    0.00000000
     The SCF correction term to forces
     atom    1 type  1   force =    -0.00000000    0.00000000    0.00000000
     atom    2 type  1   force =    -0.00000000    0.00000000   -0.00000000
     atom    3 type  1   force =    -0.00000000   -0.00000000   -0.00000000
     atom    4 type  1   force =     0.00000000   -0.00000000   -0.00000000
     atom    5 type  1   force =     0.00000000   -0.00000000   -0.00000000
     atom    6 type  2   force =    -0.00000000    0.00000000   -0.00000000
     atom    7 type  2   force =    -0.00000000   -0.00000000    0.00000000
     atom    8 type  3   force =    -0.00000000    0.00000000   -0.00000000
     atom    9 type  3   force =     0.00000000    0.00000000   -0.00000000
     atom   10 type  3   force =    -0.00000000    0.00000000   -0.00000000
     atom   11 type  3   force =    -0.00000000    0.00000000    0.00000000
     atom   12 type  3   force =    -0.00000000   -0.00000000   -0.00000000
     atom   13 type  3   force =    -0.00000000   -0.00000000    0.00000000
     atom   14 type  3   force =     0.00540953    0.00845227   -0.00576073
     atom   15 type  3   force =     0.00177487    0.00945924    0.00927544
     atom   16 type  3   force =     0.00475334   -0.01198649   -0.00528996
     atom   17 type  3   force =     0.00217760   -0.00939728    0.00966641
     atom   18 type  4   force =    -0.00388495   -0.00648444   -0.01422535
     atom   19 type  4   force =    -0.00511792    0.00216251   -0.00844850
     atom   20 type  4   force =    -0.00286731   -0.00020104    0.01071847
     atom   21 type  4   force =     0.00614974    0.00226151   -0.01447060
     atom   22 type  4   force =     0.00321121   -0.00038813    0.01765064
     atom   23 type  5   force =     0.00361613    0.00010958   -0.00064607

     Total force =   189.947158     Total SCF correction =     0.042024

     Entering Dynamics:    iteration =     2
                           time      =   0.0010 pico-seconds


ATOMIC_POSITIONS (angstrom)
Hf            1.8699999570        1.8699999570        7.0100002690    0   0   0
Hf            0.2000000000        0.2000000000        5.3399999140    0   0   0
Hf            0.2000000000        6.8799998280        5.3399999140    0   0   0
Hf            3.5399999140        0.2000000000        5.3399999140    0   0   0
Hf            3.5399999140        6.8799998280        5.3399999140    0   0   0
Nb            1.8699999570        1.8699999570        3.6699999570    0   0   0
Nb            1.8699999570        5.2100002690        7.0100002690    0   0   0
Ta            0.2000000000        3.5399999140        5.3399999140    0   0   0
Ta            3.5399999140        3.5399999140        5.3399999140    0   0   0
Ta            0.2000000000        0.2000000000        2.0000000000    0   0   0
Ta            0.2000000000        0.2000000000        8.6799998280    0   0   0
Ta            0.2000000000        6.8799998280        2.0000000000    0   0   0
Ta            0.2000000000        6.8799998280        8.6799998280    0   0   0
Ta            3.5400347133        0.2724534445        1.9999536008
Ta            3.5400330167        0.2724516676        8.6800376378
Ta            3.5400338175        6.8075476207        1.9999593770
Ta            3.5400364999        6.8075474377        8.6800493994
Zr            1.8699962568        5.2098972641        3.6699939039
Zr            0.2000252747        3.5399786115        2.0000361096
Zr            0.2000277117        3.5400223717        8.6799634283
Zr            3.5399734195        3.5399788671        2.0000392066
Zr            3.5399713105        3.5400217963        8.6799603334
H             4.7935391297        3.5400464650        5.3399503873


     kinetic energy (Ekin) =          14.47245870 Ry
     temperature           =      152334.70012869 K 
     Ekin + Etot (const)   =       -2631.56600636 Ry

     Writing config-only to output data dir outdir/pwscf.save/
     NEW-OLD atomic charge density approx. for the potential

     Check: negative core charge=   -0.000002

     negative rho (up, down):  7.295E-01 7.298E-01
     Generating pointlists ...
     new r_m :   0.1671 (alat units)  2.2227 (a.u.) for type    2
     new r_m :   0.1671 (alat units)  2.2227 (a.u.) for type    4
     new r_m :   0.0734 (alat units)  0.9771 (a.u.) for type    5

     total cpu time spent up to now is      647.6 secs

     Self-consistent Calculation

     iteration #  1     ecut=   120.00 Ry     beta= 0.70
     Davidson diagonalization with overlap
     ethr =  1.00E-06,  avg # of iterations = 12.0

     negative rho (up, down):  7.123E-01 7.126E-01

     total cpu time spent up to now is      710.0 secs

     total energy              =   -2677.42612114 Ry
     estimated scf accuracy    <       0.12300301 Ry

     total magnetization       =     0.22 Bohr mag/cell
     absolute magnetization    =     0.27 Bohr mag/cell

     iteration #  2     ecut=   120.00 Ry     beta= 0.70
     Davidson diagonalization with overlap
     ethr =  4.44E-05,  avg # of iterations =  2.0

     negative rho (up, down):  7.080E-01 7.083E-01

     total cpu time spent up to now is      736.5 secs

     total energy              =   -2677.43157501 Ry
     estimated scf accuracy    <       0.04240931 Ry

     total magnetization       =     0.25 Bohr mag/cell
     absolute magnetization    =     0.29 Bohr mag/cell

     iteration #  3     ecut=   120.00 Ry     beta= 0.70
     Davidson diagonalization with overlap
     ethr =  1.53E-05,  avg # of iterations =  2.0

     negative rho (up, down):  7.040E-01 7.043E-01

     total cpu time spent up to now is      762.7 secs

     total energy              =   -2677.43405104 Ry
     estimated scf accuracy    <       0.01162880 Ry

     total magnetization       =     0.25 Bohr mag/cell
     absolute magnetization    =     0.30 Bohr mag/cell

     iteration #  4     ecut=   120.00 Ry     beta= 0.70
     Davidson diagonalization with overlap
     ethr =  4.20E-06,  avg # of iterations =  2.0

     negative rho (up, down):  7.034E-01 7.037E-01

     total cpu time spent up to now is      789.5 secs

     total energy              =   -2677.43465918 Ry
     estimated scf accuracy    <       0.00129765 Ry

     total magnetization       =     0.26 Bohr mag/cell
     absolute magnetization    =     0.31 Bohr mag/cell

     iteration #  5     ecut=   120.00 Ry     beta= 0.70
     Davidson diagonalization with overlap
     ethr =  4.68E-07,  avg # of iterations =  4.0

     negative rho (up, down):  7.036E-01 7.039E-01

     Magnetic moment per site  (integrated on atomic sphere of radius R)
     atom   1 (R=0.041)  charge=  0.0282    0.0001
     atom   2 (R=0.041)  charge=  0.2750    0.0001
     atom   3 (R=0.041)  charge=  0.2758    0.0001
     atom   4 (R=0.041)  charge=  0.2748    0.0000
     atom   5 (R=0.041)  charge=  0.2756    0.0000
     atom   6 (R=0.167)  charge= 10.8548    0.0089
     atom   7 (R=0.167)  charge= 10.8455    0.0002
     atom   8 (R=0.041)  charge=  0.0852    0.0000
     atom   9 (R=0.041)  charge=  0.0879   -0.0000
     atom  10 (R=0.041)  charge=  0.3862   -0.0000
     atom  11 (R=0.041)  charge=  0.3861   -0.0000
     atom  12 (R=0.041)  charge=  0.3870   -0.0000
     atom  13 (R=0.041)  charge=  0.3871   -0.0000
     atom  14 (R=0.041)  charge=  0.2904    0.0000
     atom  15 (R=0.041)  charge=  0.2903    0.0000
     atom  16 (R=0.041)  charge=  0.2913    0.0000
     atom  17 (R=0.041)  charge=  0.2915    0.0000
     atom  18 (R=0.167)  charge=  9.7702    0.0222
     atom  19 (R=0.167)  charge=  9.5204    0.0070
     atom  20 (R=0.167)  charge=  9.5191    0.0045
     atom  21 (R=0.167)  charge=  9.5367    0.0684
     atom  22 (R=0.167)  charge=  9.5328    0.0261
     atom  23 (R=0.073)  charge=  0.8435    0.0002

     total cpu time spent up to now is      818.1 secs

     End of self-consistent calculation

 ------ SPIN UP ------------


          k = 0.0000 0.0000 0.0000 ( 41567 PWs)   bands (ev):

  -154.6565-154.6460-148.6402-148.6099-119.8194-119.8115 -60.6275 -60.6164
   -60.4875 -60.4810 -56.2843 -56.2798 -56.2766 -55.5370 -50.4549 -50.4347
   -50.0074 -49.9738 -49.9378 -49.8998 -49.8531 -49.0740 -49.0658 -48.9199
   -48.9163 -48.9032 -48.9003 -42.6973 -42.6821 -37.0349 -37.0141 -37.0052
   -36.9969 -36.6368 -31.2951 -31.2874 -31.1310 -31.1273 -25.0598 -25.0078
   -22.8792 -22.6852 -22.6401 -22.5871 -22.0265 -21.9469 -18.9752 -18.9340
   -18.8096 -18.8045 -18.7843 -18.7552 -18.7446 -18.6432 -18.6273 -15.3250
   -15.2238 -15.1790 -15.1600 -15.1367 -15.0610 -15.0195 -14.9911 -14.9508
   -14.9327 -14.8951 -14.8712 -14.8609 -14.6060 -14.5677 -12.7782 -12.7486
   -12.5933 -12.5846 -12.2633 -12.2400 -12.0558 -12.0492  -6.9259  -6.7365
    -6.7048  -6.6974  -3.6851  -3.6071  -3.6021  -3.5699  -1.2508  -0.9747
     0.7748   0.9736   1.0965   1.2828   1.4730   1.5329   1.8502   1.9698
     2.1138   2.5481   2.9108   3.6733   5.8266   6.2107   6.3911   6.5119
     6.7669   6.8857   6.9878   7.1561   7.3958   7.4398   7.5020   7.7586
     8.0773   8.3380   8.6555   9.4019   9.5079   9.8506   9.9635  10.0440
    10.0615  10.2064  10.2685  10.4688  10.7310  10.8142  10.9154  11.0479
    11.1554  11.3559  11.3881  11.4157  11.5223  11.6715  11.6963  11.7398
    11.7989  11.8349  11.8984  11.9730  12.1134  12.2677  12.3491  12.5260
    12.6812  12.7620  12.9419  13.0344  13.1404  13.2453  13.3571  13.4084
    13.6340  13.7499  13.7682  13.8150  13.8547  14.0984  14.1455  14.2457
    14.2543  14.4395  14.4939  14.5701  14.6182  14.7140  14.8012

 ------ SPIN DOWN ----------


          k = 0.0000 0.0000 0.0000 ( 41567 PWs)   bands (ev):

  -154.6565-154.6459-148.6395-148.6098-119.8189-119.8108 -60.6276 -60.6163
   -60.4875 -60.4809 -56.2844 -56.2791 -56.2765 -55.5407 -50.4539 -50.4346
   -50.0069 -49.9736 -49.9353 -49.8990 -49.8528 -49.0736 -49.0652 -48.9196
   -48.9160 -48.9027 -48.8995 -42.6971 -42.6770 -37.0124 -37.0057 -36.9862
   -36.9817 -36.6233 -31.2953 -31.2873 -31.1303 -31.1263 -25.0583 -25.0068
   -22.8781 -22.6876 -22.6396 -22.5866 -22.0330 -21.9529 -18.9746 -18.9287
   -18.8065 -18.8051 -18.7815 -18.7539 -18.7359 -18.6395 -18.6228 -15.2985
   -15.1924 -15.1631 -15.1433 -15.1243 -15.0525 -14.9945 -14.9615 -14.9384
   -14.9168 -14.8744 -14.8584 -14.8538 -14.5851 -14.5457 -12.7782 -12.7482
   -12.5932 -12.5843 -12.2624 -12.2384 -12.0551 -12.0485  -6.9253  -6.7349
    -6.7043  -6.6969  -3.6850  -3.6070  -3.6020  -3.5698  -1.2507  -0.9747
     0.7754   0.9738   1.0970   1.2832   1.4734   1.5335   1.8509   1.9703
     2.1146   2.5486   2.9114   3.6739   5.8280   6.2148   6.3921   6.5132
     6.7745   6.8914   6.9907   7.1587   7.3980   7.4428   7.5039   7.7620
     8.0810   8.3420   8.6665   9.4074   9.5176   9.8560   9.9660  10.0516
    10.0763  10.2098  10.2734  10.4739  10.7374  10.8221  10.9327  11.0529
    11.1640  11.3665  11.3986  11.4259  11.5371  11.6987  11.7050  11.7609
    11.8247  11.8562  11.9138  12.0170  12.1252  12.2911  12.3648  12.5415
    12.6921  12.7699  12.9523  13.0417  13.1461  13.2568  13.3708  13.4150
    13.6491  13.7650  13.7761  13.8347  13.8697  14.1063  14.1505  14.2501
    14.2659  14.4502  14.5074  14.5760  14.6265  14.7257  14.8126

     the Fermi energy is    11.9662 ev

!    total energy              =   -2677.43444691 Ry
     estimated scf accuracy    <       0.00046348 Ry
     smearing contrib. (-TS)   =      -0.08120154 Ry
     internal energy E=F+TS    =   -2677.35324536 Ry

     total magnetization       =     0.28 Bohr mag/cell
     absolute magnetization    =     0.33 Bohr mag/cell

     convergence has been achieved in   5 iterations

     negative rho (up, down):  7.036E-01 7.039E-01

     Forces acting on atoms (cartesian axes, Ry/au):

     atom    1 type  1   force =    -0.00512362    0.07227777   -0.00807361
     atom    2 type  1   force =    -0.06926122   63.87263439    0.00237013
     atom    3 type  1   force =    -0.07095978  -63.87256920   -0.00922432
     atom    4 type  1   force =     0.06812142   63.86028590    0.00184983
     atom    5 type  1   force =     0.07065866  -63.86037264   -0.00955836
     atom    6 type  2   force =    -0.01055555    0.12917252    0.02141328
     atom    7 type  2   force =    -0.01243772   -0.12940470   -0.02196237
     atom    8 type  3   force =    -0.00075665   -0.00095050    0.00316565
     atom    9 type  3   force =    -0.78308944   -0.00163771    0.00507625
     atom   10 type  3   force =    -0.04858573  109.78463497   -0.06702033
     atom   11 type  3   force =    -0.04593764  109.79287199    0.05838797
     atom   12 type  3   force =    -0.04710893 -109.78182282   -0.05947685
     atom   13 type  3   force =    -0.05124205 -109.79572783    0.07400169
     atom   14 type  3   force =     0.05020313   64.52518666   -0.06797310
     atom   15 type  3   force =     0.04894065   64.53417209    0.05542674
     atom   16 type  3   force =     0.04992939  -64.52543303   -0.05758120
     atom   17 type  3   force =     0.05248003  -64.53356097    0.07532916
     atom   18 type  4   force =    -0.00621567   -0.07110636   -0.00157698
     atom   19 type  4   force =     0.01752505   -0.01541974    0.02538758
     atom   20 type  4   force =     0.01978895    0.01596917   -0.02252604
     atom   21 type  4   force =    -0.01785992   -0.01486691    0.02668735
     atom   22 type  4   force =    -0.01934900    0.01492232   -0.02371847
     atom   23 type  5   force =     0.81083562    0.00074464   -0.00040399
     The non-local contrib.  to forces
     atom    1 type  1   force =     0.00576454   -0.40427081    0.08016500
     atom    2 type  1   force =     0.10833402  -60.48149819    0.01132743
     atom    3 type  1   force =     0.10745344   60.48308802   -0.01588683
     atom    4 type  1   force =    -0.10789619  -60.48088961    0.01113828
     atom    5 type  1   force =    -0.10660402   60.48217196   -0.01678458
     atom    6 type  2   force =    -0.00103059    0.08881459    0.00520820
     atom    7 type  2   force =    -0.00188015   -0.08650934   -0.02084185
     atom    8 type  3   force =    -0.48169990    0.00271718   -0.00209681
     atom    9 type  3   force =     0.35169588    0.00282309   -0.00172173
     atom   10 type  3   force =     0.08940480  -42.53862953    0.05926237
     atom   11 type  3   force =     0.10535980  -42.51313687   -0.07611158
     atom   12 type  3   force =     0.10360669   42.52300724    0.07440854
     atom   13 type  3   force =     0.08610374   42.52853852   -0.05671643
     atom   14 type  3   force =    -0.09195702  -26.69071613    0.06218380
     atom   15 type  3   force =    -0.10665756  -26.66009895   -0.08190671
     atom   16 type  3   force =    -0.10724010   26.66575482    0.08192127
     atom   17 type  3   force =    -0.09028241   26.68436272   -0.06062588
     atom   18 type  4   force =    -0.00230147   -0.06380436   -0.01177890
     atom   19 type  4   force =     0.09446293   -0.00706987    0.05931917
     atom   20 type  4   force =     0.08490321   -0.00147591   -0.05246646
     atom   21 type  4   force =    -0.09825814   -0.00770078    0.07210694
     atom   22 type  4   force =    -0.09291091   -0.00089146   -0.06822466
     atom   23 type  5   force =    -0.13231138    0.00045705   -0.00053401
     The ionic contribution  to forces
     atom    1 type  1   force =    -0.23545017   11.30543396   13.52246575
     atom    2 type  1   force =   -17.94854397  161.77904333    0.14982423
     atom    3 type  1   force =   -17.94841172 -161.77934399   -0.15031559
     atom    4 type  1   force =    17.92064825  161.65965383    0.14981203
     atom    5 type  1   force =    17.92050828 -161.65997754   -0.15033079
     atom    6 type  2   force =    -0.25505628   12.42903898  -14.33037781
     atom    7 type  2   force =    -0.25504352  -12.42964547   14.33036356
     atom    8 type  3   force =   -21.25234753   -0.00010851    0.00039074
     atom    9 type  3   force =    17.65592261   -0.00022936    0.00052328
     atom   10 type  3   force =   -12.71196694  190.74284744  -21.87349095
     atom   11 type  3   force =   -12.56562768  191.36758785   21.71738939
     atom   12 type  3   force =   -12.56532098 -191.36765048  -21.71707596
     atom   13 type  3   force =   -12.71215108 -190.74304774   21.87367909
     atom   14 type  3   force =    12.83312361  129.73843490  -22.02817849
     atom   15 type  3   force =    12.65593872  130.35563163   21.83731046
     atom   16 type  3   force =    12.65597958 -130.35519014  -21.83784245
     atom   17 type  3   force =    12.83366053 -129.73916574   22.02923116
     atom   18 type  4   force =    -0.23545083  -11.30316804  -13.52254122
     atom   19 type  4   force =   -12.16355438    0.33395846  -20.96806957
     atom   20 type  4   force =   -12.16327803   -0.33410433   20.96773739
     atom   21 type  4   force =    12.12259140    0.33398862  -21.08611885
     atom   22 type  4   force =    12.12232489   -0.33410787   21.08579150
     atom   23 type  5   force =     4.29150523    0.00012020   -0.00017690
     The local contribution  to forces
     atom    1 type  1   force =     0.22793453  -10.79788187  -13.61163631
     atom    2 type  1   force =    17.75401727  -27.79801932   -0.16936440
     atom    3 type  1   force =    17.75206702   27.80067678    0.14858147
     atom    4 type  1   force =   -17.72630099  -27.69482051   -0.16986691
     atom    5 type  1   force =   -17.72399359   27.69747231    0.14825197
     atom    6 type  2   force =     0.25262231  -12.37328940   14.32526820
     atom    7 type  2   force =     0.24932910   12.37109727  -14.32475378
     atom    8 type  3   force =    21.78246195   -0.00668091   -0.00563178
     atom    9 type  3   force =   -18.81932057   -0.00680554   -0.00701761
     atom   10 type  3   force =    12.56633485  -33.29617439   21.73345763
     atom   11 type  3   force =    12.40961048  -33.93368203  -21.56249226
     atom   12 type  3   force =    12.40825174   33.93760397   21.56969386
     atom   13 type  3   force =    12.56665761   33.29757598  -21.72103688
     atom   14 type  3   force =   -12.67887781  -35.36606628   21.87502511
     atom   15 type  3   force =   -12.49356854  -35.99893847  -21.67126737
     atom   16 type  3   force =   -12.48951874   36.00398570   21.67642275
     atom   17 type  3   force =   -12.67809366   35.36750451  -21.86152185
     atom   18 type  4   force =     0.23861422   11.28566164   13.51000988
     atom   19 type  4   force =    12.09417228   -0.34305832   20.93844812
     atom   20 type  4   force =    12.10448359    0.34916058  -20.93617420
     atom   21 type  4   force =   -12.04830958   -0.34188185   21.03957168
     atom   22 type  4   force =   -12.05435981    0.34790021  -21.03288801
     atom   23 type  5   force =    -3.34800529    0.00012934   -0.00118883
     The core correction contribution to forces
     atom    1 type  1   force =     0.00129936   -0.03178805    0.00905498
     atom    2 type  1   force =     0.01559955   -9.62391625    0.00170963
     atom    3 type  1   force =     0.01566112    9.62384250   -0.00146812
     atom    4 type  1   force =    -0.01569235   -9.62423187    0.00142063
     atom    5 type  1   force =    -0.01566337    9.62416878   -0.00130988
     atom    6 type  2   force =     0.00017282   -0.01438997   -0.00238727
     atom    7 type  2   force =     0.00017966    0.01423239    0.00314104
     atom    8 type  3   force =    -0.04304524    0.00045394   -0.00037015
     atom    9 type  3   force =     0.02176285    0.00010450    0.00020981
     atom   10 type  3   force =     0.00610281   -5.12671480    0.00383048
     atom   11 type  3   force =     0.00422855   -5.12797580   -0.00373306
     atom   12 type  3   force =     0.00479539    5.12808236    0.00358330
     atom   13 type  3   force =     0.00634242    5.12627842   -0.00404775
     atom   14 type  3   force =    -0.00498897   -3.17166633    0.00342521
     atom   15 type  3   force =    -0.00149019   -3.17489492   -0.00252458
     atom   16 type  3   force =    -0.00248527    3.17470060    0.00244387
     atom   17 type  3   force =    -0.00548345    3.17092173   -0.00369667
     atom   18 type  4   force =     0.00031850    0.01030666   -0.00115260
     atom   19 type  4   force =    -0.00940356    0.00063936   -0.00811646
     atom   20 type  4   force =    -0.00903211   -0.00001014    0.00789596
     atom   21 type  4   force =     0.00967353    0.00070408   -0.00885908
     atom   22 type  4   force =     0.00953001   -0.00006445    0.00881611
     atom   23 type  5   force =     0.00000000    0.00000000    0.00000000
     The Hubbard contrib.    to forces
     atom    1 type  1   force =     0.00000000    0.00000000    0.00000000
     atom    2 type  1   force =     0.00000000    0.00000000    0.00000000
     atom    3 type  1   force =     0.00000000    0.00000000    0.00000000
     atom    4 type  1   force =     0.00000000    0.00000000    0.00000000
     atom    5 type  1   force =     0.00000000    0.00000000    0.00000000
     atom    6 type  2   force =     0.00000000    0.00000000    0.00000000
     atom    7 type  2   force =     0.00000000    0.00000000    0.00000000
     atom    8 type  3   force =     0.00000000    0.00000000    0.00000000
     atom    9 type  3   force =     0.00000000    0.00000000    0.00000000
     atom   10 type  3   force =     0.00000000    0.00000000    0.00000000
     atom   11 type  3   force =     0.00000000    0.00000000    0.00000000
     atom   12 type  3   force =     0.00000000    0.00000000    0.00000000
     atom   13 type  3   force =     0.00000000    0.00000000    0.00000000
     atom   14 type  3   force =     0.00000000    0.00000000    0.00000000
     atom   15 type  3   force =     0.00000000    0.00000000    0.00000000
     atom   16 type  3   force =     0.00000000    0.00000000    0.00000000
     atom   17 type  3   force =     0.00000000    0.00000000    0.00000000
     atom   18 type  4   force =     0.00000000    0.00000000    0.00000000
     atom   19 type  4   force =     0.00000000    0.00000000    0.00000000
     atom   20 type  4   force =     0.00000000    0.00000000    0.00000000
     atom   21 type  4   force =     0.00000000    0.00000000    0.00000000
     atom   22 type  4   force =     0.00000000    0.00000000    0.00000000
     atom   23 type  5   force =     0.00000000    0.00000000    0.00000000
     The SCF correction term to forces
     atom    1 type  1   force =    -0.00000000    0.00000000   -0.00000000
     atom    2 type  1   force =     0.00000000   -0.00000000    0.00000000
     atom    3 type  1   force =     0.00000000   -0.00000000    0.00000000
     atom    4 type  1   force =    -0.00000000    0.00000000    0.00000000
     atom    5 type  1   force =    -0.00000000   -0.00000000    0.00000000
     atom    6 type  2   force =    -0.00000000   -0.00000000    0.00000000
     atom    7 type  2   force =    -0.00000000    0.00000000   -0.00000000
     atom    8 type  3   force =    -0.00000000    0.00000000    0.00000000
     atom    9 type  3   force =     0.00000000    0.00000000    0.00000000
     atom   10 type  3   force =     0.00000000    0.00000000    0.00000000
     atom   11 type  3   force =     0.00000000    0.00000000   -0.00000000
     atom   12 type  3   force =     0.00000000   -0.00000000    0.00000000
     atom   13 type  3   force =     0.00000000   -0.00000000   -0.00000000
     atom   14 type  3   force =    -0.00676616    0.01522623    0.01893700
     atom   15 type  3   force =    -0.00495124    0.01249854   -0.02681932
     atom   16 type  3   force =    -0.00647555   -0.01465829    0.01883909
     atom   17 type  3   force =    -0.00699045   -0.01715846   -0.02869185
     atom   18 type  4   force =    -0.00706556   -0.00007654    0.02325159
     atom   19 type  4   force =     0.00217831    0.00013635    0.00317206
     atom   20 type  4   force =     0.00304282    0.00242469   -0.01015300
     atom   21 type  4   force =    -0.00322659    0.00004875    0.00935240
     atom   22 type  4   force =    -0.00360265    0.00211162   -0.01784767
     atom   23 type  5   force =    -0.00002239    0.00006378    0.00086150

     Total force =   129.061866     Total SCF correction =     0.066878

     Entering Dynamics:    iteration =     3
                           time      =   0.0015 pico-seconds


ATOMIC_POSITIONS (angstrom)
Hf            1.8699999570        1.8699999570        7.0100002690    0   0   0
Hf            0.2000000000        0.2000000000        5.3399999140    0   0   0
Hf            0.2000000000        6.8799998280        5.3399999140    0   0   0
Hf            3.5399999140        0.2000000000        5.3399999140    0   0   0
Hf            3.5399999140        6.8799998280        5.3399999140    0   0   0
Nb            1.8699999570        1.8699999570        3.6699999570    0   0   0
Nb            1.8699999570        5.2100002690        7.0100002690    0   0   0
[...]
   -25.1897 -24.9195 -23.6703 -23.6636 -23.1529 -22.8627 -22.8107 -22.5068
   -22.3519 -22.3046 -22.2939 -22.2898 -22.2827 -22.2688 -21.8286 -21.8216
   -21.8021 -21.7848 -20.5765 -20.5733 -18.7217 -18.7040 -18.5121 -18.5048
   -18.4194 -18.4020 -18.2528 -18.0864 -17.9316 -15.1694 -15.1368 -15.0740
   -14.9857 -14.9573 -14.9387 -14.7016 -14.5643 -14.5481 -14.4543 -14.4477
   -14.4297 -14.3092 -14.1756 -14.1062 -12.4152 -12.3847 -12.2929 -12.2809
    -6.9913  -6.8171  -6.6792  -6.6145  -3.2268  -3.1624  -3.1362  -3.1177
    -0.6287  -0.3440   0.9720   1.4250   1.9735   2.0025   2.2218   3.5811
     5.7919   6.3057   6.9624   6.9900   7.1471   7.5444   7.5734   7.7650
     7.8560   8.0271   8.1819   8.1990   8.7649   9.0907   9.4655   9.6254
     9.7960   9.8651   9.9003  10.1479  10.1554  10.2078  10.2288  10.2912
    10.3376  10.4197  10.6264  10.7500  10.8252  10.8414  10.8677  10.9858
    11.1443  11.1803  11.3876  11.4367  11.4623  11.7779  11.7898  11.9232
    11.9807  12.0253  12.0869  12.0968  12.1896  12.2594  12.5471  12.6561
    12.6745  12.9369  12.9618  13.0641  13.1276  13.1493  13.3061  13.3446
    13.5196  13.6089  13.6628  13.6953  13.7176  13.7634  14.0955  14.1337
    14.1981  14.3163  14.3387  14.4602  14.5544  14.5889  14.6578

     the Fermi energy is    12.0479 ev

!    total energy              =   -2743.57955286 Ry
     estimated scf accuracy    <       0.00040439 Ry
     smearing contrib. (-TS)   =      -0.08195457 Ry
     internal energy E=F+TS    =   -2743.49759829 Ry

     total magnetization       =     1.14 Bohr mag/cell
     absolute magnetization    =     1.30 Bohr mag/cell

     convergence has been achieved in   5 iterations

     negative rho (up, down):  7.973E-01 7.991E-01

     Forces acting on atoms (cartesian axes, Ry/au):

     atom    1 type  1   force =    -0.07155122    0.08224091   -0.05733519
     atom    2 type  1   force =    -0.06479174   63.83021530    0.00434859
     atom    3 type  1   force =    -0.06828927  -63.83207351    0.00737656
     atom    4 type  1   force =     0.08485555   63.77038751    0.00856757
     atom    5 type  1   force =     0.08863159  -63.77232739   -0.00225430
     atom    6 type  2   force =    -0.05069305    0.10036672    0.02785156
     atom    7 type  2   force =    -0.04833938   -0.10189728   -0.02645019
     atom    8 type  3   force =     0.02596888   -0.00046695    0.00380939
     atom    9 type  3   force =    -0.29806843    0.00011154    0.00695000
     atom   10 type  3   force =    -0.04726857  109.77761616   -0.06257197
     atom   11 type  3   force =    -0.04330851  109.76113262    0.05241337
     atom   12 type  3   force =    -0.04187298 -109.77518256   -0.06016225
     atom   13 type  3   force =    -0.04997946 -109.76472363    0.06464174
     atom   14 type  3   force =     0.06425586    0.14777693   -0.07569085
     atom   15 type  3   force =     0.08010078    0.13379897    0.08721401
     atom   16 type  3   force =     0.07467134   -0.13947685   -0.08309765
     atom   17 type  3   force =     0.06808285   -0.14920900    0.07124408
     atom   18 type  4   force =    -0.06495048   -0.06915649    0.04341516
     atom   19 type  4   force =    -0.00838206   -0.01350990   -0.00123394
     atom   20 type  4   force =    -0.00750734    0.01419451   -0.00360083
     atom   21 type  4   force =     0.01246004   -0.01070835   -0.03292407
     atom   22 type  4   force =     0.01063914    0.01095598    0.03012349
     atom   23 type  5   force =     0.35533645   -0.00006524   -0.00263428
     The non-local contrib.  to forces
     atom    1 type  1   force =    -0.05443183   -0.32931388   -0.02787641
     atom    2 type  1   force =     0.12574842  -60.52303587    0.01519293
     atom    3 type  1   force =     0.12508400   60.52268040   -0.00431803
     atom    4 type  1   force =    -0.09611924  -60.52829242    0.01634089
     atom    5 type  1   force =    -0.09481715   60.53097441   -0.01078633
     atom    6 type  2   force =     0.05698849   -0.00263912   -0.08031061
     atom    7 type  2   force =     0.04994926    0.00046030    0.07110992
     atom    8 type  3   force =    -0.40501749    0.00380294    0.00118464
     atom    9 type  3   force =     0.21375721    0.00606340    0.00157709
     atom   10 type  3   force =     0.05263009  -42.48617374    0.08152864
     atom   11 type  3   force =     0.06513180  -42.48937577   -0.09648749
     atom   12 type  3   force =     0.06691921   42.47008329    0.09378944
     atom   13 type  3   force =     0.04835240   42.50454196   -0.08303449
     atom   14 type  3   force =     0.11009293   -0.24143525   -0.05428526
     atom   15 type  3   force =     0.07548042   -0.24154207    0.01515931
     atom   16 type  3   force =     0.06535717    0.23081500   -0.00397194
     atom   17 type  3   force =     0.11450803    0.24588904    0.05029535
     atom   18 type  4   force =     0.03939475    0.00484357   -0.04791525
     atom   19 type  4   force =     0.05345394   -0.00328347    0.02084170
     atom   20 type  4   force =     0.04801523    0.00020227   -0.01831827
     atom   21 type  4   force =    -0.06439409    0.01467023    0.02616235
     atom   22 type  4   force =    -0.06074743   -0.01542952   -0.02507847
     atom   23 type  5   force =    -0.07378220    0.00003375   -0.00003567
     The ionic contribution  to forces
     atom    1 type  1   force =    -1.76931384    8.72282655   11.92919601
     atom    2 type  1   force =   -17.83082121  161.39814143    0.14743257
     atom    3 type  1   force =   -17.82930050 -161.39946068   -0.15457294
     atom    4 type  1   force =    17.90610324  160.59538895    0.14563370
     atom    5 type  1   force =    17.90373916 -160.60221079   -0.15784728
     atom    6 type  2   force =    -1.91470614    9.61691845  -12.59911636
     atom    7 type  2   force =    -1.91466131   -9.62853220   12.59964380
     atom    8 type  3   force =   -21.07396227   -0.00526579    0.01030519
     atom    9 type  3   force =    18.89599975   -0.00253585    0.01017746
     atom   10 type  3   force =   -12.09973729  189.68899683  -22.13030046
     atom   11 type  3   force =   -11.95750138  190.32484631   21.97712258
     atom   12 type  3   force =   -11.95038192 -190.32570330  -21.97200930
     atom   13 type  3   force =   -12.10402444 -189.69263815   22.13361954
     atom   14 type  3   force =    14.11037770   10.26978461  -23.66102389
     atom   15 type  3   force =    13.67237534   10.73755281   23.19326803
     atom   16 type  3   force =    13.66054146  -10.73684061  -23.18125972
     atom   17 type  3   force =    14.11237425  -10.27445721   23.66289656
     atom   18 type  4   force =    -1.76685844   -8.68428343  -11.93561626
     atom   19 type  4   force =   -12.45066422    0.34019525  -20.77768045
     atom   20 type  4   force =   -12.44680017   -0.34363168   20.77024512
     atom   21 type  4   force =    12.12250226    0.34719886  -20.52048175
     atom   22 type  4   force =    12.11963082   -0.34726680   20.51592894
     atom   23 type  5   force =     2.60508916    0.00097645   -0.00556109
     The local contribution  to forces
     atom    1 type  1   force =     1.75715916   -8.28565124  -11.94109388
     atom    2 type  1   force =    17.62008612  -27.42094805   -0.14452411
     atom    3 type  1   force =    17.61591316   27.41888729    0.18211060
     atom    4 type  1   force =   -17.70888254  -26.67928163   -0.14181131
     atom    5 type  1   force =   -17.70427973   26.67955045    0.17729124
     atom    6 type  2   force =     1.81958666   -9.50405683   12.70999878
     atom    7 type  2   force =     1.81831049    9.51099110  -12.67935802
     atom    8 type  3   force =    21.52638325    0.00139172    0.01518851
     atom    9 type  3   force =   -19.42388474   -0.00254937    0.01047663
     atom   10 type  3   force =    11.99049772  -32.30272604   21.97306972
     atom   11 type  3   force =    11.83765180  -32.94376354  -21.82598132
     atom   12 type  3   force =    11.83393539   32.95118029   21.80490370
     atom   13 type  3   force =    11.99170334   32.29707529  -21.98404631
     atom   14 type  3   force =   -14.15989928   -9.86447120   23.63486995
     atom   15 type  3   force =   -13.66774918  -10.33295516  -23.12700982
     atom   16 type  3   force =   -13.65474591   10.34156840   23.10056855
     atom   17 type  3   force =   -14.16042133    9.85791582  -23.64576227
     atom   18 type  4   force =     1.67842534    8.60582069   12.02704559
     atom   19 type  4   force =    12.39301659   -0.34897358   20.75327763
     atom   20 type  4   force =    12.39385775    0.35656529  -20.76599349
     atom   21 type  4   force =   -12.04839871   -0.36633558   20.45616451
     atom   22 type  4   force =   -12.05039890    0.36847762  -20.46337969
     atom   23 type  5   force =    -2.17451703   -0.00094474    0.00533574
     The core correction contribution to forces
     atom    1 type  1   force =    -0.00377850   -0.02100705   -0.00200057
     atom    2 type  1   force =     0.01762861   -9.62571873    0.00194723
     atom    3 type  1   force =     0.01746307    9.62572323   -0.00109820
     atom    4 type  1   force =    -0.01427571   -9.61853501    0.00090806
     atom    5 type  1   force =    -0.01406218    9.61824123   -0.00092071
     atom    6 type  2   force =    -0.00519818   -0.00781767    0.00558858
     atom    7 type  2   force =    -0.00487657    0.00789644   -0.00513332
     atom    8 type  3   force =    -0.03127137    0.00062963    0.00025140
     atom    9 type  3   force =     0.01609217    0.00063414    0.00010562
     atom   10 type  3   force =     0.00511034   -5.12571638    0.00728077
     atom   11 type  3   force =     0.00393635   -5.12702309   -0.00806268
     atom   12 type  3   force =     0.00455050    5.12753979    0.00761899
     atom   13 type  3   force =     0.00552301    5.12496391   -0.00705366
     atom   14 type  3   force =     0.00906369    0.00509427   -0.00318586
     atom   15 type  3   force =     0.00539560    0.00399647    0.00117646
     atom   16 type  3   force =     0.00559903   -0.00415033   -0.00107435
     atom   17 type  3   force =     0.00924682   -0.00521762    0.00293625
     atom   18 type  4   force =    -0.00401954    0.00507432    0.00386155
     atom   19 type  4   force =    -0.00699795    0.00054416   -0.00668165
     atom   20 type  4   force =    -0.00685950   -0.00021404    0.00657532
     atom   21 type  4   force =     0.00745841   -0.00065941   -0.00560413
     atom   22 type  4   force =     0.00732577    0.00077264    0.00554200
     atom   23 type  5   force =     0.00000000    0.00000000    0.00000000
     The Hubbard contrib.    to forces
     atom    1 type  1   force =     0.00000000    0.00000000    0.00000000
     atom    2 type  1   force =     0.00000000    0.00000000    0.00000000
     atom    3 type  1   force =     0.00000000    0.00000000    0.00000000
     atom    4 type  1   force =     0.00000000    0.00000000    0.00000000
     atom    5 type  1   force =     0.00000000    0.00000000    0.00000000
     atom    6 type  2   force =     0.00000000    0.00000000    0.00000000
     atom    7 type  2   force =     0.00000000    0.00000000    0.00000000
     atom    8 type  3   force =     0.00000000    0.00000000    0.00000000
     atom    9 type  3   force =     0.00000000    0.00000000    0.00000000
     atom   10 type  3   force =     0.00000000    0.00000000    0.00000000
     atom   11 type  3   force =     0.00000000    0.00000000    0.00000000
     atom   12 type  3   force =     0.00000000    0.00000000    0.00000000
     atom   13 type  3   force =     0.00000000    0.00000000    0.00000000
     atom   14 type  3   force =     0.00000000    0.00000000    0.00000000
     atom   15 type  3   force =     0.00000000    0.00000000    0.00000000
     atom   16 type  3   force =     0.00000000    0.00000000    0.00000000
     atom   17 type  3   force =     0.00000000    0.00000000    0.00000000
     atom   18 type  4   force =     0.00000000    0.00000000    0.00000000
     atom   19 type  4   force =     0.00000000    0.00000000    0.00000000
     atom   20 type  4   force =     0.00000000    0.00000000    0.00000000
     atom   21 type  4   force =     0.00000000    0.00000000    0.00000000
     atom   22 type  4   force =     0.00000000    0.00000000    0.00000000
     atom   23 type  5   force =     0.00000000    0.00000000    0.00000000
     The SCF correction term to forces
     atom    1 type  1   force =    -0.00000000   -0.00000000   -0.00000000
     atom    2 type  1   force =     0.00000000    0.00000000   -0.00000000
     atom    3 type  1   force =     0.00000000    0.00000000   -0.00000000
     atom    4 type  1   force =    -0.00000000    0.00000000   -0.00000000
     atom    5 type  1   force =    -0.00000000    0.00000000   -0.00000000
     atom    6 type  2   force =    -0.00000000   -0.00000000   -0.00000000
     atom    7 type  2   force =     0.00000000    0.00000000   -0.00000000
     atom    8 type  3   force =     0.00000000   -0.00000000   -0.00000000
     atom    9 type  3   force =     0.00000000   -0.00000000   -0.00000000
     atom   10 type  3   force =     0.00000000    0.00000000    0.00000000
     atom   11 type  3   force =     0.00000000   -0.00000000    0.00000000
     atom   12 type  3   force =     0.00000000    0.00000000    0.00000000
     atom   13 type  3   force =     0.00000000    0.00000000    0.00000000
     atom   14 type  3   force =    -0.00533258   -0.02117621    0.00893779
     atom   15 type  3   force =    -0.00535481   -0.03323379    0.00562360
     atom   16 type  3   force =    -0.00203382    0.02914999    0.00364338
     atom   17 type  3   force =    -0.00757834    0.02668027    0.00188176
     atom   18 type  4   force =    -0.01184599   -0.00059235   -0.00295690
     atom   19 type  4   force =     0.00285618   -0.00197297    0.01001240
     atom   20 type  4   force =     0.00432594    0.00129196    0.00489406
     atom   21 type  4   force =    -0.00466124   -0.00556316    0.01183852
     atom   22 type  4   force =    -0.00512452    0.00442133   -0.00188572
     atom   23 type  5   force =    -0.00140690   -0.00011140   -0.00136969

     Total force =     0.517403     Total SCF correction =     0.062559
     SCF correction compared to forces is large: reduce conv_thr to get better values

     Entering Dynamics:    iteration =    10
                           time      =   0.0051 pico-seconds


ATOMIC_POSITIONS (angstrom)
Hf            1.8699999570        1.8699999570        7.0100002690    0   0   0
Hf            0.2000000000        0.2000000000        5.3399999140    0   0   0
Hf            0.2000000000        6.8799998280        5.3399999140    0   0   0
Hf            3.5399999140        0.2000000000        5.3399999140    0   0   0
Hf            3.5399999140        6.8799998280        5.3399999140    0   0   0
Nb            1.8699999570        1.8699999570        3.6699999570    0   0   0
Nb            1.8699999570        5.2100002690        7.0100002690    0   0   0
Ta            0.2000000000        3.5399999140        5.3399999140    0   0   0
Ta            3.5399999140        3.5399999140        5.3399999140    0   0   0
Ta            0.2000000000        0.2000000000        2.0000000000    0   0   0
Ta            0.2000000000        0.2000000000        8.6799998280    0   0   0
Ta            0.2000000000        6.8799998280        2.0000000000    0   0   0
Ta            0.2000000000        6.8799998280        8.6799998280    0   0   0
Ta            3.5409706464        1.0407446244        1.9988239821
Ta            3.5409889668        1.0407125771        8.6809602918
Ta            3.5410042247        6.0392984466        1.9989897967
Ta            3.5410088724        6.0392274012        8.6812139064
Zr            1.8691742122        5.2075168099        3.6704720079
Zr            0.2005537981        3.5394734370        2.0007090918
Zr            0.2006450833        3.5405752960        8.6792764070
Zr            3.5396025090        3.5395016153        2.0006208763
Zr            3.5395437443        3.5405289229        8.6793479886
H             5.1362176704        3.5407362942        5.3370705808


     kinetic energy (Ekin) =         111.61636383 Ry
     temperature           =     1174855.33523066 K 
     Ekin + Etot (const)   =       -2631.96318903 Ry

     The maximum number of steps has been reached.

     End of molecular dynamics calculation

     diffusion coefficients :
     atom     1   D =       0.00000000 cm^2/s
     atom     2   D =       0.00000000 cm^2/s
     atom     3   D =       0.00000000 cm^2/s
     atom     4   D =       0.00000000 cm^2/s
     atom     5   D =       0.00000000 cm^2/s
     atom     6   D =       0.00000000 cm^2/s
     atom     7   D =       0.00000000 cm^2/s
     atom     8   D =       0.00000000 cm^2/s
     atom     9   D =       0.00000000 cm^2/s
     atom    10   D =       0.00000000 cm^2/s
     atom    11   D =       0.00000000 cm^2/s
     atom    12   D =       0.00000000 cm^2/s
     atom    13   D =       0.00000000 cm^2/s
     atom    14   D =       0.00231923 cm^2/s
     atom    15   D =       0.00231905 cm^2/s
     atom    16   D =       0.00231899 cm^2/s
     atom    17   D =       0.00231938 cm^2/s
     atom    18   D =       0.00000002 cm^2/s
     atom    19   D =       0.00000000 cm^2/s
     atom    20   D =       0.00000000 cm^2/s
     atom    21   D =       0.00000000 cm^2/s
     atom    22   D =       0.00000000 cm^2/s
     atom    23   D =       0.00003041 cm^2/s

     < D > =       0.00093071 cm^2/s

     Writing all to output data dir outdir/pwscf.save/

     init_run     :     18.34s CPU     19.22s WALL (       1 calls)
     electrons    :   2117.48s CPU   2148.55s WALL (      10 calls)
     update_pot   :     17.93s CPU     17.98s WALL (       9 calls)
     forces       :    138.20s CPU    140.02s WALL (      10 calls)

     Called by init_run:
     wfcinit      :     13.88s CPU     14.04s WALL (       1 calls)
     potinit      :      0.94s CPU      1.02s WALL (       1 calls)
     hinit0       :      1.77s CPU      1.80s WALL (       1 calls)

     Called by electrons:
     c_bands      :   1728.06s CPU   1738.28s WALL (      62 calls)
     sum_band     :    273.58s CPU    285.06s WALL (      62 calls)
     v_of_rho     :     11.56s CPU     12.00s WALL (      72 calls)
     newd         :    121.04s CPU    131.35s WALL (      72 calls)
     mix_rho      :      0.96s CPU      0.99s WALL (      62 calls)

     Called by c_bands:
     init_us_2    :      2.71s CPU      2.74s WALL (     270 calls)
     init_us_2:cp :      2.71s CPU      2.74s WALL (     270 calls)
     regterg      :   1713.80s CPU   1723.96s WALL (     124 calls)

     Called by *egterg:
     rdiaghg      :     31.11s CPU     31.42s WALL (     749 calls)
     h_psi        :    694.12s CPU    701.44s WALL (     769 calls)
     s_psi        :    254.27s CPU    254.71s WALL (     769 calls)
     g_psi        :      0.57s CPU      0.58s WALL (     643 calls)

     Called by h_psi:
     h_psi:calbec :    331.88s CPU    332.51s WALL (     769 calls)
     vloc_psi     :    106.27s CPU    112.53s WALL (     769 calls)
     add_vuspsi   :    254.82s CPU    255.25s WALL (     769 calls)

     General routines
     calbec       :    535.85s CPU    536.84s WALL (     973 calls)
     fft          :     13.42s CPU     13.81s WALL (    1239 calls)
     ffts         :      0.23s CPU      0.25s WALL (      62 calls)
     fftw         :    110.81s CPU    117.10s WALL (   66570 calls)

     Parallel routines

     PWSCF        :  38m28.57s CPU  39m 4.17s WALL


   This run was terminated on:  15: 8:24   5Jun2023            

=------------------------------------------------------------------------------=
   JOB DONE.
=------------------------------------------------------------------------------=
