
     Program PWSCF v.7.2 starts on  6Jun2023 at 20: 3:37 

     This program is part of the open-source Quantum ESPRESSO suite
     for quantum simulation of materials; please cite
         "P. Giannozzi et al., J. Phys.:Condens. Matter 21 395502 (2009);
         "P. Giannozzi et al., J. Phys.:Condens. Matter 29 465901 (2017);
         "P. Giannozzi et al., J. Chem. Phys. 152 154105 (2020);
          URL http://www.quantum-espresso.org", 
     in publications or presentations arising from this work. More details at
     http://www.quantum-espresso.org/quote

     Parallel version (MPI), running on    12 processors

     MPI processes distributed on     1 nodes
     65468 MiB available memory on the printing compute node when the environment starts

     Reading input from md_Hf5Nb2Ta10Zr5H_15steps_1000eV_fix_bottom_layer_only.in
Warning: card &CELL ignored
Warning: card / ignored

     Current dimensions of program PWSCF are:
     Max number of different atomic species (ntypx) = 10
     Max number of k-points (npk) =  40000
     Max angular momentum in pseudopotentials (lmaxx) =  4

     File outdir/pwscf.md deleted, as requested

     gamma-point specific algorithms are used

     R & G space division:  proc/nbgrp/npool/nimage =      12
     Subspace diagonalization in iterative solution of the eigenvalue problem:
     one sub-group per band group will be used
     custom distributed-memory algorithm (size of sub-group:  2*  2 procs)


     Parallelization info
     --------------------
     sticks:   dense  smooth     PW     G-vecs:    dense   smooth      PW
     Min         821     821    205                73378    73378    9174
     Max         824     824    206                73388    73388    9178
     Sum        9871    9871   2471               880587   880587  110101

     Using Slab Decomposition



     bravais-lattice index     =            0
     lattice parameter (alat)  =      15.7603  a.u.
     unit-cell volume          =    4958.3580 (a.u.)^3
     number of atoms/cell      =           23
     number of atomic types    =            5
     number of electrons       =       277.00
     number of Kohn-Sham states=          167
     kinetic-energy cutoff     =     120.0000  Ry
     charge density cutoff     =     480.0000  Ry
     scf convergence threshold =      1.0E-03
     mixing beta               =       0.7000
     number of iterations used =            8  TF        mixing
     energy convergence thresh.=      0.0E+00
     force convergence thresh. =      0.0E+00
     Exchange-correlation=  SLA  PW   PBX  PBC
                           (   1   4   3   4   0   0   0)
     nstep                     =           15


     celldm(1)=  15.760315  celldm(2)=   0.000000  celldm(3)=   0.000000
     celldm(4)=   0.000000  celldm(5)=   0.000000  celldm(6)=   0.000000

     crystal axes: (cart. coord. in units of alat)
               a(1) = (   1.000000   0.000000   0.000000 )  
               a(2) = (   0.000000   1.040767   0.000000 )  
               a(3) = (   0.000000   0.000000   1.216997 )  

     reciprocal axes: (cart. coord. in units 2 pi/alat)
               b(1) = (  1.000000  0.000000  0.000000 )  
               b(2) = (  0.000000  0.960830  0.000000 )  
               b(3) = (  0.000000  0.000000  0.821695 )  


     PseudoPot. # 1 for Hf read from file:
     q-e/pseudo/hf_pbe_v1.uspp.F.UPF
     MD5 check sum: 8ee9378dfe14276e333edf04c5e4aa26
     Pseudo is Ultrasoft + core correction, Zval = 12.0
     Generated by new atomic code, or converted to UPF format
     Using radial grid of  921 points,  8 beta functions with: 
                l(1) =   0
                l(2) =   0
                l(3) =   0
                l(4) =   1
                l(5) =   1
                l(6) =   2
                l(7) =   2
                l(8) =   3
     Q(r) pseudized with  6 coefficients,  rinner =    1.200   1.200   1.200
                                                       1.200   1.200   1.200
                                                       1.200

     PseudoPot. # 2 for Nb read from file:
     q-e/pseudo/nb_pbe_v1.uspp.F.UPF
     MD5 check sum: 573aab8a2fa660278ed4a62cd769473f
     Pseudo is Ultrasoft + core correction, Zval = 13.0
     Generated by new atomic code, or converted to UPF format
     Using radial grid of  887 points,  6 beta functions with: 
                l(1) =   0
                l(2) =   0
                l(3) =   1
                l(4) =   1
                l(5) =   2
                l(6) =   2
     Q(r) pseudized with  6 coefficients,  rinner =    1.000   1.000   1.000
                                                       1.000   1.000

     PseudoPot. # 3 for Ta read from file:
     q-e/pseudo/ta_pbe_v1.uspp.F.UPF
     MD5 check sum: f8bbe9446314a3b8ea5d9f3e3836c939
     Pseudo is Ultrasoft + core correction, Zval = 13.0
     Generated by new atomic code, or converted to UPF format
     Using radial grid of  921 points,  7 beta functions with: 
                l(1) =   0
                l(2) =   0
                l(3) =   1
                l(4) =   1
                l(5) =   2
                l(6) =   2
                l(7) =   3
     Q(r) pseudized with  6 coefficients,  rinner =    1.300   1.300   1.300
                                                       1.300   1.300   1.300
                                                       1.300

     PseudoPot. # 4 for Zr read from file:
     q-e/pseudo/zr_pbe_v1.uspp.F.UPF
     MD5 check sum: 5db81b1e868ab7776c4564c113de050b
     Pseudo is Ultrasoft + core correction, Zval = 12.0
     Generated by new atomic code, or converted to UPF format
     Using radial grid of  887 points,  6 beta functions with: 
                l(1) =   0
                l(2) =   0
                l(3) =   1
                l(4) =   1
                l(5) =   2
                l(6) =   2
     Q(r) pseudized with  6 coefficients,  rinner =    1.200   1.200   1.200
                                                       1.200   1.200

     PseudoPot. # 5 for H  read from file:
     q-e/pseudo/h_pbe_v1.4.uspp.F.UPF
     MD5 check sum: 761ae9a214b05c3daf00ab9f6b793d6f
     Pseudo is Ultrasoft, Zval =  1.0
     Generated by new atomic code, or converted to UPF format
     Using radial grid of  615 points,  2 beta functions with: 
                l(1) =   0
                l(2) =   0
     Q(r) pseudized with  8 coefficients,  rinner =    0.700

     atomic species   valence    mass     pseudopotential
        Hf            12.00   178.49000     Hf( 1.00)
        Nb            13.00    92.90637     Nb( 1.00)
        Ta            13.00   180.94788     Ta( 1.00)
        Zr            12.00    91.22400     Zr( 1.00)
        H              1.00     2.01400     H ( 1.00)

     Starting magnetic structure 
     atomic species   magnetization
        Hf           0.000
        Nb           0.000
        Ta           0.000
        Zr           0.000
        H            0.000

     No symmetry found



   Cartesian axes

     site n.     atom                  positions (alat units)
         1           Hf  tau(   1) = (   0.3201439   0.3389836   0.7918423  )
         2           Hf  tau(   2) = (   0.1502387   0.1542307   0.6065307  )
         3           Hf  tau(   3) = (   0.1505380   0.8860677   0.6100801  )
         4           Hf  tau(   4) = (   0.4900491   0.1542307   0.6065307  )
         5           Hf  tau(   5) = (   0.4897498   0.8860677   0.6100801  )
         6           Nb  tau(   6) = (   0.3201439   0.3353634   0.4215328  )
         7           Nb  tau(   7) = (   0.3201439   0.7046018   0.7955633  )
         8           Ta  tau(   8) = (   0.1450088   0.5204950   0.6080487  )
         9           Ta  tau(   9) = (   0.4952790   0.5204950   0.6080487  )
        10           Ta  tau(  10) = (   0.1567449   0.1575687   0.2468560  )
        11           Ta  tau(  11) = (   0.1562096   0.1568814   0.9705731  )
        12           Ta  tau(  12) = (   0.1563561   0.8843917   0.2453522  )
        13           Ta  tau(  13) = (   0.1567999   0.8831035   0.9695447  )
        14           Ta  tau(  14) = (   0.4835429   0.1575687   0.2468560  )
        15           Ta  tau(  15) = (   0.4840781   0.1568814   0.9705731  )
        16           Ta  tau(  16) = (   0.4839317   0.8843917   0.2453522  )
        17           Ta  tau(  17) = (   0.4834879   0.8831035   0.9695447  )
        18           Zr  tau(  18) = (   0.3201439   0.7033916   0.4229477  )
        19           Zr  tau(  19) = (   0.1491408   0.5182348   0.2398082  )
        20           Zr  tau(  20) = (   0.1487273   0.5220772   0.9771889  )
        21           Zr  tau(  21) = (   0.4911469   0.5182348   0.2398082  )
        22           Zr  tau(  22) = (   0.4915605   0.5220772   0.9771889  )
        23           H   tau(  23) = (   0.6751351   0.5203837   0.6081751  )

     number of k points=     1  Gaussian smearing, width (Ry)=  0.0220
                       cart. coord. in units 2pi/alat
        k(    1) = (   0.0000000   0.0000000   0.0000000), wk =   1.0000000

     Dense  grid:   440294 G-vectors     FFT dimensions: ( 120, 120, 135)

     Estimated max dynamical RAM per process >     369.12 MB

     Estimated total dynamical RAM >       4.33 GB

     Check: negative core charge=   -0.000002
     Generating pointlists ...
     new r_m :   0.1251 (alat units)  1.9717 (a.u.) for type    1
     new r_m :   0.1229 (alat units)  1.9374 (a.u.) for type    2
     new r_m :   0.0742 (alat units)  1.1693 (a.u.) for type    3
     new r_m :   0.1245 (alat units)  1.9625 (a.u.) for type    4
     new r_m :   0.0742 (alat units)  1.1693 (a.u.) for type    5

     Initial potential from superposition of free atoms

     starting charge     266.9726, renormalised to     277.0000

     negative rho (up, down):  9.206E-01 9.206E-01
     Starting wfcs are  287 randomized atomic wfcs

     total cpu time spent up to now is       30.5 secs

     Self-consistent Calculation

     iteration #  1     ecut=   120.00 Ry     beta= 0.70
     Davidson diagonalization with overlap
     ethr =  1.00E-02,  avg # of iterations =  3.0

     negative rho (up, down):  9.825E-01 9.822E-01

     total cpu time spent up to now is       81.0 secs

     total energy              =   -2932.09787611 Ry
     estimated scf accuracy    <     291.81665252 Ry

     total magnetization       =    -0.00 Bohr mag/cell
     absolute magnetization    =     0.08 Bohr mag/cell

     iteration #  2     ecut=   120.00 Ry     beta= 0.70
     Davidson diagonalization with overlap
     ethr =  1.00E-02,  avg # of iterations =  4.0

     negative rho (up, down):  9.369E-01 9.356E-01

     total cpu time spent up to now is      132.6 secs

     total energy              =   -2942.06874578 Ry
     estimated scf accuracy    <      36.66300283 Ry

     total magnetization       =     0.00 Bohr mag/cell
     absolute magnetization    =     0.14 Bohr mag/cell

     iteration #  3     ecut=   120.00 Ry     beta= 0.70
     Davidson diagonalization with overlap
     ethr =  1.00E-02,  avg # of iterations =  3.0

     negative rho (up, down):  9.663E-01 9.644E-01

     total cpu time spent up to now is      177.6 secs

     total energy              =   -2942.61255661 Ry
     estimated scf accuracy    <      15.37982620 Ry

     total magnetization       =    -0.02 Bohr mag/cell
     absolute magnetization    =     0.19 Bohr mag/cell

     iteration #  4     ecut=   120.00 Ry     beta= 0.70
     Davidson diagonalization with overlap
     ethr =  5.55E-03,  avg # of iterations =  3.0

     negative rho (up, down):  9.611E-01 9.597E-01

     total cpu time spent up to now is      220.4 secs

     total energy              =   -2942.85582914 Ry
     estimated scf accuracy    <       3.36190410 Ry

     total magnetization       =     0.03 Bohr mag/cell
     absolute magnetization    =     0.33 Bohr mag/cell

     iteration #  5     ecut=   120.00 Ry     beta= 0.70
     Davidson diagonalization with overlap
     ethr =  1.21E-03,  avg # of iterations =  6.5

     negative rho (up, down):  9.369E-01 9.359E-01

     total cpu time spent up to now is      271.0 secs

     total energy              =   -2943.00181240 Ry
     estimated scf accuracy    <       1.65203545 Ry

     total magnetization       =     0.03 Bohr mag/cell
     absolute magnetization    =     0.20 Bohr mag/cell

     iteration #  6     ecut=   120.00 Ry     beta= 0.70
     Davidson diagonalization with overlap
     ethr =  5.96E-04,  avg # of iterations =  2.0

     negative rho (up, down):  9.239E-01 9.234E-01

     total cpu time spent up to now is      313.8 secs

     total energy              =   -2943.00428502 Ry
     estimated scf accuracy    <       1.08129351 Ry

     total magnetization       =     0.01 Bohr mag/cell
     absolute magnetization    =     0.15 Bohr mag/cell

     iteration #  7     ecut=   120.00 Ry     beta= 0.70
     Davidson diagonalization with overlap
     ethr =  3.90E-04,  avg # of iterations =  2.0

     negative rho (up, down):  9.085E-01 9.084E-01

     total cpu time spent up to now is      356.1 secs

     total energy              =   -2942.98709709 Ry
     estimated scf accuracy    <       0.27992515 Ry

     total magnetization       =     0.02 Bohr mag/cell
     absolute magnetization    =     0.16 Bohr mag/cell

     iteration #  8     ecut=   120.00 Ry     beta= 0.70
     Davidson diagonalization with overlap
     ethr =  1.01E-04,  avg # of iterations = 13.5

     negative rho (up, down):  9.048E-01 9.048E-01

     total cpu time spent up to now is      413.4 secs

     total energy              =   -2942.98835689 Ry
     estimated scf accuracy    <       0.23542898 Ry

     total magnetization       =     0.02 Bohr mag/cell
     absolute magnetization    =     0.12 Bohr mag/cell

     iteration #  9     ecut=   120.00 Ry     beta= 0.70
     Davidson diagonalization with overlap
     ethr =  8.50E-05,  avg # of iterations =  2.0

     negative rho (up, down):  9.060E-01 9.060E-01

     total cpu time spent up to now is      464.1 secs

     total energy              =   -2942.99784426 Ry
     estimated scf accuracy    <       0.05698759 Ry

     total magnetization       =     0.01 Bohr mag/cell
     absolute magnetization    =     0.09 Bohr mag/cell

     iteration # 10     ecut=   120.00 Ry     beta= 0.70
     Davidson diagonalization with overlap
     ethr =  2.06E-05,  avg # of iterations =  8.5

     negative rho (up, down):  9.069E-01 9.069E-01

     total cpu time spent up to now is      522.1 secs

     total energy              =   -2943.00237879 Ry
     estimated scf accuracy    <       0.02867001 Ry

     total magnetization       =     0.00 Bohr mag/cell
     absolute magnetization    =     0.08 Bohr mag/cell

     iteration # 11     ecut=   120.00 Ry     beta= 0.70
     Davidson diagonalization with overlap
     ethr =  1.04E-05,  avg # of iterations =  4.0

     negative rho (up, down):  9.077E-01 9.077E-01

     total cpu time spent up to now is      570.0 secs

     total energy              =   -2943.00460001 Ry
     estimated scf accuracy    <       0.00513755 Ry

     total magnetization       =     0.00 Bohr mag/cell
     absolute magnetization    =     0.07 Bohr mag/cell

     iteration # 12     ecut=   120.00 Ry     beta= 0.70
     Davidson diagonalization with overlap
     ethr =  1.85E-06,  avg # of iterations = 12.0

     negative rho (up, down):  9.078E-01 9.078E-01

     Magnetic moment per site  (integrated on atomic sphere of radius R)
     atom   1 (R=0.125)  charge=  9.4607  magn= -0.0000
     atom   2 (R=0.125)  charge=  9.0586  magn=  0.0003
     atom   3 (R=0.125)  charge=  9.0582  magn=  0.0000
     atom   4 (R=0.125)  charge=  9.0565  magn=  0.0003
     atom   5 (R=0.125)  charge=  9.0561  magn= -0.0002
     atom   6 (R=0.123)  charge= 10.3453  magn= -0.0000
     atom   7 (R=0.123)  charge= 10.3469  magn= -0.0001
     atom   8 (R=0.074)  charge=  5.2336  magn=  0.0001
     atom   9 (R=0.074)  charge=  5.2523  magn=  0.0001
     atom  10 (R=0.074)  charge=  5.2165  magn=  0.0002
     atom  11 (R=0.074)  charge=  5.2160  magn=  0.0001
     atom  12 (R=0.074)  charge=  5.2167  magn= -0.0002
     atom  13 (R=0.074)  charge=  5.2164  magn= -0.0003
     atom  14 (R=0.074)  charge=  5.2164  magn=  0.0004
     atom  15 (R=0.074)  charge=  5.2162  magn=  0.0001
     atom  16 (R=0.074)  charge=  5.2177  magn= -0.0005
     atom  17 (R=0.074)  charge=  5.2156  magn= -0.0003
     atom  18 (R=0.125)  charge=  9.4559  magn= -0.0001
     atom  19 (R=0.125)  charge=  9.0006  magn=  0.0016
     atom  20 (R=0.125)  charge=  8.9992  magn= -0.0017
     atom  21 (R=0.125)  charge=  8.9970  magn=  0.0014
     atom  22 (R=0.125)  charge=  8.9971  magn= -0.0014
     atom  23 (R=0.074)  charge=  0.8828  magn=  0.0000

     total cpu time spent up to now is      635.8 secs

     End of self-consistent calculation

 ------ SPIN UP ------------


          k = 0.0000 0.0000 0.0000 ( 55051 PWs)   bands (ev):

   -59.4835 -59.4792 -59.4383 -59.4341 -59.4051 -59.4005 -59.3613 -59.3568
   -59.2289 -58.7539 -53.0943 -53.0370 -52.9704 -52.9136 -51.3633 -44.9047
   -44.9022 -40.3153 -40.3042 -40.2129 -40.2093 -38.4707 -26.4831 -26.4774
   -26.3989 -26.3897 -26.3024 -26.2977 -26.1788 -26.1696 -26.0539 -26.0250
   -25.9890 -25.9612 -25.9542 -25.9266 -25.9161 -25.8665 -25.8562 -25.8353
   -25.7983 -25.6685 -25.6644 -25.6535 -25.6450 -25.5915 -25.5874 -25.5689
   -25.5657 -25.5010 -25.4764 -25.4288 -22.8717 -22.6621 -22.3480 -22.2720
   -22.0102 -21.8682 -21.8452 -21.7436 -21.6277 -21.5586 -21.5419 -21.3266
   -21.1531 -21.1059 -21.0626 -21.0112 -20.9555 -20.8982 -20.4339 -20.3630
   -20.2984 -18.8783 -18.5973 -18.5243 -18.5043 -18.2909 -18.2830 -18.2623
   -18.2540 -18.2470 -18.2047 -18.0442 -18.0304 -16.8211 -16.6133 -16.4934
     2.7024   3.9277   4.2250   4.4616   4.6068   4.8257   4.8418   4.9452
     5.0337   5.2292   5.2491   5.4660   5.5984   5.8092   5.9085   5.9973
     6.0814   6.0985   6.3459   6.3476   6.4227   6.5675   6.6145   6.6407
     6.7071   6.8613   6.8944   7.0087   7.0474   7.0546   7.0759   7.1150
     7.2330   7.4581   7.4708   7.5630   7.5758   7.6167   7.6574   7.6941
     7.8737   7.9052   7.9327   8.0292   8.1794   8.2806   8.3166   8.3318
     8.4573   8.5184   8.6027   8.6178   8.6321   8.8290   8.8546   8.8570
     8.9144   8.9597   9.1873   9.2622   9.3627   9.3828   9.5708   9.6158
     9.6389   9.6444   9.6715   9.6872   9.7390   9.8871  10.0106  10.0887
    10.1450  10.2455  10.3742  10.4208  10.4283  10.5556  10.5777

 ------ SPIN DOWN ----------


          k = 0.0000 0.0000 0.0000 ( 55051 PWs)   bands (ev):

   -59.4835 -59.4798 -59.4383 -59.4347 -59.4057 -59.4005 -59.3619 -59.3568
   -59.2283 -58.7534 -53.0942 -53.0368 -52.9703 -52.9134 -51.3633 -44.9042
   -44.9020 -40.3143 -40.3057 -40.2146 -40.2082 -38.4706 -26.4833 -26.4776
   -26.3991 -26.3900 -26.3025 -26.2980 -26.1788 -26.1703 -26.0539 -26.0254
   -25.9891 -25.9612 -25.9549 -25.9271 -25.9169 -25.8666 -25.8568 -25.8351
   -25.7976 -25.6685 -25.6652 -25.6536 -25.6453 -25.5916 -25.5879 -25.5693
   -25.5660 -25.5005 -25.4759 -25.4281 -22.8714 -22.6617 -22.3480 -22.2719
   -22.0099 -21.8679 -21.8450 -21.7434 -21.6274 -21.5583 -21.5416 -21.3262
   -21.1529 -21.1057 -21.0625 -21.0110 -20.9551 -20.8979 -20.4340 -20.3630
   -20.2984 -18.8766 -18.6004 -18.5223 -18.5029 -18.2913 -18.2834 -18.2633
   -18.2551 -18.2478 -18.2064 -18.0423 -18.0328 -16.8212 -16.6129 -16.4931
     2.7028   3.9277   4.2249   4.4619   4.6081   4.8256   4.8416   4.9451
     5.0346   5.2293   5.2488   5.4661   5.5984   5.8096   5.9088   5.9973
     6.0817   6.0983   6.3459   6.3476   6.4226   6.5676   6.6138   6.6409
     6.7071   6.8612   6.8949   7.0085   7.0471   7.0548   7.0757   7.1158
     7.2324   7.4580   7.4709   7.5626   7.5761   7.6169   7.6575   7.6945
     7.8736   7.9047   7.9324   8.0288   8.1795   8.2815   8.3168   8.3303
     8.4575   8.5186   8.6021   8.6177   8.6320   8.8293   8.8542   8.8568
     8.9137   8.9596   9.1875   9.2628   9.3626   9.3824   9.5708   9.6156
     9.6387   9.6447   9.6713   9.6876   9.7395   9.8871  10.0101  10.0885
    10.1449  10.2450  10.3732  10.4206  10.4276  10.5558  10.5775

     the Fermi energy is     8.5676 ev

!    total energy              =   -2943.00591118 Ry
     estimated scf accuracy    <       0.00075727 Ry
     smearing contrib. (-TS)   =      -0.10128077 Ry
     internal energy E=F+TS    =   -2942.90463041 Ry

     total magnetization       =    -0.00 Bohr mag/cell
     absolute magnetization    =     0.05 Bohr mag/cell

     convergence has been achieved in  12 iterations

     negative rho (up, down):  9.078E-01 9.078E-01

     Forces acting on atoms (cartesian axes, Ry/au):

     atom    1 type  1   force =    -0.00995053   -0.02772771    0.01245311
     atom    2 type  1   force =    -0.12221735   -0.01735409   -0.00125435
     atom    3 type  1   force =    -0.12040823    0.01387524    0.00187895
     atom    4 type  1   force =     0.12307570   -0.01857750   -0.00274443
     atom    5 type  1   force =     0.12142901    0.01557916    0.00278265
     atom    6 type  2   force =    -0.00914113   -0.01722345    0.00423305
     atom    7 type  2   force =    -0.00921555    0.01536975   -0.00285352
     atom    8 type  3   force =    -0.13943856    0.00405641   -0.00409819
     atom    9 type  3   force =    -0.09496072    0.00330600   -0.00497508
     atom   10 type  3   force =    -0.02482911   -0.03034666   -0.05850174
     atom   11 type  3   force =    -0.02310057   -0.03636282    0.05595841
     atom   12 type  3   force =    -0.01901730    0.03514314   -0.05485305
     atom   13 type  3   force =    -0.02060764    0.02970272    0.05922167
     atom   14 type  3   force =     0.02664497   -0.03080185   -0.05665088
     atom   15 type  3   force =     0.02428627   -0.03365624    0.05270489
     atom   16 type  3   force =     0.02028440    0.03386744   -0.05130476
     atom   17 type  3   force =     0.02181169    0.02950423    0.05719784
     atom   18 type  4   force =    -0.01046415    0.02672334   -0.01527948
     atom   19 type  4   force =    -0.13618181   -0.00300895   -0.11377452
     atom   20 type  4   force =    -0.13914613    0.00590371    0.11678627
     atom   21 type  4   force =     0.13681088   -0.00424395   -0.11854024
     atom   22 type  4   force =     0.13975388    0.00650100    0.12071221
     atom   23 type  5   force =     0.26458199   -0.00022893    0.00090119
     The non-local contrib.  to forces
     atom    1 type  1   force =    -0.00675449   -0.01886951    0.03411562
     atom    2 type  1   force =    -0.24409374   -0.16487278    0.01850715
     atom    3 type  1   force =    -0.23841924    0.15930001   -0.02827194
     atom    4 type  1   force =     0.25825736   -0.16087197    0.01684928
     atom    5 type  1   force =     0.25284602    0.15551885   -0.02766157
     atom    6 type  2   force =    -0.00888286   -0.06007829   -0.07087519
     atom    7 type  2   force =    -0.01015348    0.07133083    0.06359089
     atom    8 type  3   force =    -0.26933141    0.00049679   -0.00505183
     atom    9 type  3   force =    -0.06100994    0.00127706   -0.00673915
     atom   10 type  3   force =    -0.21831640    0.00679081   -0.21141258
     atom   11 type  3   force =    -0.22265043    0.00785719    0.20098630
     atom   12 type  3   force =    -0.20421070   -0.02125848   -0.18523873
     atom   13 type  3   force =    -0.21417872   -0.00669681    0.21061924
     atom   14 type  3   force =     0.21997153    0.00358895   -0.21299995
     atom   15 type  3   force =     0.22447193    0.00884056    0.20163100
     atom   16 type  3   force =     0.20529947   -0.02032296   -0.18586430
     atom   17 type  3   force =     0.21457126   -0.00442246    0.21232418
     atom   18 type  4   force =    -0.01079249    0.06662407   -0.06878629
     atom   19 type  4   force =     0.06952316    0.00823401    0.06518363
     atom   20 type  4   force =     0.06452744   -0.00966863   -0.05926281
     atom   21 type  4   force =    -0.06653092    0.00769741    0.06774733
     atom   22 type  4   force =    -0.06204638   -0.00949116   -0.06212926
     atom   23 type  5   force =    -0.10039927    0.00003843    0.00007306
     The ionic contribution  to forces
     atom    1 type  1   force =    -0.24768728   -4.75281381   14.44854351
     atom    2 type  1   force =   -34.49625394   -6.24608621    0.77897172
     atom    3 type  1   force =   -34.47877231    6.23232259   -0.71247644
     atom    4 type  1   force =    34.30682273   -6.48352303    0.77770459
     atom    5 type  1   force =    34.28833849    6.47031599   -0.71100486
     atom    6 type  2   force =    -0.26169896   -3.72140580  -14.38243299
     atom    7 type  2   force =    -0.26172725    3.75740632   14.41618489
     atom    8 type  3   force =   -46.17661811    0.07250906   -0.06585871
     atom    9 type  3   force =    43.13987372    0.07433966   -0.06794179
     atom   10 type  3   force =   -31.09913046   -2.14726556  -23.64568899
     atom   11 type  3   force =   -30.16771256   -0.89464002   22.64765206
     atom   12 type  3   force =   -30.28327514    0.84284555  -22.69590239
     atom   13 type  3   force =   -31.07556260    2.23383566   23.62832406
     atom   14 type  3   force =    31.02319869   -2.20609484  -23.71967923
     atom   15 type  3   force =    30.09267973   -0.95295237   22.72122415
     atom   16 type  3   force =    30.20842294    0.90077631  -22.76910157
     atom   17 type  3   force =    30.99958542    2.29266377   23.70231771
     atom   18 type  4   force =    -0.24473043    4.51989144  -14.30817241
     atom   19 type  4   force =   -31.10349444    0.96129748  -26.14177245
     atom   20 type  4   force =   -31.07500870   -0.95698037   26.12018806
     atom   21 type  4   force =    30.92883452    0.95976936  -26.39908372
     atom   22 type  4   force =    30.90171665   -0.95578085   26.37685893
     atom   23 type  5   force =     5.08219928   -0.00043034    0.00114588
     The local contribution  to forces
     atom    1 type  1   force =     0.23865289    4.74152632  -14.47769677
     atom    2 type  1   force =    34.62590484    6.39124841   -0.79851957
     atom    3 type  1   force =    34.60595647   -6.37907793    0.74147965
     atom    4 type  1   force =   -34.45101056    6.61824977   -0.79761715
     atom    5 type  1   force =   -34.43039282   -6.60599229    0.73959410
     atom    6 type  2   force =     0.25390939    3.77002014   14.47040409
     atom    7 type  2   force =     0.25463231   -3.81667976  -14.49495341
     atom    8 type  3   force =    46.31974315   -0.06568849    0.06251975
     atom    9 type  3   force =   -43.16813072   -0.06929175    0.06586642
     atom   10 type  3   force =    31.30656781    2.09478393   23.81738048
     atom   11 type  3   force =    30.38820426    0.83651040  -22.81563055
     atom   12 type  3   force =    30.48882940   -0.77762442   22.84294335
     atom   13 type  3   force =    31.28543567   -2.18654461  -23.79612054
     atom   14 type  3   force =   -31.23071867    2.15175060   23.89236242
     atom   15 type  3   force =   -30.31486213    0.89627812  -22.89080122
     atom   16 type  3   force =   -30.41437443   -0.83214468   22.91814361
     atom   17 type  3   force =   -31.21156496   -2.24515194  -23.87149137
     atom   18 type  4   force =     0.23772880   -4.56005423   14.36779825
     atom   19 type  4   force =    30.90062314   -0.96696516   25.97428942
     atom   20 type  4   force =    30.87620092    0.97437556  -25.95154341
     atom   21 type  4   force =   -30.73078843   -0.96704611   26.21848085
     atom   22 type  4   force =   -30.70626482    0.97160030  -26.19670049
     atom   23 type  5   force =    -4.71589711    0.00023911   -0.00059814
     The core correction contribution to forces
     atom    1 type  1   force =     0.00101029    0.00303701   -0.00146912
     atom    2 type  1   force =    -0.01187389   -0.00152842    0.00089119
     atom    3 type  1   force =    -0.01209845    0.00233886   -0.00160463
     atom    4 type  1   force =     0.01232485   -0.00168998    0.00095563
     atom    5 type  1   force =     0.01241218    0.00249890   -0.00180161
     atom    6 type  2   force =     0.00026020    0.00266504    0.00271152
     atom    7 type  2   force =     0.00031719   -0.00324334   -0.00218326
     atom    8 type  3   force =    -0.03115632    0.00037196   -0.00058791
     atom    9 type  3   force =     0.00142157    0.00006569   -0.00046752
     atom   10 type  3   force =    -0.02220206    0.00881925   -0.01636184
     atom   11 type  3   force =    -0.02401070    0.00919111    0.01719980
     atom   12 type  3   force =    -0.02224162   -0.00912840   -0.01594391
     atom   13 type  3   force =    -0.02213579   -0.00835704    0.01690049
     atom   14 type  3   force =     0.02338999    0.00983193   -0.01468303
     atom   15 type  3   force =     0.02474635    0.01089477    0.01535657
     atom   16 type  3   force =     0.02291985   -0.01083256   -0.01398269
     atom   17 type  3   force =     0.02308354   -0.00951815    0.01513591
     atom   18 type  4   force =     0.00043112   -0.00358230    0.00332020
     atom   19 type  4   force =    -0.01027463    0.00016727   -0.00903091
     atom   20 type  4   force =    -0.01010328    0.00013478    0.00889187
     atom   21 type  4   force =     0.01034405    0.00019248   -0.00915716
     atom   22 type  4   force =     0.01019213    0.00011228    0.00901458
     atom   23 type  5   force =     0.00000000    0.00000000    0.00000000
     The Hubbard contrib.    to forces
     atom    1 type  1   force =     0.00000000    0.00000000    0.00000000
     atom    2 type  1   force =     0.00000000    0.00000000    0.00000000
     atom    3 type  1   force =     0.00000000    0.00000000    0.00000000
     atom    4 type  1   force =     0.00000000    0.00000000    0.00000000
     atom    5 type  1   force =     0.00000000    0.00000000    0.00000000
     atom    6 type  2   force =     0.00000000    0.00000000    0.00000000
     atom    7 type  2   force =     0.00000000    0.00000000    0.00000000
     atom    8 type  3   force =     0.00000000    0.00000000    0.00000000
     atom    9 type  3   force =     0.00000000    0.00000000    0.00000000
     atom   10 type  3   force =     0.00000000    0.00000000    0.00000000
     atom   11 type  3   force =     0.00000000    0.00000000    0.00000000
     atom   12 type  3   force =     0.00000000    0.00000000    0.00000000
     atom   13 type  3   force =     0.00000000    0.00000000    0.00000000
     atom   14 type  3   force =     0.00000000    0.00000000    0.00000000
     atom   15 type  3   force =     0.00000000    0.00000000    0.00000000
     atom   16 type  3   force =     0.00000000    0.00000000    0.00000000
     atom   17 type  3   force =     0.00000000    0.00000000    0.00000000
     atom   18 type  4   force =     0.00000000    0.00000000    0.00000000
     atom   19 type  4   force =     0.00000000    0.00000000    0.00000000
     atom   20 type  4   force =     0.00000000    0.00000000    0.00000000
     atom   21 type  4   force =     0.00000000    0.00000000    0.00000000
     atom   22 type  4   force =     0.00000000    0.00000000    0.00000000
     atom   23 type  5   force =     0.00000000    0.00000000    0.00000000
     The SCF correction term to forces
     atom    1 type  1   force =     0.00000000   -0.00000000    0.00000000
     atom    2 type  1   force =     0.00384303    0.00381989   -0.00116893
     atom    3 type  1   force =     0.00266894   -0.00107331    0.00268824
     atom    4 type  1   force =    -0.00357504    0.00919269   -0.00070086
     atom    5 type  1   force =    -0.00203121   -0.00682731    0.00359251
     atom    6 type  2   force =     0.00701474   -0.00848956   -0.01563846
     atom    7 type  2   force =     0.00745932    0.00649069    0.01444329
     atom    8 type  3   force =     0.01766776   -0.00369794    0.00481643
     atom    9 type  3   force =    -0.00737171   -0.00314968    0.00424287
     atom   10 type  3   force =     0.00799563    0.00645989   -0.00248289
     atom   11 type  3   force =     0.00281250    0.00465347    0.00568671
     atom   12 type  3   force =     0.00162441    0.00024388   -0.00077545
     atom   13 type  3   force =     0.00557744   -0.00259949   -0.00056567
     atom   14 type  3   force =    -0.00945294    0.01005650   -0.00171516
     atom   15 type  3   force =    -0.00300598    0.00321766    0.00523031
     atom   16 type  3   force =    -0.00223979   -0.00367369   -0.00056388
     atom   17 type  3   force =    -0.00411993   -0.00413201   -0.00115267
     atom   18 type  4   force =     0.00664249    0.00377935   -0.00950330
     atom   19 type  4   force =     0.00718460   -0.00580757   -0.00250828
     atom   20 type  4   force =     0.00498113   -0.00202264   -0.00155151
     atom   21 type  4   force =    -0.00530471   -0.00492211    0.00340837
     atom   22 type  4   force =    -0.00410008   -0.00000459   -0.00639562
     atom   23 type  5   force =    -0.00157727   -0.00014115    0.00021631

     Total force =     0.574246     Total SCF correction =     0.047082

     Molecular Dynamics Calculation

     Starting temperature  =   300.00 K

     temperature is set once at start

     mass Hf               =   178.49
     mass Nb               =    92.91
     mass Ta               =   180.95
     mass Zr               =    91.22
     mass H                =     2.01
     Time step             =     4.20 a.u.,  0.2032 femto-seconds

     Entering Dynamics:    iteration =     1
                           time      =   0.0002 pico-seconds


ATOMIC_POSITIONS (angstrom)
Hf            2.6699999570        2.8271230292        6.6039642186    0   0   0
Hf            1.2529871738        1.2862836835        5.0584661901
Hf            1.2554834441        7.3898046929        5.0880678213
Hf            4.0870127648        1.2862836484        5.0584661474
Hf            4.0845164992        7.3898047418        5.0880678472
Nb            2.6699994532        2.7969296562        3.5155834500
Nb            2.6699994491        5.8763795235        6.6349977859
Ta            1.2093691099        4.3409279664        5.0711257163
Ta            4.1306241706        4.3409279452        5.0711256915
Ta            1.3072519814        1.3141217306        2.0587774545
Ta            1.3027876605        1.3083901069        8.0945807860
Ta            1.3040090839        7.3758271187        2.0462356275
Ta            1.3077102152        7.3650837890        8.0860038968
Ta            4.0327479840        1.3141217177        2.0587775069
Ta            4.0372122871        1.3083901835        8.0945806939
Ta            4.0359908659        7.3758270825        2.0462357279
Ta            4.0322897329        7.3650837834        8.0860038395
Zr            2.6699993696        5.8662873435        3.5273830727
Zr            1.2438269745        4.3220777956        1.9999936133
Zr            1.2403776018        4.3541236159        8.1497621050
Zr            4.0961729748        4.3220777263        1.9999933458
Zr            4.0996223463        4.3541236494        8.1497623254
H             5.3168317964        4.3399993681        5.0721820862


     kinetic energy (Ekin) =          18.37431130 Ry
     temperature           =       87911.34250823 K 
     Ekin + Etot (const)   =       -2924.63159988 Ry

     File outdir/pwscf.msd.dat deleted, as requested

     Writing config-only to output data dir outdir/pwscf.save/
     NEW-OLD atomic charge density approx. for the potential

     Check: negative core charge=   -0.000002

     negative rho (up, down):  9.074E-01 9.074E-01
     Generating pointlists ...
     new r_m :   0.0587 (alat units)  0.9247 (a.u.) for type    3
     new r_m :   0.0587 (alat units)  0.9247 (a.u.) for type    5

     total cpu time spent up to now is      661.3 secs

     Self-consistent Calculation

     iteration #  1     ecut=   120.00 Ry     beta= 0.70
     Davidson diagonalization with overlap
     c_bands:  1 eigenvalues not converged
     c_bands:  1 eigenvalues not converged
     ethr =  1.00E-06,  avg # of iterations = 20.0

     negative rho (up, down):  9.077E-01 9.077E-01

     total cpu time spent up to now is      752.9 secs

     total energy              =   -2942.64489480 Ry
     estimated scf accuracy    <       0.13886122 Ry

     total magnetization       =    -0.00 Bohr mag/cell
     absolute magnetization    =     0.04 Bohr mag/cell

     iteration #  2     ecut=   120.00 Ry     beta= 0.70
     Davidson diagonalization with overlap
     ethr =  5.01E-05,  avg # of iterations =  3.0

     negative rho (up, down):  9.074E-01 9.074E-01

     total cpu time spent up to now is      796.4 secs

     total energy              =   -2942.66617059 Ry
     estimated scf accuracy    <       0.03553955 Ry

     total magnetization       =    -0.00 Bohr mag/cell
     absolute magnetization    =     0.04 Bohr mag/cell

     iteration #  3     ecut=   120.00 Ry     beta= 0.70
     Davidson diagonalization with overlap
     ethr =  1.28E-05,  avg # of iterations =  2.0

     negative rho (up, down):  9.071E-01 9.071E-01

     total cpu time spent up to now is      837.2 secs

     total energy              =   -2942.66756102 Ry
     estimated scf accuracy    <       0.00463036 Ry

     total magnetization       =    -0.00 Bohr mag/cell
     absolute magnetization    =     0.04 Bohr mag/cell

     iteration #  4     ecut=   120.00 Ry     beta= 0.70
     Davidson diagonalization with overlap
     ethr =  1.67E-06,  avg # of iterations = 13.5

     negative rho (up, down):  9.070E-01 9.070E-01

     total cpu time spent up to now is      883.4 secs

     total energy              =   -2942.66789827 Ry
     estimated scf accuracy    <       0.00115604 Ry

     total magnetization       =    -0.00 Bohr mag/cell
     absolute magnetization    =     0.03 Bohr mag/cell

     iteration #  5     ecut=   120.00 Ry     beta= 0.70
     Davidson diagonalization with overlap
     ethr =  4.17E-07,  avg # of iterations =  2.0

     negative rho (up, down):  9.070E-01 9.070E-01

     Magnetic moment per site  (integrated on atomic sphere of radius R)
     atom   1 (R=0.125)  charge=  9.4624  magn=  0.0001
     atom   2 (R=0.125)  charge=  9.0572  magn=  0.0000
     atom   3 (R=0.125)  charge=  9.0576  magn= -0.0000
     atom   4 (R=0.125)  charge=  9.0538  magn=  0.0001
     atom   5 (R=0.125)  charge=  9.0546  magn= -0.0000
     atom   6 (R=0.123)  charge= 10.3513  magn= -0.0001
     atom   7 (R=0.123)  charge= 10.3513  magn=  0.0000
     atom   8 (R=0.059)  charge=  2.7103  magn=  0.0000
     atom   9 (R=0.059)  charge=  2.7349  magn= -0.0000
     atom  10 (R=0.059)  charge=  2.7034  magn=  0.0001
     atom  11 (R=0.059)  charge=  2.7022  magn=  0.0000
     atom  12 (R=0.059)  charge=  2.7021  magn= -0.0000
     atom  13 (R=0.059)  charge=  2.7040  magn= -0.0001
     atom  14 (R=0.059)  charge=  2.7041  magn=  0.0001
     atom  15 (R=0.059)  charge=  2.7027  magn=  0.0000
     atom  16 (R=0.059)  charge=  2.7013  magn= -0.0001
     atom  17 (R=0.059)  charge=  2.7047  magn= -0.0001
     atom  18 (R=0.125)  charge=  9.4548  magn= -0.0000
     atom  19 (R=0.125)  charge=  8.9998  magn=  0.0011
     atom  20 (R=0.125)  charge=  8.9995  magn= -0.0011
     atom  21 (R=0.125)  charge=  8.9965  magn=  0.0010
     atom  22 (R=0.125)  charge=  8.9956  magn= -0.0010
     atom  23 (R=0.059)  charge=  0.8175  magn=  0.0000

     total cpu time spent up to now is      923.5 secs

     End of self-consistent calculation

 ------ SPIN UP ------------


          k = 0.0000 0.0000 0.0000 ( 55051 PWs)   bands (ev):

   -59.4970 -59.4940 -59.4511 -59.4484 -59.4163 -59.4134 -59.3722 -59.3694
   -59.2481 -58.7022 -53.0929 -53.0427 -52.9688 -52.9190 -51.3984 -44.9438
   -44.9303 -40.3248 -40.3098 -40.2212 -40.2194 -38.4978 -26.5120 -26.4919
   -26.4098 -26.4073 -26.3904 -26.3110 -26.2878 -26.1926 -26.1775 -26.0418
   -26.0360 -25.9757 -25.9734 -25.9425 -25.9298 -25.8980 -25.8781 -25.8695
   -25.8472 -25.8124 -25.6808 -25.6781 -25.6691 -25.6541 -25.6071 -25.5961
   -25.5820 -25.5761 -25.3520 -25.2737 -22.8772 -22.6651 -22.3610 -22.2776
   -22.0184 -21.8779 -21.8539 -21.7545 -21.6351 -21.5632 -21.5461 -21.3296
   -21.1910 -21.1352 -21.0847 -21.0342 -20.9751 -20.9189 -20.4607 -20.3892
   -20.3338 -18.8877 -18.6048 -18.5331 -18.5154 -18.3016 -18.2919 -18.2746
   -18.2671 -18.2551 -18.2152 -18.0512 -18.0363 -16.8519 -16.6356 -16.5156
     2.6016   3.5231   4.2111   4.4485   4.5942   4.8071   4.8215   4.9073
     5.0073   5.2092   5.2330   5.4788   5.5831   5.7832   5.9012   5.9809
     6.0552   6.1185   6.3277   6.3327   6.4136   6.5545   6.6030   6.6244
     6.7033   6.8438   6.8656   6.9927   7.0407   7.0527   7.0580   7.1195
     7.2201   7.4472   7.4579   7.5509   7.5651   7.6275   7.6522   7.6779
     7.8747   7.9166   7.9738   8.0173   8.1726   8.2681   8.3105   8.3230
     8.4377   8.5106   8.5925   8.6063   8.6139   8.8181   8.8426   8.8651
     8.9022   8.9423   9.1780   9.2282   9.3469   9.3755   9.5607   9.5802
     9.6273   9.6316   9.6498   9.6612   9.7301   9.8815  10.0050  10.1042
    10.1208  10.2474  10.3086  10.4074  10.4139  10.5508  10.5760

 ------ SPIN DOWN ----------


          k = 0.0000 0.0000 0.0000 ( 55051 PWs)   bands (ev):

   -59.4973 -59.4937 -59.4514 -59.4482 -59.4163 -59.4136 -59.3723 -59.3696
   -59.2480 -58.7023 -53.0929 -53.0427 -52.9688 -52.9190 -51.3983 -44.9439
   -44.9303 -40.3238 -40.3107 -40.2221 -40.2185 -38.4978 -26.5121 -26.4920
   -26.4098 -26.4074 -26.3904 -26.3111 -26.2877 -26.1926 -26.1779 -26.0419
   -26.0360 -25.9758 -25.9733 -25.9426 -25.9301 -25.8979 -25.8781 -25.8697
   -25.8472 -25.8123 -25.6812 -25.6778 -25.6692 -25.6542 -25.6071 -25.5963
   -25.5821 -25.5762 -25.3521 -25.2738 -22.8772 -22.6650 -22.3610 -22.2776
   -22.0183 -21.8779 -21.8539 -21.7545 -21.6351 -21.5632 -21.5460 -21.3296
   -21.1910 -21.1352 -21.0847 -21.0343 -20.9751 -20.9189 -20.4607 -20.3892
   -20.3338 -18.8864 -18.6067 -18.5318 -18.5141 -18.3014 -18.2922 -18.2748
   -18.2674 -18.2558 -18.2162 -18.0496 -18.0378 -16.8520 -16.6355 -16.5155
     2.6016   3.5231   4.2111   4.4485   4.5942   4.8070   4.8214   4.9071
     5.0075   5.2092   5.2330   5.4787   5.5831   5.7831   5.9011   5.9807
     6.0552   6.1184   6.3276   6.3327   6.4137   6.5546   6.6028   6.6244
     6.7033   6.8438   6.8655   6.9925   7.0408   7.0527   7.0579   7.1196
     7.2200   7.4472   7.4578   7.5509   7.5651   7.6274   7.6522   7.6778
     7.8746   7.9165   7.9738   8.0171   8.1726   8.2685   8.3104   8.3225
     8.4377   8.5104   8.5922   8.6060   8.6138   8.8182   8.8425   8.8646
     8.9020   8.9425   9.1780   9.2282   9.3468   9.3754   9.5605   9.5801
     9.6271   9.6315   9.6499   9.6611   9.7301   9.8814  10.0049  10.1041
    10.1207  10.2473  10.3085  10.4074  10.4136  10.5508  10.5760

     the Fermi energy is     8.5565 ev

!    total energy              =   -2942.66776728 Ry
     estimated scf accuracy    <       0.00040170 Ry
     smearing contrib. (-TS)   =      -0.10128616 Ry
     internal energy E=F+TS    =   -2942.56648113 Ry

     total magnetization       =    -0.00 Bohr mag/cell
     absolute magnetization    =     0.03 Bohr mag/cell

     convergence has been achieved in   5 iterations

     negative rho (up, down):  9.070E-01 9.070E-01

     Forces acting on atoms (cartesian axes, Ry/au):

     atom    1 type  1   force =    -0.00396575   -0.02790917    0.01623978
     atom    2 type  1   force =    -0.12105026   -0.01647059    0.00045596
     atom    3 type  1   force =    -0.11969472    0.01445132    0.00538325
     atom    4 type  1   force =     0.12149498   -0.01400985   -0.00071579
     atom    5 type  1   force =     0.12031843    0.01222129    0.00673183
     atom    6 type  2   force =    -0.00560471   -0.01855220    0.00129311
     atom    7 type  2   force =    -0.00580268    0.01660470   -0.00122302
     atom    8 type  3   force =    -0.14010773    0.00333418   -0.00306247
     atom    9 type  3   force =    -0.86240126    0.00326314   -0.00516655
     atom   10 type  3   force =    -0.02546329   -0.02894876   -0.06078116
     atom   11 type  3   force =    -0.02337963   -0.03579591    0.05654260
     atom   12 type  3   force =    -0.02064922    0.03522463   -0.05680723
     atom   13 type  3   force =    -0.02027247    0.02963859    0.05850448
     atom   14 type  3   force =     0.02593343   -0.02765013   -0.05900057
     atom   15 type  3   force =     0.02371951   -0.03296420    0.05353259
     atom   16 type  3   force =     0.02108433    0.03257146   -0.05364574
     atom   17 type  3   force =     0.02059588    0.02831117    0.05674732
     atom   18 type  4   force =    -0.00501395    0.02696111   -0.01695507
     atom   19 type  4   force =    -0.13640213   -0.00479211   -0.11531462
     atom   20 type  4   force =    -0.14039886    0.00512193    0.11589412
     atom   21 type  4   force =     0.13526901   -0.00582523   -0.11698286
     atom   22 type  4   force =     0.13931263    0.00615182    0.11703158
     atom   23 type  5   force =     1.02247847   -0.00093719    0.00129847
     The non-local contrib.  to forces
     atom    1 type  1   force =    -0.00226861   -0.01387089    0.03181052
     atom    2 type  1   force =    -0.24601483   -0.16183022    0.01951604
     atom    3 type  1   force =    -0.24091194    0.15719654   -0.02668513
     atom    4 type  1   force =     0.25583268   -0.15701608    0.01824798
     atom    5 type  1   force =     0.25118642    0.15248206   -0.02599056
     atom    6 type  2   force =    -0.01086460   -0.06105102   -0.07157432
     atom    7 type  2   force =    -0.01193349    0.07302005    0.06508845
     atom    8 type  3   force =    -0.23230140   -0.00042100   -0.00322202
     atom    9 type  3   force =     0.30570469    0.00042821   -0.00487091
     atom   10 type  3   force =    -0.21714589    0.00727706   -0.21547966
     atom   11 type  3   force =    -0.22192755    0.00863242    0.20423121
     atom   12 type  3   force =    -0.20481699   -0.02194383   -0.18876573
     atom   13 type  3   force =    -0.21132645   -0.00684759    0.21351740
     atom   14 type  3   force =     0.21855984    0.00582984   -0.21626245
     atom   15 type  3   force =     0.22447447    0.00956354    0.20430702
     atom   16 type  3   force =     0.20717366   -0.02200273   -0.18913496
     atom   17 type  3   force =     0.21177264   -0.00574781    0.21468579
     atom   18 type  4   force =    -0.00991094    0.06792190   -0.07072690
     atom   19 type  4   force =     0.07144741    0.00703264    0.06580911
     atom   20 type  4   force =     0.06588805   -0.01048783   -0.06080323
     atom   21 type  4   force =    -0.06881626    0.00673438    0.06792595
     atom   22 type  4   force =    -0.06414614   -0.00970467   -0.06295567
     atom   23 type  5   force =    -0.17884312    0.00006692    0.00010242
     The ionic contribution  to forces
     atom    1 type  1   force =    -0.31295513   -4.79367527   14.49088672
     atom    2 type  1   force =   -34.53548985   -6.24499019    0.77898471
     atom    3 type  1   force =   -34.51809237    6.23128103   -0.71247806
     atom    4 type  1   force =    34.32299513   -6.53772370    0.77743123
     atom    5 type  1   force =    34.30439796    6.52479186   -0.71067987
     atom    6 type  2   force =    -0.32995546   -3.76484651  -14.42733541
     atom    7 type  2   force =    -0.32999815    3.80067538   14.46127437
     atom    8 type  3   force =   -46.31097154    0.07250369   -0.06585683
     atom    9 type  3   force =    41.18022998    0.07639073   -0.07028203
     atom   10 type  3   force =   -31.11802760   -2.14722685  -23.64561987
     atom   11 type  3   force =   -30.18649481   -0.89456759   22.64753750
     atom   12 type  3   force =   -30.30201520    0.84279546  -22.69581314
     atom   13 type  3   force =   -31.09446138    2.23380637   23.62825795
     atom   14 type  3   force =    31.03157086   -2.21704028  -23.73302661
     atom   15 type  3   force =    30.10107810   -0.96375181   22.73443025
     atom   16 type  3   force =    30.21679348    0.91151552  -22.78225307
     atom   17 type  3   force =    31.00795050    2.30361977   23.71567068
     atom   18 type  4   force =    -0.30890334    4.56033459  -14.35010023
     atom   19 type  4   force =   -31.13928560    0.96129567  -26.14016860
     atom   20 type  4   force =   -31.11067596   -0.95698775   26.11850781
     atom   21 type  4   force =    30.94380891    0.95942598  -26.45544174
     atom   22 type  4   force =    30.91682849   -0.95551481   26.43286032
     atom   23 type  5   force =     7.57167299   -0.00211130    0.00321394
     The local contribution  to forces
     atom    1 type  1   force =     0.31436869    4.77739925  -14.50185419
     atom    2 type  1   force =    34.67353577    6.38965781   -0.79108361
     atom    3 type  1   force =    34.65258733   -6.37324866    0.75557012
     atom    4 type  1   force =   -34.47206385    6.68720888   -0.78938041
     atom    5 type  1   force =   -34.45002969   -6.67149866    0.75488479
     atom    6 type  2   force =     0.34022291    3.81036006   14.50866371
     atom    7 type  2   force =     0.34080779   -3.85646604  -14.52239695
     atom    8 type  3   force =    46.44821378   -0.07006074    0.07532263
     atom    9 type  3   force =   -42.39573762   -0.07454598    0.07868869
     atom   10 type  3   force =    31.32677554    2.10330230   23.81088745
     atom   11 type  3   force =    30.40732943    0.83555866  -22.80887871
     atom   12 type  3   force =    30.50194837   -0.77365455   22.83793853
     atom   13 type  3   force =    31.30542417   -2.18234211  -23.79789412
     atom   14 type  3   force =   -31.24435064    2.17632682   23.89941081
     atom   15 type  3   force =   -30.32608830    0.90509336  -22.89711746
     atom   16 type  3   force =   -30.42109074   -0.84495113   22.92600169
     atom   17 type  3   force =   -31.22071386   -2.25385269  -23.88658278
     atom   18 type  4   force =     0.31840932   -4.60539137   14.41279941
     atom   19 type  4   force =    30.93834539   -0.97617262   25.96228595
     atom   20 type  4   force =    30.91187903    0.97168659  -25.94759445
     atom   21 type  4   force =   -30.74822934   -0.97495021   26.28122696
     atom   22 type  4   force =   -30.72276839    0.97071425  -26.26567198
     atom   23 type  5   force =    -6.37576851    0.00101584   -0.00085148
     The core correction contribution to forces
     atom    1 type  1   force =     0.00127581    0.00380061   -0.00210147
     atom    2 type  1   force =    -0.01201131   -0.00123067    0.00087037
     atom    3 type  1   force =    -0.01225619    0.00208949   -0.00158649
     atom    4 type  1   force =     0.01227791   -0.00131352    0.00095654
     atom    5 type  1   force =     0.01243012    0.00218690   -0.00177537
     atom    6 type  2   force =     0.00048160    0.00276433    0.00282758
     atom    7 type  2   force =     0.00052592   -0.00340940   -0.00232774
     atom    8 type  3   force =    -0.02898235    0.00039833   -0.00067594
     atom    9 type  3   force =     0.01664059   -0.00000112   -0.00049297
     atom   10 type  3   force =    -0.02191892    0.00890789   -0.01652838
     atom   11 type  3   force =    -0.02363165    0.00947609    0.01721113
     atom   12 type  3   force =    -0.02185248   -0.00938407   -0.01606264
     atom   13 type  3   force =    -0.02165210   -0.00860152    0.01697582
     atom   14 type  3   force =     0.02320004    0.00961688   -0.01512150
     atom   15 type  3   force =     0.02447034    0.01076400    0.01565902
     atom   16 type  3   force =     0.02271833   -0.01063257   -0.01444392
     atom   17 type  3   force =     0.02267967   -0.00943843    0.01552859
     atom   18 type  4   force =     0.00056008   -0.00373565    0.00351639
     atom   19 type  4   force =    -0.01029456    0.00018215   -0.00916750
     atom   20 type  4   force =    -0.01013721    0.00015459    0.00900147
     atom   21 type  4   force =     0.01031695    0.00019794   -0.00917577
     atom   22 type  4   force =     0.01020017    0.00011298    0.00899523
     atom   23 type  5   force =     0.00000000    0.00000000    0.00000000
     The Hubbard contrib.    to forces
     atom    1 type  1   force =     0.00000000    0.00000000    0.00000000
     atom    2 type  1   force =     0.00000000    0.00000000    0.00000000
     atom    3 type  1   force =     0.00000000    0.00000000    0.00000000
     atom    4 type  1   force =     0.00000000    0.00000000    0.00000000
     atom    5 type  1   force =     0.00000000    0.00000000    0.00000000
     atom    6 type  2   force =     0.00000000    0.00000000    0.00000000
     atom    7 type  2   force =     0.00000000    0.00000000    0.00000000
     atom    8 type  3   force =     0.00000000    0.00000000    0.00000000
     atom    9 type  3   force =     0.00000000    0.00000000    0.00000000
     atom   10 type  3   force =     0.00000000    0.00000000    0.00000000
     atom   11 type  3   force =     0.00000000    0.00000000    0.00000000
     atom   12 type  3   force =     0.00000000    0.00000000    0.00000000
     atom   13 type  3   force =     0.00000000    0.00000000    0.00000000
     atom   14 type  3   force =     0.00000000    0.00000000    0.00000000
     atom   15 type  3   force =     0.00000000    0.00000000    0.00000000
     atom   16 type  3   force =     0.00000000    0.00000000    0.00000000
     atom   17 type  3   force =     0.00000000    0.00000000    0.00000000
     atom   18 type  4   force =     0.00000000    0.00000000    0.00000000
     atom   19 type  4   force =     0.00000000    0.00000000    0.00000000
     atom   20 type  4   force =     0.00000000    0.00000000    0.00000000
     atom   21 type  4   force =     0.00000000    0.00000000    0.00000000
     atom   22 type  4   force =     0.00000000    0.00000000    0.00000000
     atom   23 type  5   force =     0.00000000    0.00000000    0.00000000
     The SCF correction term to forces
     atom    1 type  1   force =    -0.00000000   -0.00000000   -0.00000000
     atom    2 type  1   force =    -0.00122358    0.00190988   -0.00723318
     atom    3 type  1   force =    -0.00117508   -0.00287987   -0.00883883
     atom    4 type  1   force =     0.00229956   -0.00517823   -0.00737278
     atom    5 type  1   force =     0.00218008    0.00424633   -0.00910882
     atom    6 type  2   force =    -0.00564270   -0.00579186   -0.01069010
     atom    7 type  2   force =    -0.00535828    0.00277191   -0.00226279
     atom    8 type  3   force =    -0.01621978    0.00090110   -0.00803196
     atom    9 type  3   force =     0.03060756    0.00097849   -0.00761097
     atom   10 type  3   force =     0.00470004   -0.00122195    0.00655766
     atom   11 type  3   force =     0.00119141    0.00509172   -0.00296017
     atom   12 type  3   force =     0.00593355   -0.00260118    0.00649411
     atom   13 type  3   force =     0.00158974   -0.00638935   -0.00175422
     atom   14 type  3   force =    -0.00320021   -0.00239618    0.00659754
     atom   15 type  3   force =    -0.00036864    0.00535391   -0.00314789
     atom   16 type  3   force =    -0.00466395   -0.00137043    0.00678289
     atom   17 type  3   force =    -0.00124661   -0.00628246   -0.00195661
     atom   18 type  4   force =    -0.00532261    0.00781885   -0.01184539
     atom   19 type  4   force =     0.00323169    0.00285725    0.00652477
     atom   20 type  4   force =     0.00249369    0.00074353   -0.00261913
     atom   21 type  4   force =    -0.00196477    0.00275388   -0.00091991
     atom   22 type  4   force =    -0.00095503    0.00053128    0.00440203
     atom   23 type  5   force =     0.00526357    0.00007855   -0.00056805

     Total force =     1.427608     Total SCF correction =     0.051906

     Entering Dynamics:    iteration =     2
                           time      =   0.0004 pico-seconds


ATOMIC_POSITIONS (angstrom)
Hf            2.6699999570        2.8271230292        6.6039642186    0   0   0
Hf            1.2529767217        1.2862822406        5.0584661803
Hf            1.2554731216        7.3898059202        5.0880681841
Hf            4.0870232671        1.2862823116        5.0584660276
Hf            4.0845268867        7.3898058900        5.0880683133
Nb            2.6699983315        2.7969266617        3.5155838259
Nb            2.6699983014        5.8763822010        6.6349974938
Ta            1.2093572337        4.3409282699        5.0711254270
Ta            4.1305726714        4.3409282234        5.0711252583
Ta            1.3072498376        1.3141192333        2.0587723587
Ta            1.3027856834        1.3083870518        8.0945855700
Ta            1.3040073770        7.3758301069        2.0462308598
Ta            1.3077084846        7.3650863071        8.0860088841
Ta            4.0327502058        1.3141192810        2.0587725642
Ta            4.0372143169        1.3083873653        8.0945852154
Ta            4.0359926334        7.3758298845        2.0462312396
Ta            4.0322915159        7.3650862207        8.0860086701
Zr            2.6699982193        5.8662918705        3.5273803115
Zr            1.2438040162        4.3220770887        1.9999742804
Zr            1.2403540284        4.3541245223        8.1497816721
Zr            4.0961958412        4.3220768340        1.9999735580
Zr            4.0996458319        4.3541247050        8.1497822406
H             5.0082362676        4.3399940202        5.0721909806


     kinetic energy (Ekin) =          17.99391078 Ry
     temperature           =       86091.32761036 K 
     Ekin + Etot (const)   =       -2924.67385651 Ry

     Writing config-only to output data dir outdir/pwscf.save/
     NEW-OLD atomic charge density approx. for the potential

     Check: negative core charge=   -0.000002

     negative rho (up, down):  9.059E-01 9.059E-01
     Generating pointlists ...
     new r_m :   0.0434 (alat units)  0.6842 (a.u.) for type    3
     new r_m :   0.0434 (alat units)  0.6842 (a.u.) for type    5

     total cpu time spent up to now is      947.5 secs

     Self-consistent Calculation

     iteration #  1     ecut=   120.00 Ry     beta= 0.70
     Davidson diagonalization with overlap
     c_bands:  1 eigenvalues not converged
     c_bands:  1 eigenvalues not converged
     ethr =  1.00E-06,  avg # of iterations = 20.0

     negative rho (up, down):  9.071E-01 9.071E-01

     total cpu time spent up to now is     1045.0 secs

     total energy              =   -2941.38351464 Ry
     estimated scf accuracy    <       0.20693342 Ry

     total magnetization       =    -0.00 Bohr mag/cell
     absolute magnetization    =     0.03 Bohr mag/cell

     iteration #  2     ecut=   120.00 Ry     beta= 0.70
     Davidson diagonalization with overlap
     ethr =  7.47E-05,  avg # of iterations =  3.0

     negative rho (up, down):  9.069E-01 9.069E-01

     total cpu time spent up to now is     1089.7 secs

     total energy              =   -2941.41084466 Ry
     estimated scf accuracy    <       0.11387239 Ry

     total magnetization       =    -0.00 Bohr mag/cell
     absolute magnetization    =     0.02 Bohr mag/cell

     iteration #  3     ecut=   120.00 Ry     beta= 0.70
     Davidson diagonalization with overlap
     ethr =  4.11E-05,  avg # of iterations =  1.0

     negative rho (up, down):  9.068E-01 9.068E-01

     total cpu time spent up to now is     1127.6 secs

     total energy              =   -2941.41544906 Ry
     estimated scf accuracy    <       0.00809721 Ry

     total magnetization       =    -0.00 Bohr mag/cell
     absolute magnetization    =     0.02 Bohr mag/cell

     iteration #  4     ecut=   120.00 Ry     beta= 0.70
     Davidson diagonalization with overlap
     ethr =  2.92E-06,  avg # of iterations = 11.0

     negative rho (up, down):  9.068E-01 9.068E-01

     total cpu time spent up to now is     1173.4 secs

     total energy              =   -2941.41624555 Ry
     estimated scf accuracy    <       0.00307925 Ry

     total magnetization       =    -0.00 Bohr mag/cell
     absolute magnetization    =     0.02 Bohr mag/cell

     iteration #  5     ecut=   120.00 Ry     beta= 0.70
     Davidson diagonalization with overlap
     ethr =  1.11E-06,  avg # of iterations =  2.0

     negative rho (up, down):  9.068E-01 9.068E-01

     Magnetic moment per site  (integrated on atomic sphere of radius R)
     atom   1 (R=0.125)  charge=  9.4577  magn=  0.0000
     atom   2 (R=0.125)  charge=  9.0566  magn=  0.0000
     atom   3 (R=0.125)  charge=  9.0568  magn= -0.0000
     atom   4 (R=0.125)  charge=  9.0510  magn=  0.0000
     atom   5 (R=0.125)  charge=  9.0517  magn= -0.0000
     atom   6 (R=0.123)  charge= 10.3445  magn= -0.0000
     atom   7 (R=0.123)  charge= 10.3452  magn=  0.0000
     atom   8 (R=0.043)  charge=  0.6678  magn=  0.0000
     atom   9 (R=0.043)  charge=  0.6810  magn= -0.0000
     atom  10 (R=0.043)  charge=  0.6663  magn=  0.0000
     atom  11 (R=0.043)  charge=  0.6663  magn= -0.0000
     atom  12 (R=0.043)  charge=  0.6662  magn= -0.0000
     atom  13 (R=0.043)  charge=  0.6661  magn= -0.0000
     atom  14 (R=0.043)  charge=  0.6667  magn=  0.0000
     atom  15 (R=0.043)  charge=  0.6671  magn=  0.0000
     atom  16 (R=0.043)  charge=  0.6676  magn= -0.0000
     atom  17 (R=0.043)  charge=  0.6664  magn= -0.0000
     atom  18 (R=0.125)  charge=  9.4495  magn= -0.0000
     atom  19 (R=0.125)  charge=  9.0006  magn=  0.0008
     atom  20 (R=0.125)  charge=  8.9967  magn= -0.0008
     atom  21 (R=0.125)  charge=  8.9931  magn=  0.0007
     atom  22 (R=0.125)  charge=  8.9899  magn= -0.0007
     atom  23 (R=0.043)  charge=  0.7133  magn=  0.0000

     total cpu time spent up to now is     1212.9 secs

     End of self-consistent calculation

 ------ SPIN UP ------------


          k = 0.0000 0.0000 0.0000 ( 55051 PWs)   bands (ev):

   -59.9035 -59.5190 -59.5071 -59.4726 -59.4607 -59.4436 -59.4397 -59.4240
   -59.3952 -59.3795 -53.0983 -53.0513 -52.9741 -52.9276 -51.4434 -44.9724
   -44.9627 -40.3387 -40.3208 -40.2347 -40.2320 -38.5322 -29.0523 -26.5147
   -26.5041 -26.4306 -26.4146 -26.3347 -26.3252 -26.2389 -26.2049 -26.1946
   -26.0666 -26.0505 -26.0143 -26.0009 -25.9869 -25.9527 -25.9484 -25.9391
   -25.8948 -25.8783 -25.6995 -25.6889 -25.6829 -25.6772 -25.6227 -25.6158
   -25.6028 -25.5928 -25.5745 -25.5081 -22.8897 -22.6769 -22.3737 -22.2833
   -22.0301 -21.8923 -21.8638 -21.7688 -21.6485 -21.5669 -21.5566 -21.3339
   -21.2315 -21.1686 -21.1058 -21.0582 -20.9940 -20.9427 -20.4957 -20.4274
   -20.3766 -18.9014 -18.6115 -18.5467 -18.5312 -18.3153 -18.3048 -18.2893
   -18.2802 -18.2689 -18.2298 -18.0607 -18.0429 -16.8903 -16.6669 -16.5426
     2.6674   3.4763   4.2024   4.4345   4.5712   4.7650   4.8103   4.8541
     4.9562   5.1742   5.2184   5.4688   5.5710   5.7746   5.9283   5.9653
     6.0174   6.2289   6.2957   6.3205   6.4246   6.5375   6.5900   6.5996
     6.7207   6.7888   6.8114   6.9717   7.0328   7.0404   7.0554   7.0971
     7.2077   7.4264   7.4343   7.5419   7.5482   7.6283   7.6457   7.6614
     7.8192   7.8880   8.0028   8.1307   8.1582   8.2553   8.2942   8.3492
     8.4425   8.5137   8.5827   8.5967   8.6036   8.7976   8.8342   8.8812
     8.9004   8.9428   9.1132   9.1727   9.3237   9.3684   9.4966   9.5212
     9.5376   9.6218   9.6356   9.6489   9.7170   9.8767   9.9980  10.0710
    10.1065  10.2005  10.2507  10.3999  10.4061  10.5286  10.5560

 ------ SPIN DOWN ----------


          k = 0.0000 0.0000 0.0000 ( 55051 PWs)   bands (ev):

   -59.9035 -59.5189 -59.5073 -59.4724 -59.4609 -59.4436 -59.4399 -59.4240
   -59.3952 -59.3796 -53.0983 -53.0513 -52.9741 -52.9276 -51.4434 -44.9724
   -44.9627 -40.3380 -40.3215 -40.2341 -40.2326 -38.5322 -29.0523 -26.5147
   -26.5042 -26.4306 -26.4147 -26.3346 -26.3254 -26.2388 -26.2050 -26.1947
   -26.0665 -26.0507 -26.0143 -26.0008 -25.9871 -25.9529 -25.9483 -25.9392
   -25.8949 -25.8783 -25.6994 -25.6891 -25.6830 -25.6772 -25.6228 -25.6159
   -25.6028 -25.5929 -25.5746 -25.5081 -22.8897 -22.6769 -22.3737 -22.2833
   -22.0301 -21.8923 -21.8638 -21.7688 -21.6485 -21.5669 -21.5566 -21.3339
   -21.2314 -21.1686 -21.1058 -21.0582 -20.9940 -20.9427 -20.4957 -20.4274
   -20.3766 -18.9006 -18.6128 -18.5459 -18.5302 -18.3151 -18.3051 -18.2891
   -18.2804 -18.2694 -18.2304 -18.0596 -18.0439 -16.8903 -16.6669 -16.5425
     2.6674   3.4763   4.2024   4.4345   4.5712   4.7649   4.8102   4.8540
     4.9563   5.1742   5.2184   5.4688   5.5709   5.7745   5.9283   5.9652
     6.0173   6.2288   6.2957   6.3205   6.4247   6.5376   6.5899   6.5995
     6.7207   6.7887   6.8114   6.9716   7.0328   7.0404   7.0553   7.0971
     7.2076   7.4263   7.4343   7.5419   7.5482   7.6282   7.6457   7.6614
     7.8191   7.8879   8.0027   8.1306   8.1582   8.2554   8.2941   8.3490
     8.4425   8.5135   8.5825   8.5966   8.6035   8.7975   8.8340   8.8811
     8.9002   8.9429   9.1131   9.1727   9.3237   9.3682   9.4966   9.5211
     9.5376   9.6217   9.6355   9.6489   9.7169   9.8766   9.9979  10.0710
    10.1064  10.2005  10.2506  10.3999  10.4059  10.5286  10.5559

     the Fermi energy is     8.5537 ev

!    total energy              =   -2941.41601608 Ry
     estimated scf accuracy    <       0.00065792 Ry
     smearing contrib. (-TS)   =      -0.10356982 Ry
     internal energy E=F+TS    =   -2941.31244626 Ry

     total magnetization       =    -0.00 Bohr mag/cell
     absolute magnetization    =     0.02 Bohr mag/cell

     convergence has been achieved in   5 iterations

     negative rho (up, down):  9.068E-01 9.068E-01

     Forces acting on atoms (cartesian axes, Ry/au):

     atom    1 type  1   force =     0.00698354   -0.02599314    0.01233672
     atom    2 type  1   force =    -0.12546588   -0.01524868   -0.00412428
     atom    3 type  1   force =    -0.12441997    0.01297852    0.00028000
     atom    4 type  1   force =     0.12627989   -0.00809386   -0.00514432
     atom    5 type  1   force =     0.12532786    0.00559157    0.00106062
     atom    6 type  2   force =     0.00259907   -0.02027796    0.00039825
     atom    7 type  2   force =     0.00266868    0.01817877    0.00219212
     atom    8 type  3   force =    -0.12111843    0.00359550   -0.00430370
     atom    9 type  3   force =    -3.87282915    0.00543858   -0.00856473
     atom   10 type  3   force =    -0.02806903   -0.03089968   -0.05781283
     atom   11 type  3   force =    -0.02698317   -0.03470818    0.05726555
     atom   12 type  3   force =    -0.02230443    0.03533831   -0.05392829
     atom   13 type  3   force =    -0.02397446    0.02881368    0.05965758
     atom   14 type  3   force =     0.02479579   -0.02652839   -0.05535492
     atom   15 type  3   force =     0.02477516   -0.02965276    0.05437726
     atom   16 type  3   force =     0.02037533    0.03068305   -0.05065159
     atom   17 type  3   force =     0.02048840    0.02398381    0.05713005
     atom   18 type  4   force =     0.00426454    0.02828417   -0.01762504
     atom   19 type  4   force =    -0.14121978   -0.00448118   -0.11559714
     atom   20 type  4   force =    -0.14476468    0.00552385    0.11886519
     atom   21 type  4   force =     0.13957301   -0.00513690   -0.11149429
     atom   22 type  4   force =     0.14331421    0.00618554    0.11458489
     atom   23 type  5   force =     3.98970350   -0.00357463    0.00645291
     The non-local contrib.  to forces
     atom    1 type  1   force =     0.00069445   -0.00630977    0.02409715
     atom    2 type  1   force =    -0.24847758   -0.16163400    0.01679457
     atom    3 type  1   force =    -0.24361296    0.15738564   -0.02920852
     atom    4 type  1   force =     0.25099582   -0.15410764    0.01591314
     atom    5 type  1   force =     0.24680468    0.14968736   -0.02858041
     atom    6 type  2   force =    -0.01360823   -0.06664061   -0.07180637
     atom    7 type  2   force =    -0.01469789    0.07779893    0.06564983
     atom    8 type  3   force =    -0.19016157   -0.00095695   -0.00403812
     atom    9 type  3   force =     1.48498850   -0.00267178   -0.00307931
     atom   10 type  3   force =    -0.21817429    0.00607555   -0.21385771
     atom   11 type  3   force =    -0.22815781    0.01098800    0.20371262
     atom   12 type  3   force =    -0.20764873   -0.02362612   -0.18644835
     atom   13 type  3   force =    -0.21425906   -0.00702084    0.21347324
     atom   14 type  3   force =     0.21954483    0.00460222   -0.21510417
     atom   15 type  3   force =     0.23224069    0.01047492    0.20429831
     atom   16 type  3   force =     0.21224455   -0.02262454   -0.18721711
     atom   17 type  3   force =     0.21474938   -0.00591648    0.21470893
     atom   18 type  4   force =    -0.00898507    0.07136256   -0.07290117
     atom   19 type  4   force =     0.07063066    0.00795041    0.06327034
     atom   20 type  4   force =     0.06593811   -0.01077834   -0.05774285
     atom   21 type  4   force =    -0.06942427    0.00818828    0.06826340
     atom   22 type  4   force =    -0.06511169   -0.01046596   -0.06272772
     atom   23 type  5   force =    -0.11757206    0.00018845    0.00042851
     The ionic contribution  to forces
     atom    1 type  1   force =    -0.37507269   -4.84775613   14.54693085
     atom    2 type  1   force =   -34.57369237   -6.25007301    0.77897045
     atom    3 type  1   force =   -34.55637852    6.23644594   -0.71243574
     atom    4 type  1   force =    34.35429240   -6.58785534    0.77718262
     atom    5 type  1   force =    34.33565378    6.57523586   -0.71037877
     atom    6 type  2   force =    -0.39438648   -3.82205857  -14.48648519
     atom    7 type  2   force =    -0.39444808    3.85766282   14.52067198
     atom    8 type  3   force =   -46.44488556    0.07251368   -0.06588239
     atom    9 type  3   force =    36.88297513    0.08241694   -0.07717929
     atom   10 type  3   force =   -31.13608330   -2.14906960  -23.64793450
     atom   11 type  3   force =   -30.20444351   -0.89634428   22.64977883
     atom   12 type  3   force =   -30.31994715    0.84460734  -22.69809116
     atom   13 type  3   force =   -31.11251832    2.23566627   23.63058004
     atom   14 type  3   force =    31.04450856   -2.22652804  -23.74444959
     atom   15 type  3   force =    30.11398940   -0.97309093   22.74570764
     atom   16 type  3   force =    30.22968619    0.92082068  -22.79350043
     atom   17 type  3   force =    31.02088287    2.31312592   23.72710401
     atom   18 type  4   force =    -0.36973587    4.61369615  -14.40544486
     atom   19 type  4   force =   -31.17395869    0.96123864  -26.14513033
     atom   20 type  4   force =   -31.14523472   -0.95695983   26.12336997
     atom   21 type  4   force =    30.97276787    0.95909828  -26.50662896
     atom   22 type  4   force =    30.94583512   -0.95526296   26.48364612
     atom   23 type  5   force =    12.30019393   -0.00752983    0.00959872
     The local contribution  to forces
     atom    1 type  1   force =     0.39503612    4.83321086  -14.56822629
     atom    2 type  1   force =    34.70240308    6.39223452   -0.80906532
     atom    3 type  1   force =    34.68046625   -6.37662748    0.73275405
     atom    4 type  1   force =   -34.47842422    6.74899959   -0.80793883
     atom    5 type  1   force =   -34.45565861   -6.73487977    0.73061087
     atom    6 type  2   force =     0.42708115    3.87384598   14.55529700
     atom    7 type  2   force =     0.42876497   -3.92608586  -14.59612880
     atom    8 type  3   force =    46.55069183   -0.06913232    0.05731763
     atom    9 type  3   force =   -42.36407155   -0.07431118    0.06380639
     atom   10 type  3   force =    31.33849713    2.09896302   23.81996775
     atom   11 type  3   force =    30.42132211    0.84438187  -22.81157943
     atom   12 type  3   force =    30.51960270   -0.77488555   22.84615637
     atom   13 type  3   force =    31.31371513   -2.19459039  -23.79695932
     atom   14 type  3   force =   -31.25187418    2.18264290   23.92137969
     atom   15 type  3   force =   -30.33673015    0.92800809  -22.91158572
     atom   16 type  3   force =   -30.43597066   -0.85717515   22.94650521
     atom   17 type  3   force =   -31.22642394   -2.27882971  -23.89821102
     atom   18 type  4   force =     0.39882462   -4.65805470   14.45298902
     atom   19 type  4   force =    30.96255485   -0.97138716   25.96827505
     atom   20 type  4   force =    30.93636498    0.97286232  -25.94708343
     atom   21 type  4   force =   -30.76052494   -0.96995135   26.34932817
     atom   22 type  4   force =   -30.73474435    0.97108199  -26.32720128
     atom   23 type  5   force =    -8.19867221    0.00384346   -0.00498893
     The core correction contribution to forces
     atom    1 type  1   force =     0.00126899    0.00459341   -0.00241976
     atom    2 type  1   force =    -0.01232801   -0.00082561    0.00066658
     atom    3 type  1   force =    -0.01247355    0.00168119   -0.00136197
     atom    4 type  1   force =     0.01181918   -0.00114635    0.00067918
     atom    5 type  1   force =     0.01189292    0.00197771   -0.00136964
     atom    6 type  2   force =     0.00075020    0.00328400    0.00306262
     atom    7 type  2   force =     0.00080168   -0.00388307   -0.00258878
     atom    8 type  3   force =    -0.02675633    0.00038314   -0.00065446
     atom    9 type  3   force =     0.12390586   -0.00038877   -0.00002391
     atom   10 type  3   force =    -0.02146059    0.00883011   -0.01634792
     atom   11 type  3   force =    -0.02339458    0.00979568    0.01708197
     atom   12 type  3   force =    -0.02117950   -0.00957959   -0.01585997
     atom   13 type  3   force =    -0.02127032   -0.00851208    0.01682561
     atom   14 type  3   force =     0.02276519    0.00895352   -0.01558065
     atom   15 type  3   force =     0.02448052    0.01003187    0.01628233
     atom   16 type  3   force =     0.02235618   -0.00989059   -0.01495003
     atom   17 type  3   force =     0.02240914   -0.00867776    0.01597869
     atom   18 type  4   force =     0.00065364   -0.00406479    0.00368425
     atom   19 type  4   force =    -0.01028260    0.00015227   -0.00904226
     atom   20 type  4   force =    -0.01015007    0.00017113    0.00885051
     atom   21 type  4   force =     0.01033858    0.00014223   -0.00904887
     atom   22 type  4   force =     0.01021792    0.00015270    0.00885509
     atom   23 type  5   force =     0.00000000    0.00000000    0.00000000
     The Hubbard contrib.    to forces
     atom    1 type  1   force =     0.00000000    0.00000000    0.00000000
     atom    2 type  1   force =     0.00000000    0.00000000    0.00000000
     atom    3 type  1   force =     0.00000000    0.00000000    0.00000000
     atom    4 type  1   force =     0.00000000    0.00000000    0.00000000
     atom    5 type  1   force =     0.00000000    0.00000000    0.00000000
     atom    6 type  2   force =     0.00000000    0.00000000    0.00000000
     atom    7 type  2   force =     0.00000000    0.00000000    0.00000000
     atom    8 type  3   force =     0.00000000    0.00000000    0.00000000
     atom    9 type  3   force =     0.00000000    0.00000000    0.00000000
     atom   10 type  3   force =     0.00000000    0.00000000    0.00000000
     atom   11 type  3   force =     0.00000000    0.00000000    0.00000000
     atom   12 type  3   force =     0.00000000    0.00000000    0.00000000
     atom   13 type  3   force =     0.00000000    0.00000000    0.00000000
     atom   14 type  3   force =     0.00000000    0.00000000    0.00000000
     atom   15 type  3   force =     0.00000000    0.00000000    0.00000000
     atom   16 type  3   force =     0.00000000    0.00000000    0.00000000
     atom   17 type  3   force =     0.00000000    0.00000000    0.00000000
     atom   18 type  4   force =     0.00000000    0.00000000    0.00000000
     atom   19 type  4   force =     0.00000000    0.00000000    0.00000000
     atom   20 type  4   force =     0.00000000    0.00000000    0.00000000
     atom   21 type  4   force =     0.00000000    0.00000000    0.00000000
     atom   22 type  4   force =     0.00000000    0.00000000    0.00000000
     atom   23 type  5   force =     0.00000000    0.00000000    0.00000000
     The SCF correction term to forces
     atom    1 type  1   force =    -0.00000000   -0.00000000    0.00000000
     atom    2 type  1   force =     0.00722951    0.00511686    0.00783459
     atom    3 type  1   force =     0.00817932   -0.00583932    0.00985733
     atom    4 type  1   force =    -0.01180278   -0.01391666    0.00834472
     atom    5 type  1   force =    -0.01276439    0.01363785    0.01010373
     atom    6 type  2   force =    -0.01663706   -0.00864132   -0.00034465
     atom    7 type  2   force =    -0.01715150    0.01275340    0.01391304
     atom    8 type  3   force =    -0.00940628    0.00085540    0.00827880
     atom    9 type  3   force =    -0.00002658    0.00046081    0.00723655
     atom   10 type  3   force =     0.00975253    0.00436868   -0.00031530
     atom   11 type  3   force =     0.00829112   -0.00346200   -0.00240328
     atom   12 type  3   force =     0.00746876   -0.00111033   -0.00036002
     atom   13 type  3   force =     0.01095862    0.00333816   -0.00493684
     atom   14 type  3   force =    -0.00954809    0.00386845   -0.00227505
     atom   15 type  3   force =    -0.00860479   -0.00500925   -0.00100015
     atom   16 type  3   force =    -0.00734042   -0.00037990   -0.00216407
     atom   17 type  3   force =    -0.01052854    0.00434929   -0.00312541
     atom   18 type  4   force =    -0.01589227    0.00541240    0.00337287
     atom   19 type  4   force =     0.01043652   -0.00236790    0.00635523
     atom   20 type  4   force =     0.00891753    0.00029602   -0.00920386
     atom   21 type  4   force =    -0.01298372   -0.00254690   -0.01408287
     atom   22 type  4   force =    -0.01228227    0.00074722    0.01133784
     atom   23 type  5   force =     0.00635435   -0.00000926    0.00073976

     Total force =     5.582806     Total SCF correction =     0.067334

     Entering Dynamics:    iteration =     3
                           time      =   0.0006 pico-seconds


ATOMIC_POSITIONS (angstrom)
Hf            2.6699999570        2.8271230292        6.6039642186    0   0   0
Hf            1.2529590703        1.2862799226        5.0584659338
Hf            1.2554556600        7.3898078921        5.0880685630
Hf            4.0870410153        1.2862805103        5.0584656126
Hf            4.0845444655        7.3898073590        5.0880688403
Nb            2.6699974963        2.7969214319        3.5155842456
Nb            2.6699974480        5.8763868826        6.6349974434
Ta            1.2093385022        4.3409287769        5.0711248941
Ta            4.1303019701        4.3409288095        5.0711243403
Ta            1.3072461050        1.3141149871        2.0587639907
Ta            1.3027821791        1.3083820322        8.0945935951
Ta            1.3040044076        7.3758350953        2.0462230399
Ta            1.3077053970        7.3650904561        8.0860172480
Ta            4.0327538312        1.3141153428        2.0587644885
Ta            4.0372177490        1.3083828687        8.0945928147
Ta            4.0359955540        7.3758344232        2.0462238845
Ta            4.0322944585        7.3650900156        8.0860167342
Zr            2.6699975477        5.8662995730        3.5273755715
Zr            1.2437652033        4.3220758787        1.9999419694
[...]
   -59.2199 -59.1890 -53.0865 -53.0401 -52.9622 -52.9163 -51.3506 -44.9052
   -44.8998 -40.3203 -40.3065 -40.2228 -40.2202 -38.4471 -26.4622 -26.4528
   -26.3753 -26.3630 -26.2824 -26.2692 -26.1532 -26.1423 -26.1290 -26.0062
   -25.9871 -25.9404 -25.9289 -25.9227 -25.8920 -25.8557 -25.8512 -25.8319
   -25.8078 -25.8021 -25.7545 -25.6629 -25.6384 -25.6309 -25.6228 -25.6152
   -25.5614 -25.5605 -25.5385 -25.5317 -22.8705 -22.6667 -22.3417 -22.2690
   -21.9998 -21.8629 -21.8370 -21.7396 -21.6261 -21.5572 -21.5419 -21.3288
   -21.1566 -21.1033 -21.0572 -21.0124 -20.9501 -20.8984 -20.4222 -20.3553
   -20.2895 -18.8762 -18.6067 -18.5211 -18.5117 -18.2904 -18.2793 -18.2737
   -18.2614 -18.2504 -18.2144 -18.0581 -18.0459 -16.8040 -16.5971 -16.4732
     2.7981   4.2328   4.4208   4.5095   4.6170   4.8365   4.8389   4.9509
     5.0382   5.2196   5.2623   5.4715   5.5984   5.8203   5.9771   5.9898
     6.0848   6.2860   6.3429   6.3631   6.4268   6.5757   6.6280   6.6592
     6.7298   6.8645   6.9230   7.0181   7.0368   7.0465   7.0657   7.1064
     7.2346   7.4548   7.4708   7.5654   7.5760   7.5892   7.6631   7.7019
     7.8450   7.8882   7.9418   8.0442   8.1854   8.2816   8.3284   8.3566
     8.5149   8.5607   8.5816   8.6268   8.6281   8.8172   8.8614   8.9278
     8.9454   8.9676   9.2117   9.2977   9.3608   9.4050   9.5567   9.6365
     9.6459   9.6531   9.6789   9.7064   9.7578   9.8627   9.9910  10.0233
    10.1596  10.2420  10.4232  10.4300  10.4372  10.5406  10.5801

     the Fermi energy is     8.5835 ev

!    total energy              =   -2943.04077439 Ry
     estimated scf accuracy    <       0.00016213 Ry
     smearing contrib. (-TS)   =      -0.10188880 Ry
     internal energy E=F+TS    =   -2942.93888559 Ry

     total magnetization       =    -0.00 Bohr mag/cell
     absolute magnetization    =     0.00 Bohr mag/cell

     convergence has been achieved in   5 iterations

     negative rho (up, down):  9.078E-01 9.078E-01

     Forces acting on atoms (cartesian axes, Ry/au):

     atom    1 type  1   force =    -0.00236324   -0.03129731    0.02137001
     atom    2 type  1   force =    -0.11882155   -0.01546956   -0.00392927
     atom    3 type  1   force =    -0.11752012    0.01311868    0.00153837
     atom    4 type  1   force =     0.11833950   -0.01622941   -0.00377499
     atom    5 type  1   force =     0.11690078    0.01369864    0.00143117
     atom    6 type  2   force =    -0.00256411   -0.02103167   -0.00114460
     atom    7 type  2   force =    -0.00250410    0.01835343    0.00302909
     atom    8 type  3   force =    -0.19897904    0.00196147   -0.00268229
     atom    9 type  3   force =     0.16922460    0.00361797   -0.00388299
     atom   10 type  3   force =    -0.02283682   -0.02832060   -0.05737082
     atom   11 type  3   force =    -0.02114859   -0.03198354    0.05532356
     atom   12 type  3   force =    -0.01811344    0.03314419   -0.05252179
     atom   13 type  3   force =    -0.01801462    0.02649479    0.05835382
     atom   14 type  3   force =     0.02447086   -0.03195953   -0.06030014
     atom   15 type  3   force =     0.02153912   -0.03598155    0.05855560
     atom   16 type  3   force =     0.01842145    0.03691362   -0.05568064
     atom   17 type  3   force =     0.01993955    0.03014592    0.06136188
     atom   18 type  4   force =    -0.00054790    0.03264540   -0.02420570
     atom   19 type  4   force =    -0.13423786   -0.00432161   -0.11646076
     atom   20 type  4   force =    -0.13753202    0.00539223    0.11820254
     atom   21 type  4   force =     0.13394922   -0.00452297   -0.11648601
     atom   22 type  4   force =     0.13689751    0.00573148    0.11835601
     atom   23 type  5   force =     0.03550082   -0.00010006    0.00091796
     The non-local contrib.  to forces
     atom    1 type  1   force =     0.00818891   -0.01574753    0.03184826
     atom    2 type  1   force =    -0.26059657   -0.15763167    0.01688631
     atom    3 type  1   force =    -0.25445328    0.15326335   -0.02775692
     atom    4 type  1   force =     0.25699026   -0.16342036    0.01709231
     atom    5 type  1   force =     0.25075484    0.15873458   -0.02834810
     atom    6 type  2   force =     0.00843250   -0.06129539   -0.06269931
     atom    7 type  2   force =     0.00968606    0.07107672    0.05576453
     atom    8 type  3   force =    -0.18130781    0.00076635   -0.00462518
     atom    9 type  3   force =     0.27643851   -0.00073722   -0.00351845
     atom   10 type  3   force =    -0.21576268    0.00640375   -0.21291257
     atom   11 type  3   force =    -0.22093863    0.01053728    0.20240693
     atom   12 type  3   force =    -0.20052650   -0.02094969   -0.18763872
     atom   13 type  3   force =    -0.21094660   -0.00825339    0.21208393
     atom   14 type  3   force =     0.21194767    0.00466824   -0.21240463
     atom   15 type  3   force =     0.21527484    0.00757994    0.20236260
     atom   16 type  3   force =     0.19569336   -0.01897720   -0.18647435
     atom   17 type  3   force =     0.20779300   -0.00588266    0.21165231
     atom   18 type  4   force =     0.00757279    0.06917114   -0.06423841
     atom   19 type  4   force =     0.06376264    0.00800950    0.06334862
     atom   20 type  4   force =     0.06000661   -0.00953336   -0.05848555
     atom   21 type  4   force =    -0.06848477    0.00737669    0.06150197
     atom   22 type  4   force =    -0.06442862   -0.00870237   -0.05573176
     atom   23 type  5   force =     0.01900225    0.00019029   -0.00019043
     The ionic contribution  to forces
     atom    1 type  1   force =     0.06078278   -4.98726353   14.70902021
     atom    2 type  1   force =   -34.39251070   -6.42153713    0.77602488
     atom    3 type  1   force =   -34.38092639    6.40293529   -0.71316768
     atom    4 type  1   force =    34.55916075   -6.27151328    0.77832129
     atom    5 type  1   force =    34.54597921    6.25806736   -0.71308693
     atom    6 type  2   force =     0.06711390   -3.96037070  -14.65071283
     atom    7 type  2   force =     0.06789782    3.99571983   14.68390199
     atom    8 type  3   force =   -45.71295194    0.08317063   -0.07975162
     atom    9 type  3   force =    45.90770943    0.08043489   -0.07666283
     atom   10 type  3   force =   -31.04100436   -2.18643873  -23.69087096
     atom   11 type  3   force =   -30.10752645   -0.93488086   22.69365227
     atom   12 type  3   force =   -30.22933255    0.88071566  -22.74010113
     atom   13 type  3   force =   -31.01666833    2.27396952   23.67389560
     atom   14 type  3   force =    31.09895576   -2.14760043  -23.64060629
     atom   15 type  3   force =    30.16575209   -0.89481126   22.64230185
     atom   16 type  3   force =    30.28595105    0.84303841  -22.69102205
     atom   17 type  3   force =    31.07495309    2.23488347   23.62367444
     atom   18 type  4   force =     0.05589232    4.74598840  -14.56325954
     atom   19 type  4   force =   -30.99466005    0.96027092  -26.29327528
     atom   20 type  4   force =   -30.95937530   -0.95372206   26.27723563
     atom   21 type  4   force =    31.14653277    0.96058432  -26.13299600
     atom   22 type  4   force =    31.11320276   -0.95573758   26.11121531
     atom   23 type  5   force =    -1.31492765   -0.00590316    0.01626967
     The local contribution  to forces
     atom    1 type  1   force =    -0.07501206    4.97011752  -14.72316815
     atom    2 type  1   force =    34.54628076    6.56593698   -0.80342132
     atom    3 type  1   force =    34.52994728   -6.54576732    0.73869981
     atom    4 type  1   force =   -34.71326677    6.41693239   -0.80571162
     atom    5 type  1   force =   -34.69523011   -6.40201613    0.73922896
     atom    6 type  2   force =    -0.08252294    3.99582068   14.70422441
     atom    7 type  2   force =    -0.08426366   -4.04743656  -14.74043954
     atom    8 type  3   force =    45.71520616   -0.08248931    0.07827405
     atom    9 type  3   force =   -46.06371900   -0.07628543    0.07277633
     atom   10 type  3   force =    31.25609998    2.13853183   23.86098709
     atom   11 type  3   force =    30.33166555    0.88447318  -22.85583553
     atom   12 type  3   force =    30.43404356   -0.81322508   22.88906586
     atom   13 type  3   force =    31.23199477   -2.23278241  -23.84220140
     atom   14 type  3   force =   -31.30949034    2.09627419   23.80635497
     atom   15 type  3   force =   -30.38492804    0.84267971  -22.80043309
     atom   16 type  3   force =   -30.48628277   -0.77290972   22.83471574
     atom   17 type  3   force =   -31.28655909   -2.19131273  -23.78785067
     atom   18 type  4   force =    -0.06799158   -4.77645280   14.59445645
     atom   19 type  4   force =    30.80419583   -0.97264418   26.12154785
     atom   20 type  4   force =    30.77269928    0.96869246  -26.10899234
     atom   21 type  4   force =   -30.95495054   -0.97226637   25.96001399
     atom   22 type  4   force =   -30.92616903    0.97020233  -25.94258526
     atom   23 type  5   force =     1.33338871    0.00559275   -0.01638585
     The core correction contribution to forces
     atom    1 type  1   force =    -0.00019892    0.00357436   -0.00115206
     atom    2 type  1   force =    -0.01275642   -0.00167204    0.00119193
     atom    3 type  1   force =    -0.01284065    0.00237995   -0.00174722
     atom    4 type  1   force =     0.01312467   -0.00170857    0.00105871
     atom    5 type  1   force =     0.01319989    0.00255823   -0.00180704
     atom    6 type  2   force =    -0.00034040    0.00264073    0.00226821
     atom    7 type  2   force =    -0.00040290   -0.00319266   -0.00177450
     atom    8 type  3   force =    -0.02037722    0.00013393   -0.00032956
     atom    9 type  3   force =     0.03070126    0.00010497   -0.00026831
     atom   10 type  3   force =    -0.02368896    0.00970768   -0.01503122
     atom   11 type  3   force =    -0.02509934    0.01050272    0.01558797
     atom   12 type  3   force =    -0.02330246   -0.01023603   -0.01452139
     atom   13 type  3   force =    -0.02323856   -0.00939524    0.01544606
     atom   14 type  3   force =     0.02267267    0.00875537   -0.01598003
     atom   15 type  3   force =     0.02419705    0.00933931    0.01663884
     atom   16 type  3   force =     0.02244718   -0.00908016   -0.01554499
     atom   17 type  3   force =     0.02247273   -0.00841353    0.01652574
     atom   18 type  4   force =    -0.00034294   -0.00351766    0.00286148
     atom   19 type  4   force =    -0.01019712    0.00014316   -0.00888449
     atom   20 type  4   force =    -0.01012720    0.00010814    0.00868316
     atom   21 type  4   force =     0.01042107    0.00017382   -0.00884725
     atom   22 type  4   force =     0.01033445    0.00007308    0.00861496
     atom   23 type  5   force =     0.00000000    0.00000000    0.00000000
     The Hubbard contrib.    to forces
     atom    1 type  1   force =     0.00000000    0.00000000    0.00000000
     atom    2 type  1   force =     0.00000000    0.00000000    0.00000000
     atom    3 type  1   force =     0.00000000    0.00000000    0.00000000
     atom    4 type  1   force =     0.00000000    0.00000000    0.00000000
     atom    5 type  1   force =     0.00000000    0.00000000    0.00000000
     atom    6 type  2   force =     0.00000000    0.00000000    0.00000000
     atom    7 type  2   force =     0.00000000    0.00000000    0.00000000
     atom    8 type  3   force =     0.00000000    0.00000000    0.00000000
     atom    9 type  3   force =     0.00000000    0.00000000    0.00000000
     atom   10 type  3   force =     0.00000000    0.00000000    0.00000000
     atom   11 type  3   force =     0.00000000    0.00000000    0.00000000
     atom   12 type  3   force =     0.00000000    0.00000000    0.00000000
     atom   13 type  3   force =     0.00000000    0.00000000    0.00000000
     atom   14 type  3   force =     0.00000000    0.00000000    0.00000000
     atom   15 type  3   force =     0.00000000    0.00000000    0.00000000
     atom   16 type  3   force =     0.00000000    0.00000000    0.00000000
     atom   17 type  3   force =     0.00000000    0.00000000    0.00000000
     atom   18 type  4   force =     0.00000000    0.00000000    0.00000000
     atom   19 type  4   force =     0.00000000    0.00000000    0.00000000
     atom   20 type  4   force =     0.00000000    0.00000000    0.00000000
     atom   21 type  4   force =     0.00000000    0.00000000    0.00000000
     atom   22 type  4   force =     0.00000000    0.00000000    0.00000000
     atom   23 type  5   force =     0.00000000    0.00000000    0.00000000
     The SCF correction term to forces
     atom    1 type  1   force =     0.00000000   -0.00000000    0.00000000
     atom    2 type  1   force =     0.00027924   -0.00054284    0.00485746
     atom    3 type  1   force =     0.00027077    0.00033027    0.00497892
     atom    4 type  1   force =     0.00184843    0.00350325    0.00493286
     atom    5 type  1   force =     0.00171480   -0.00362255    0.00491280
     atom    6 type  2   force =     0.00427068    0.00219586    0.00524345
     atom    7 type  2   force =     0.00409643    0.00220895    0.00504514
     atom    8 type  3   force =    -0.00003037    0.00040273    0.00321854
     atom    9 type  3   force =     0.01761225    0.00012363    0.00325881
     atom   10 type  3   force =     0.00103705    0.00349773   -0.00007462
     atom   11 type  3   force =     0.00026813   -0.00259299   -0.00101955
     atom   12 type  3   force =     0.00052237   -0.00313781    0.00014212
     atom   13 type  3   force =     0.00036195    0.00297917   -0.00140183
     atom   14 type  3   force =    -0.00009705    0.00596596    0.00180439
     atom   15 type  3   force =     0.00076103   -0.00074639   -0.00284606
     atom   16 type  3   force =     0.00013048   -0.00513486    0.00211355
     atom   17 type  3   force =     0.00079767    0.00089423   -0.00317140
     atom   18 type  4   force =     0.00383936   -0.00252083    0.00544286
     atom   19 type  4   force =     0.00217869   -0.00007816    0.00027106
     atom   20 type  4   force =    -0.00121756   -0.00013010   -0.00076982
     atom   21 type  4   force =    -0.00005145   -0.00036858    0.00330982
     atom   22 type  4   force =     0.00347579   -0.00008112   -0.00368870
     atom   23 type  5   force =    -0.00244463    0.00004291    0.00069311

     Total force =     0.543500     Total SCF correction =     0.028138

     Entering Dynamics:    iteration =    15
                           time      =   0.0030 pico-seconds


ATOMIC_POSITIONS (angstrom)
Hf            2.6699999570        2.8271230292        6.6039642186    0   0   0
Hf            1.2522019875        1.2861865512        5.0584526034
Hf            1.2547064823        7.3898854295        5.0880913280
Hf            4.0878035736        1.2862159853        5.0584487583
Hf            4.0852988784        7.3898563391        5.0880940598
Nb            2.6700348619        2.7967315868        3.5156318690
Nb            2.6700327966        5.8765554099        6.6349642175
Ta            1.2085970239        4.3409507044        5.0711036215
Ta            4.0579864577        4.3411927295        5.0708093117
Ta            1.3070901673        1.3139281485        2.0584046542
Ta            1.3026358189        1.3081608301        8.0949387243
Ta            1.3038805398        7.3760551459        2.0458872641
Ta            1.3075765271        7.3652736507        8.0863735387
Ta            4.0329005702        1.3139466911        2.0584110051
Ta            4.0373601842        1.3081838694        8.0949277012
Ta            4.0361160923        7.3760335533        2.0458984984
Ta            4.0324129497        7.3652539583        8.0863664442
Zr            2.6700228171        5.8666001115        3.5271978211
Zr            1.2421004047        4.3220174954        1.9985373633
Zr            1.2386036265        4.3541967205        8.1512403846
Zr            4.0979046018        4.3220100835        1.9985593376
Zr            4.1014021102        4.3542024302        8.1512143765
H             7.5048150417        4.3175877835        5.0989191608


     kinetic energy (Ekin) =          18.23173090 Ry
     temperature           =       87229.17088081 K 
     Ekin + Etot (const)   =       -2924.80904349 Ry

     The maximum number of steps has been reached.

     End of molecular dynamics calculation

     diffusion coefficients :
     atom     1   D =       0.00000000 cm^2/s
     atom     2   D =       0.00000000 cm^2/s
     atom     3   D =       0.00000000 cm^2/s
     atom     4   D =       0.00000000 cm^2/s
     atom     5   D =       0.00000000 cm^2/s
     atom     6   D =       0.00000000 cm^2/s
     atom     7   D =       0.00000000 cm^2/s
     atom     8   D =       0.00000000 cm^2/s
     atom     9   D =       0.00002886 cm^2/s
     atom    10   D =       0.00000000 cm^2/s
     atom    11   D =       0.00000000 cm^2/s
     atom    12   D =       0.00000000 cm^2/s
     atom    13   D =       0.00000000 cm^2/s
     atom    14   D =       0.00000000 cm^2/s
     atom    15   D =       0.00000000 cm^2/s
     atom    16   D =       0.00000000 cm^2/s
     atom    17   D =       0.00000000 cm^2/s
     atom    18   D =       0.00000000 cm^2/s
     atom    19   D =       0.00000003 cm^2/s
     atom    20   D =       0.00000003 cm^2/s
     atom    21   D =       0.00000003 cm^2/s
     atom    22   D =       0.00000003 cm^2/s
     atom    23   D =       0.01921498 cm^2/s

     < D > =       0.00087473 cm^2/s

     Writing all to output data dir outdir/pwscf.save/

     init_run     :     29.12s CPU     29.70s WALL (       1 calls)
     electrons    :   4127.07s CPU   4190.46s WALL (      15 calls)
     update_pot   :     37.80s CPU     38.10s WALL (      14 calls)
     forces       :    281.93s CPU    285.89s WALL (      15 calls)

     Called by init_run:
     wfcinit      :     23.38s CPU     23.57s WALL (       1 calls)
     potinit      :      1.14s CPU      1.20s WALL (       1 calls)
     hinit0       :      2.08s CPU      2.13s WALL (       1 calls)

     Called by electrons:
     c_bands      :   3368.48s CPU   3391.34s WALL (      80 calls)
     sum_band     :    540.92s CPU    562.90s WALL (      80 calls)
     v_of_rho     :     25.24s CPU     26.29s WALL (      95 calls)
     newd         :    227.85s CPU    248.11s WALL (      95 calls)
     mix_rho      :      1.94s CPU      1.98s WALL (      80 calls)

     Called by c_bands:
     init_us_2    :      5.23s CPU      5.26s WALL (     352 calls)
     init_us_2:cp :      5.23s CPU      5.26s WALL (     352 calls)
     regterg      :   3342.47s CPU   3365.14s WALL (     160 calls)

     Called by *egterg:
     rdiaghg      :     59.87s CPU     60.58s WALL (    1289 calls)
     h_psi        :   1385.22s CPU   1400.40s WALL (    1319 calls)
     s_psi        :    495.65s CPU    496.57s WALL (    1319 calls)
     g_psi        :      1.00s CPU      1.01s WALL (    1157 calls)

     Called by h_psi:
     h_psi:calbec :    598.06s CPU    599.29s WALL (    1319 calls)
     vloc_psi     :    284.74s CPU    297.62s WALL (    1319 calls)
     add_vuspsi   :    500.24s CPU    501.30s WALL (    1319 calls)

     General routines
     calbec       :    989.96s CPU    991.94s WALL (    1599 calls)
     fft          :     23.18s CPU     24.30s WALL (    1664 calls)
     ffts         :      0.56s CPU      0.59s WALL (      80 calls)
     fftw         :    290.74s CPU    303.77s WALL (   84718 calls)

     Parallel routines

     PWSCF        :      1h15m CPU      1h16m WALL


   This run was terminated on:  21:20: 0   6Jun2023            

=------------------------------------------------------------------------------=
   JOB DONE.
=------------------------------------------------------------------------------=
