
     Program PWSCF v.7.2 starts on  8Jun2023 at 14:26: 3 

     This program is part of the open-source Quantum ESPRESSO suite
     for quantum simulation of materials; please cite
         "P. Giannozzi et al., J. Phys.:Condens. Matter 21 395502 (2009);
         "P. Giannozzi et al., J. Phys.:Condens. Matter 29 465901 (2017);
         "P. Giannozzi et al., J. Chem. Phys. 152 154105 (2020);
          URL http://www.quantum-espresso.org", 
     in publications or presentations arising from this work. More details at
     http://www.quantum-espresso.org/quote

     Parallel version (MPI), running on    12 processors

     MPI processes distributed on     1 nodes
     71394 MiB available memory on the printing compute node when the environment starts

     Reading input from md_Hf5Nb2Ta10Zr5H_10steps_1000eV_incident45_polar45.in
Warning: card &CELL ignored
Warning: card / ignored

     Current dimensions of program PWSCF are:
     Max number of different atomic species (ntypx) = 10
     Max number of k-points (npk) =  40000
     Max angular momentum in pseudopotentials (lmaxx) =  4

     File outdir/pwscf.md deleted, as requested

     gamma-point specific algorithms are used

     R & G space division:  proc/nbgrp/npool/nimage =      12
     Subspace diagonalization in iterative solution of the eigenvalue problem:
     one sub-group per band group will be used
     custom distributed-memory algorithm (size of sub-group:  2*  2 procs)


     Parallelization info
     --------------------
     sticks:   dense  smooth     PW     G-vecs:    dense   smooth      PW
     Min         920     920    228                82164    82164   10260
     Max         922     922    230                82170    82170   10270
     Sum       11057   11057   2753               986005   986005  123175

     Using Slab Decomposition



     bravais-lattice index     =            0
     lattice parameter (alat)  =      17.6500  a.u.
     unit-cell volume          =    5552.8853 (a.u.)^3
     number of atoms/cell      =           23
     number of atomic types    =            5
     number of electrons       =       277.00
     number of Kohn-Sham states=          167
     kinetic-energy cutoff     =     120.0000  Ry
     charge density cutoff     =     480.0000  Ry
     scf convergence threshold =      1.0E-03
     mixing beta               =       0.7000
     number of iterations used =            8  TF        mixing
     energy convergence thresh.=      0.0E+00
     force convergence thresh. =      0.0E+00
     Exchange-correlation=  SLA  PW   PBX  PBC
                           (   1   4   3   4   0   0   0)
     nstep                     =           10


     celldm(1)=  17.650041  celldm(2)=   0.000000  celldm(3)=   0.000000
     celldm(4)=   0.000000  celldm(5)=   0.000000  celldm(6)=   0.000000

     crystal axes: (cart. coord. in units of alat)
               a(1) = (   1.000000   0.000000   0.000000 )  
               a(2) = (   0.000000   0.929336   0.000000 )  
               a(3) = (   0.000000   0.000000   1.086698 )  

     reciprocal axes: (cart. coord. in units 2 pi/alat)
               b(1) = (  1.000000  0.000000  0.000000 )  
               b(2) = (  0.000000  1.076037  0.000000 )  
               b(3) = (  0.000000  0.000000  0.920219 )  


     PseudoPot. # 1 for Hf read from file:
     q-e/pseudo/hf_pbe_v1.uspp.F.UPF
     MD5 check sum: 8ee9378dfe14276e333edf04c5e4aa26
     Pseudo is Ultrasoft + core correction, Zval = 12.0
     Generated by new atomic code, or converted to UPF format
     Using radial grid of  921 points,  8 beta functions with: 
                l(1) =   0
                l(2) =   0
                l(3) =   0
                l(4) =   1
                l(5) =   1
                l(6) =   2
                l(7) =   2
                l(8) =   3
     Q(r) pseudized with  6 coefficients,  rinner =    1.200   1.200   1.200
                                                       1.200   1.200   1.200
                                                       1.200

     PseudoPot. # 2 for Nb read from file:
     q-e/pseudo/nb_pbe_v1.uspp.F.UPF
     MD5 check sum: 573aab8a2fa660278ed4a62cd769473f
     Pseudo is Ultrasoft + core correction, Zval = 13.0
     Generated by new atomic code, or converted to UPF format
     Using radial grid of  887 points,  6 beta functions with: 
                l(1) =   0
                l(2) =   0
                l(3) =   1
                l(4) =   1
                l(5) =   2
                l(6) =   2
     Q(r) pseudized with  6 coefficients,  rinner =    1.000   1.000   1.000
                                                       1.000   1.000

     PseudoPot. # 3 for Ta read from file:
     q-e/pseudo/ta_pbe_v1.uspp.F.UPF
     MD5 check sum: f8bbe9446314a3b8ea5d9f3e3836c939
     Pseudo is Ultrasoft + core correction, Zval = 13.0
     Generated by new atomic code, or converted to UPF format
     Using radial grid of  921 points,  7 beta functions with: 
                l(1) =   0
                l(2) =   0
                l(3) =   1
                l(4) =   1
                l(5) =   2
                l(6) =   2
                l(7) =   3
     Q(r) pseudized with  6 coefficients,  rinner =    1.300   1.300   1.300
                                                       1.300   1.300   1.300
                                                       1.300

     PseudoPot. # 4 for Zr read from file:
     q-e/pseudo/zr_pbe_v1.uspp.F.UPF
     MD5 check sum: 5db81b1e868ab7776c4564c113de050b
     Pseudo is Ultrasoft + core correction, Zval = 12.0
     Generated by new atomic code, or converted to UPF format
     Using radial grid of  887 points,  6 beta functions with: 
                l(1) =   0
                l(2) =   0
                l(3) =   1
                l(4) =   1
                l(5) =   2
                l(6) =   2
     Q(r) pseudized with  6 coefficients,  rinner =    1.200   1.200   1.200
                                                       1.200   1.200

     PseudoPot. # 5 for H  read from file:
     q-e/pseudo/h_pbe_v1.4.uspp.F.UPF
     MD5 check sum: 761ae9a214b05c3daf00ab9f6b793d6f
     Pseudo is Ultrasoft, Zval =  1.0
     Generated by new atomic code, or converted to UPF format
     Using radial grid of  615 points,  2 beta functions with: 
                l(1) =   0
                l(2) =   0
     Q(r) pseudized with  8 coefficients,  rinner =    0.700

     atomic species   valence    mass     pseudopotential
        Hf            12.00   178.49000     Hf( 1.00)
        Nb            13.00    92.90637     Nb( 1.00)
        Ta            13.00   180.94788     Ta( 1.00)
        Zr            12.00    91.22400     Zr( 1.00)
        H              1.00     2.01400     H ( 1.00)

     Starting magnetic structure 
     atomic species   magnetization
        Hf           0.000
        Nb           0.000
        Ta           0.000
        Zr           0.000
        H            0.000

     No symmetry found



   Cartesian axes

     site n.     atom                  positions (alat units)
         1           Hf  tau(   1) = (   0.2858672   0.3026898   0.7070626  )
         2           Hf  tau(   2) = (   0.1341532   0.1377178   0.5415917  )
         3           Hf  tau(   3) = (   0.1344204   0.7911996   0.5447610  )
         4           Hf  tau(   4) = (   0.4375813   0.1377178   0.5415917  )
         5           Hf  tau(   5) = (   0.4373140   0.7911996   0.5447610  )
         6           Nb  tau(   6) = (   0.2858672   0.2994572   0.3764008  )
         7           Nb  tau(   7) = (   0.2858672   0.6291626   0.7103852  )
         8           Ta  tau(   8) = (   0.1294832   0.4647675   0.5429471  )
         9           Ta  tau(   9) = (   0.4422513   0.4647675   0.5429471  )
        10           Ta  tau(  10) = (   0.1399628   0.1406984   0.2204260  )
        11           Ta  tau(  11) = (   0.1394848   0.1400847   0.8666573  )
        12           Ta  tau(  12) = (   0.1396156   0.7897030   0.2190832  )
        13           Ta  tau(  13) = (   0.1400119   0.7885528   0.8657390  )
        14           Ta  tau(  14) = (   0.4317717   0.1406984   0.2204260  )
        15           Ta  tau(  15) = (   0.4322496   0.1400847   0.8666573  )
        16           Ta  tau(  16) = (   0.4321189   0.7897030   0.2190832  )
        17           Ta  tau(  17) = (   0.4317226   0.7885528   0.8657390  )
        18           Zr  tau(  18) = (   0.2858672   0.6280820   0.3776642  )
        19           Zr  tau(  19) = (   0.1331729   0.4627493   0.2141328  )
        20           Zr  tau(  20) = (   0.1328036   0.4661802   0.8725649  )
        21           Zr  tau(  21) = (   0.4385616   0.4627493   0.2141328  )
        22           Zr  tau(  22) = (   0.4389309   0.4661802   0.8725649  )
        23           H   tau(  23) = (   0.5936660   0.5717345   0.6501263  )

     number of k points=     1  Gaussian smearing, width (Ry)=  0.0220
                       cart. coord. in units 2pi/alat
        k(    1) = (   0.0000000   0.0000000   0.0000000), wk =   1.0000000

     Dense  grid:   493003 G-vectors     FFT dimensions: ( 125, 120, 135)

     Estimated max dynamical RAM per process >     409.34 MB

     Estimated total dynamical RAM >       4.80 GB

     Check: negative core charge=   -0.000002
     Generating pointlists ...
     new r_m :   0.1117 (alat units)  1.9717 (a.u.) for type    1
     new r_m :   0.1098 (alat units)  1.9374 (a.u.) for type    2
     new r_m :   0.0883 (alat units)  1.5591 (a.u.) for type    3
     new r_m :   0.1112 (alat units)  1.9625 (a.u.) for type    4
     new r_m :   0.0883 (alat units)  1.5591 (a.u.) for type    5

     Initial potential from superposition of free atoms

     starting charge     266.9726, renormalised to     277.0000

     negative rho (up, down):  9.217E-01 9.217E-01
     Starting wfcs are  287 randomized atomic wfcs

     total cpu time spent up to now is       29.9 secs

     Self-consistent Calculation

     iteration #  1     ecut=   120.00 Ry     beta= 0.70
     Davidson diagonalization with overlap
     ethr =  1.00E-02,  avg # of iterations =  2.0

     negative rho (up, down):  9.964E-01 9.956E-01

     total cpu time spent up to now is       81.6 secs

     total energy              =   -2930.58400776 Ry
     estimated scf accuracy    <     276.71146824 Ry

     total magnetization       =     0.00 Bohr mag/cell
     absolute magnetization    =     0.07 Bohr mag/cell

     iteration #  2     ecut=   120.00 Ry     beta= 0.70
     Davidson diagonalization with overlap
     ethr =  1.00E-02,  avg # of iterations =  5.0

     negative rho (up, down):  9.671E-01 9.709E-01

     total cpu time spent up to now is      137.4 secs

     total energy              =   -2942.20149613 Ry
     estimated scf accuracy    <      30.17065457 Ry

     total magnetization       =     0.13 Bohr mag/cell
     absolute magnetization    =     0.27 Bohr mag/cell

     iteration #  3     ecut=   120.00 Ry     beta= 0.70
     Davidson diagonalization with overlap
     ethr =  1.00E-02,  avg # of iterations =  2.0

     negative rho (up, down):  1.005E+00 1.005E+00

     total cpu time spent up to now is      190.6 secs

     total energy              =   -2942.65102178 Ry
     estimated scf accuracy    <      12.96228578 Ry

     total magnetization       =     0.09 Bohr mag/cell
     absolute magnetization    =     0.38 Bohr mag/cell

     iteration #  4     ecut=   120.00 Ry     beta= 0.70
     Davidson diagonalization with overlap
     ethr =  4.68E-03,  avg # of iterations =  3.5

     negative rho (up, down):  1.013E+00 1.010E+00

     total cpu time spent up to now is      243.1 secs

     total energy              =   -2942.91702354 Ry
     estimated scf accuracy    <       3.08530721 Ry

     total magnetization       =    -0.05 Bohr mag/cell
     absolute magnetization    =     0.42 Bohr mag/cell

     iteration #  5     ecut=   120.00 Ry     beta= 0.70
     Davidson diagonalization with overlap
     ethr =  1.11E-03,  avg # of iterations =  8.0

     negative rho (up, down):  9.867E-01 9.852E-01

     total cpu time spent up to now is      305.5 secs

     total energy              =   -2943.08034097 Ry
     estimated scf accuracy    <       1.57322732 Ry

     total magnetization       =    -0.02 Bohr mag/cell
     absolute magnetization    =     0.25 Bohr mag/cell

     iteration #  6     ecut=   120.00 Ry     beta= 0.70
     Davidson diagonalization with overlap
     ethr =  5.68E-04,  avg # of iterations =  2.0

     negative rho (up, down):  9.744E-01 9.730E-01

     total cpu time spent up to now is      353.5 secs

     total energy              =   -2943.11974986 Ry
     estimated scf accuracy    <       1.10419143 Ry

     total magnetization       =    -0.00 Bohr mag/cell
     absolute magnetization    =     0.17 Bohr mag/cell

     iteration #  7     ecut=   120.00 Ry     beta= 0.70
     Davidson diagonalization with overlap
     ethr =  3.99E-04,  avg # of iterations =  2.0

     negative rho (up, down):  9.468E-01 9.461E-01

     total cpu time spent up to now is      407.6 secs

     total energy              =   -2943.07035571 Ry
     estimated scf accuracy    <       0.38958465 Ry

     total magnetization       =    -0.02 Bohr mag/cell
     absolute magnetization    =     0.16 Bohr mag/cell

     iteration #  8     ecut=   120.00 Ry     beta= 0.70
     Davidson diagonalization with overlap
     ethr =  1.41E-04,  avg # of iterations =  7.0

     negative rho (up, down):  9.214E-01 9.215E-01

     total cpu time spent up to now is      460.7 secs

     total energy              =   -2943.07066765 Ry
     estimated scf accuracy    <       0.22952202 Ry

     total magnetization       =    -0.03 Bohr mag/cell
     absolute magnetization    =     0.13 Bohr mag/cell

     iteration #  9     ecut=   120.00 Ry     beta= 0.70
     Davidson diagonalization with overlap
     ethr =  8.29E-05,  avg # of iterations =  2.0

     negative rho (up, down):  9.084E-01 9.085E-01

     total cpu time spent up to now is      511.7 secs

     total energy              =   -2943.06621109 Ry
     estimated scf accuracy    <       0.06300972 Ry

     total magnetization       =    -0.02 Bohr mag/cell
     absolute magnetization    =     0.10 Bohr mag/cell

     iteration # 10     ecut=   120.00 Ry     beta= 0.70
     Davidson diagonalization with overlap
     ethr =  2.27E-05,  avg # of iterations = 11.5

     negative rho (up, down):  9.083E-01 9.083E-01

     total cpu time spent up to now is      579.7 secs

     total energy              =   -2943.07008301 Ry
     estimated scf accuracy    <       0.05080510 Ry

     total magnetization       =    -0.01 Bohr mag/cell
     absolute magnetization    =     0.07 Bohr mag/cell

     iteration # 11     ecut=   120.00 Ry     beta= 0.70
     Davidson diagonalization with overlap
     ethr =  1.83E-05,  avg # of iterations =  1.5

     negative rho (up, down):  9.091E-01 9.091E-01

     total cpu time spent up to now is      627.6 secs

     total energy              =   -2943.07455407 Ry
     estimated scf accuracy    <       0.00916498 Ry

     total magnetization       =    -0.01 Bohr mag/cell
     absolute magnetization    =     0.06 Bohr mag/cell

     iteration # 12     ecut=   120.00 Ry     beta= 0.70
     Davidson diagonalization with overlap
     ethr =  3.31E-06,  avg # of iterations =  7.0

     negative rho (up, down):  9.092E-01 9.092E-01

     total cpu time spent up to now is      679.9 secs

     total energy              =   -2943.07735760 Ry
     estimated scf accuracy    <       0.00223282 Ry

     total magnetization       =    -0.01 Bohr mag/cell
     absolute magnetization    =     0.05 Bohr mag/cell

     iteration # 13     ecut=   120.00 Ry     beta= 0.70
     Davidson diagonalization with overlap
     ethr =  8.06E-07,  avg # of iterations =  4.0

     negative rho (up, down):  9.089E-01 9.089E-01

     Magnetic moment per site  (integrated on atomic sphere of radius R)
     atom   1 (R=0.112)  charge=  9.4624   -0.0002
     atom   2 (R=0.112)  charge=  9.0593    0.0002
     atom   3 (R=0.112)  charge=  9.0580    0.0001
     atom   4 (R=0.112)  charge=  9.0592   -0.0000
     atom   5 (R=0.112)  charge=  9.0579    0.0002
     atom   6 (R=0.110)  charge= 10.3494    0.0004
     atom   7 (R=0.110)  charge= 10.3541   -0.0000
     atom   8 (R=0.088)  charge=  8.1263   -0.0001
     atom   9 (R=0.088)  charge=  8.1247    0.0002
     atom  10 (R=0.088)  charge=  8.1053   -0.0008
     atom  11 (R=0.088)  charge=  8.1039    0.0000
     atom  12 (R=0.088)  charge=  8.1051   -0.0005
     atom  13 (R=0.088)  charge=  8.1041   -0.0002
     atom  14 (R=0.088)  charge=  8.1056   -0.0005
     atom  15 (R=0.088)  charge=  8.1018    0.0004
     atom  16 (R=0.088)  charge=  8.1053   -0.0008
     atom  17 (R=0.088)  charge=  8.1112    0.0006
     atom  18 (R=0.111)  charge=  9.4530    0.0002
     atom  19 (R=0.111)  charge=  8.9980   -0.0020
     atom  20 (R=0.111)  charge=  8.9959    0.0012
     atom  21 (R=0.111)  charge=  8.9961   -0.0019
     atom  22 (R=0.111)  charge=  8.9949    0.0017
     atom  23 (R=0.088)  charge=  0.9866   -0.0000

     total cpu time spent up to now is      727.1 secs

     End of self-consistent calculation

 ------ SPIN UP ------------


          k = 0.0000 0.0000 0.0000 ( 61588 PWs)   bands (ev):

   -60.7833 -60.7779 -60.7382 -60.7349 -60.6994 -60.6980 -60.6545 -60.6514
   -60.5320 -60.4366 -54.3846 -54.3388 -54.2540 -54.2088 -52.6952 -46.2979
   -46.2583 -41.6675 -41.6234 -41.5685 -41.5228 -39.7988 -27.7864 -27.7745
   -27.6965 -27.6902 -27.6001 -27.5864 -27.4665 -27.4563 -27.3931 -27.3358
   -27.3132 -27.2707 -27.2662 -27.2426 -27.2264 -27.1738 -27.1627 -27.1539
   -27.1001 -27.0882 -27.0346 -26.9677 -26.9629 -26.9519 -26.9500 -26.9322
   -26.8917 -26.8772 -26.8543 -26.8509 -24.1703 -23.9593 -23.6597 -23.5680
   -23.3140 -23.1928 -23.1681 -23.0648 -22.9316 -22.8634 -22.8375 -22.6168
   -22.5230 -22.4628 -22.4044 -22.3792 -22.2782 -22.2431 -21.7587 -21.6926
   -21.6246 -20.1917 -19.9670 -19.8241 -19.8217 -19.6581 -19.6183 -19.6033
   -19.5890 -19.5711 -19.5484 -19.3882 -19.3625 -18.1434 -17.9409 -17.8158
     1.3798   2.6039   2.9358   3.1351   3.3250   3.4022   3.4959   3.6801
     3.6954   3.7743   3.9125   4.0318   4.1980   4.5004   4.6321   4.6975
     4.7648   4.8364   5.0456   5.1092   5.1639   5.2638   5.2872   5.3166
     5.3891   5.5493   5.5772   5.7132   5.7310   5.7519   5.7608   5.8053
     5.9498   6.0737   6.1591   6.2150   6.2705   6.3070   6.3567   6.3850
     6.4457   6.5955   6.6601   6.7002   6.9218   6.9475   7.0133   7.0734
     7.1064   7.1515   7.2648   7.3112   7.3329   7.4556   7.5389   7.5851
     7.6171   7.7484   7.8929   7.9292   8.0846   8.0923   8.1171   8.1837
     8.2430   8.3036   8.3479   8.3692   8.4765   8.5448   8.6268   8.7072
     8.8164   8.9077   8.9605   9.0655   9.1763   9.2452   9.2762

 ------ SPIN DOWN ----------


          k = 0.0000 0.0000 0.0000 ( 61588 PWs)   bands (ev):

   -60.7833 -60.7787 -60.7380 -60.7358 -60.7000 -60.6977 -60.6543 -60.6520
   -60.5320 -60.4364 -54.3845 -54.3387 -54.2540 -54.2087 -52.6954 -46.2979
   -46.2579 -41.6661 -41.6254 -41.5673 -41.5248 -39.7985 -27.7861 -27.7754
   -27.6964 -27.6912 -27.6000 -27.5873 -27.4665 -27.4570 -27.3930 -27.3363
   -27.3136 -27.2716 -27.2661 -27.2426 -27.2269 -27.1738 -27.1634 -27.1538
   -27.1003 -27.0881 -27.0346 -26.9676 -26.9626 -26.9521 -26.9503 -26.9331
   -26.8917 -26.8780 -26.8540 -26.8519 -24.1701 -23.9592 -23.6595 -23.5679
   -23.3138 -23.1925 -23.1678 -23.0646 -22.9315 -22.8632 -22.8374 -22.6168
   -22.5229 -22.4625 -22.4042 -22.3790 -22.2779 -22.2429 -21.7588 -21.6926
   -21.6247 -20.1938 -19.9645 -19.8266 -19.8236 -19.6567 -19.6169 -19.6029
   -19.5903 -19.5727 -19.5476 -19.3863 -19.3654 -18.1432 -17.9409 -17.8157
     1.3798   2.6038   2.9353   3.1351   3.3249   3.4023   3.4956   3.6801
     3.6954   3.7742   3.9119   4.0316   4.1981   4.5003   4.6322   4.6974
     4.7648   4.8363   5.0454   5.1087   5.1637   5.2636   5.2872   5.3165
     5.3888   5.5493   5.5772   5.7130   5.7309   5.7514   5.7606   5.8051
     5.9498   6.0735   6.1586   6.2148   6.2704   6.3066   6.3568   6.3849
     6.4456   6.5954   6.6597   6.6999   6.9214   6.9474   7.0126   7.0727
     7.1056   7.1512   7.2645   7.3106   7.3325   7.4542   7.5404   7.5834
     7.6166   7.7479   7.8926   7.9292   8.0842   8.0919   8.1169   8.1831
     8.2422   8.3036   8.3472   8.3686   8.4760   8.5442   8.6266   8.7068
     8.8163   8.9068   8.9610   9.0652   9.1764   9.2446   9.2786

     the Fermi energy is     7.2485 ev

!    total energy              =   -2943.07865348 Ry
     estimated scf accuracy    <       0.00046958 Ry
     smearing contrib. (-TS)   =      -0.10113197 Ry
     internal energy E=F+TS    =   -2942.97752151 Ry

     total magnetization       =    -0.01 Bohr mag/cell
     absolute magnetization    =     0.04 Bohr mag/cell

     convergence has been achieved in  13 iterations

     negative rho (up, down):  9.089E-01 9.089E-01

     Forces acting on atoms (cartesian axes, Ry/au):

     atom    1 type  1   force =    -0.00088552   -0.02341878    0.00601672
     atom    2 type  1   force =    -0.11419927   -0.01621507   -0.00189527
     atom    3 type  1   force =    -0.11257323    0.01408945    0.00431281
     atom    4 type  1   force =     0.11412209   -0.01321247   -0.00658225
     atom    5 type  1   force =     0.12350764    0.00095764    0.00533240
     atom    6 type  2   force =    -0.01150143   -0.02059080    0.00422960
     atom    7 type  2   force =    -0.02584082    0.00944087   -0.01418496
     atom    8 type  3   force =    -0.11019975    0.00464437   -0.00195374
     atom    9 type  3   force =     0.13919160    0.00768407    0.00377954
     atom   10 type  3   force =    -0.02021091   -0.03011961   -0.05869456
     atom   11 type  3   force =    -0.02214996   -0.03442572    0.05631004
     atom   12 type  3   force =    -0.02036462    0.03552801   -0.05493213
     atom   13 type  3   force =    -0.01159422    0.03053676    0.06206088
     atom   14 type  3   force =     0.02275165   -0.02917520   -0.05773113
     atom   15 type  3   force =     0.01911528   -0.03799652    0.05769161
     atom   16 type  3   force =     0.02078519    0.03663668   -0.05120532
     atom   17 type  3   force =     0.01200248    0.04356239    0.06142757
     atom   18 type  4   force =     0.00034436    0.02601673   -0.00683274
     atom   19 type  4   force =    -0.13017581   -0.00559048   -0.11662767
     atom   20 type  4   force =    -0.13060476    0.00586429    0.11508816
     atom   21 type  4   force =     0.12749805   -0.00808454   -0.11564856
     atom   22 type  4   force =     0.14778639    0.00414235    0.10533654
     atom   23 type  5   force =    -0.01680445   -0.00027446    0.00470245
     The non-local contrib.  to forces
     atom    1 type  1   force =     0.00149499   -0.01176745    0.03053994
     atom    2 type  1   force =    -0.24645624   -0.16268143    0.01429882
     atom    3 type  1   force =    -0.23921537    0.15550052   -0.01951346
     atom    4 type  1   force =     0.24683382   -0.16290241    0.02510878
     atom    5 type  1   force =     0.25583761    0.13465098    0.00201969
     atom    6 type  2   force =     0.00775866   -0.05488376   -0.06408456
     atom    7 type  2   force =    -0.02128016    0.06848573    0.06234126
     atom    8 type  3   force =    -0.26107762    0.00558317    0.00311349
     atom    9 type  3   force =     0.15886168   -0.03631490   -0.02589400
     atom   10 type  3   force =    -0.21253405    0.00437297   -0.20594873
     atom   11 type  3   force =    -0.21421722    0.00475993    0.19675717
     atom   12 type  3   force =    -0.20804179   -0.02142664   -0.17575781
     atom   13 type  3   force =    -0.20942834   -0.00576590    0.20084517
     atom   14 type  3   force =     0.21131702    0.00466336   -0.21846047
     atom   15 type  3   force =     0.21870836    0.00316569    0.18837021
     atom   16 type  3   force =     0.20092491   -0.01831585   -0.18562182
     atom   17 type  3   force =     0.25174857   -0.03227013    0.15894285
     atom   18 type  4   force =    -0.00605734    0.05701482   -0.06046992
     atom   19 type  4   force =     0.06096773    0.00772600    0.07359218
     atom   20 type  4   force =     0.05456396   -0.02161201   -0.06204744
     atom   21 type  4   force =    -0.05579323    0.01474183    0.07315180
     atom   22 type  4   force =    -0.05883853   -0.00776019   -0.07295227
     atom   23 type  5   force =    -0.03197599   -0.01583520   -0.01483324
     The ionic contribution  to forces
     atom    1 type  1   force =    -0.25060356   -4.76974227   14.01180767
     atom    2 type  1   force =   -39.68685834   -6.13122431    0.73100771
     atom    3 type  1   force =   -39.68943116    6.19825694   -0.78475447
     atom    4 type  1   force =    39.52915440   -6.17756367    0.68013720
     atom    5 type  1   force =    39.16940737    6.70445777   -1.03747099
     atom    6 type  2   force =    -0.14022948   -3.63171022  -14.00343084
     atom    7 type  2   force =    -0.65779736    3.68783857   14.02442997
     atom    8 type  3   force =   -52.15462691   -0.00317444   -0.15891703
     atom    9 type  3   force =    50.83723439   -0.79222965   -0.95579673
     atom   10 type  3   force =   -36.05561274   -2.08935931  -23.06776311
     atom   11 type  3   force =   -35.14317669   -0.85021526   22.10578821
     atom   12 type  3   force =   -35.24685455    0.82558478  -22.13745541
     atom   13 type  3   force =   -36.06821405    2.25093489   23.11957721
     atom   14 type  3   force =    35.98261922   -2.09864207  -23.10257975
     atom   15 type  3   force =    35.00398522   -0.88393777   22.18067232
     atom   16 type  3   force =    35.13681516    0.87462070  -22.21645950
     atom   17 type  3   force =    35.72458796    2.51705765   23.39819169
     atom   18 type  4   force =    -0.23779247    4.38065599  -14.06006057
     atom   19 type  4   force =   -35.90032053    0.93035593  -25.53932039
     atom   20 type  4   force =   -35.91744154   -1.00570987   25.58180572
     atom   21 type  4   force =    35.78241336    0.89611552  -25.64345560
     atom   22 type  4   force =    35.41729196   -1.24867669   26.10008943
     atom   23 type  5   force =     4.56545034    0.41630681    0.77395724
     The local contribution  to forces
     atom    1 type  1   force =     0.24949086    4.75660293  -14.03935184
     atom    2 type  1   force =    39.84358209    6.27541955   -0.74552698
     atom    3 type  1   force =    39.84060671   -6.33575439    0.81216548
     atom    4 type  1   force =   -39.68455154    6.32592466   -0.71562293
     atom    5 type  1   force =   -39.32070241   -6.83801777    1.04160658
     atom    6 type  2   force =     0.12732535    3.66129198   14.07253763
     atom    7 type  2   force =     0.65803903   -3.74488928  -14.10317004
     atom    8 type  3   force =    52.34276579   -0.00066567    0.15469567
     atom    9 type  3   force =   -50.87521888    0.84159848    0.99006737
     atom   10 type  3   force =    36.27369880    2.05184562   23.23651758
     atom   11 type  3   force =    35.36391241    0.80530894  -22.27058269
     atom   12 type  3   force =    35.46176811   -0.75723336   22.27797978
     atom   13 type  3   force =    36.29369270   -2.20343223  -23.27908319
     atom   14 type  3   force =   -36.19123680    2.05707518   23.28575370
     atom   15 type  3   force =   -35.23296629    0.83470379  -22.33215677
     atom   16 type  3   force =   -35.33523071   -0.80829744   22.37166896
     atom   17 type  3   force =   -35.99067092   -2.43440379  -23.51336581
     atom   18 type  4   force =     0.25280721   -4.41096660   14.11631490
     atom   19 type  4   force =    35.71869713   -0.94886964   25.36312695
     atom   20 type  4   force =    35.74276588    1.02889172  -25.41849099
     atom   21 type  4   force =   -35.60275986   -0.92056660   25.47117546
     atom   22 type  4   force =   -35.21883667    1.25955694  -25.93748971
     atom   23 type  5   force =    -4.55053832   -0.40123979   -0.75478122
     The core correction contribution to forces
     atom    1 type  1   force =     0.00117899    0.00093119   -0.00022689
     atom    2 type  1   force =    -0.01176238   -0.00152346   -0.00000368
     atom    3 type  1   force =    -0.01247868    0.00237260   -0.00133842
     atom    4 type  1   force =     0.01257168   -0.00185107    0.00300295
     atom    5 type  1   force =     0.01088658    0.00406899   -0.00034326
     atom    6 type  2   force =    -0.00042019    0.00260032    0.00269055
     atom    7 type  2   force =     0.00123560   -0.00352743   -0.00247113
     atom    8 type  3   force =    -0.03184557    0.00115463    0.00047030
     atom    9 type  3   force =     0.01803034   -0.00671172   -0.00506966
     atom   10 type  3   force =    -0.02202223    0.00933325   -0.01636534
     atom   11 type  3   force =    -0.02404794    0.00878975    0.01828375
     atom   12 type  3   force =    -0.02191404   -0.01005096   -0.01535286
     atom   13 type  3   force =    -0.02257508   -0.00958637    0.01588133
     atom   14 type  3   force =     0.02174265    0.00976188   -0.01641211
     atom   15 type  3   force =     0.02384134    0.00966396    0.01481849
     atom   16 type  3   force =     0.02242717   -0.01091839   -0.01597634
     atom   17 type  3   force =     0.02495563   -0.00905364    0.01277016
     atom   18 type  4   force =     0.00037380   -0.00294011    0.00291635
     atom   19 type  4   force =    -0.00977169    0.00008933   -0.00960150
     atom   20 type  4   force =    -0.00949948    0.00081450    0.00896541
     atom   21 type  4   force =     0.00948872   -0.00023998   -0.00962042
     atom   22 type  4   force =     0.01010959    0.00044297    0.00902777
     atom   23 type  5   force =     0.00000000    0.00000000    0.00000000
     The Hubbard contrib.    to forces
     atom    1 type  1   force =     0.00000000    0.00000000    0.00000000
     atom    2 type  1   force =     0.00000000    0.00000000    0.00000000
     atom    3 type  1   force =     0.00000000    0.00000000    0.00000000
     atom    4 type  1   force =     0.00000000    0.00000000    0.00000000
     atom    5 type  1   force =     0.00000000    0.00000000    0.00000000
     atom    6 type  2   force =     0.00000000    0.00000000    0.00000000
     atom    7 type  2   force =     0.00000000    0.00000000    0.00000000
     atom    8 type  3   force =     0.00000000    0.00000000    0.00000000
     atom    9 type  3   force =     0.00000000    0.00000000    0.00000000
     atom   10 type  3   force =     0.00000000    0.00000000    0.00000000
     atom   11 type  3   force =     0.00000000    0.00000000    0.00000000
     atom   12 type  3   force =     0.00000000    0.00000000    0.00000000
     atom   13 type  3   force =     0.00000000    0.00000000    0.00000000
     atom   14 type  3   force =     0.00000000    0.00000000    0.00000000
     atom   15 type  3   force =     0.00000000    0.00000000    0.00000000
     atom   16 type  3   force =     0.00000000    0.00000000    0.00000000
     atom   17 type  3   force =     0.00000000    0.00000000    0.00000000
     atom   18 type  4   force =     0.00000000    0.00000000    0.00000000
     atom   19 type  4   force =     0.00000000    0.00000000    0.00000000
     atom   20 type  4   force =     0.00000000    0.00000000    0.00000000
     atom   21 type  4   force =     0.00000000    0.00000000    0.00000000
     atom   22 type  4   force =     0.00000000    0.00000000    0.00000000
     atom   23 type  5   force =     0.00000000    0.00000000    0.00000000
     The SCF correction term to forces
     atom    1 type  1   force =    -0.00000000    0.00000000    0.00000000
     atom    2 type  1   force =    -0.01231551    0.00380539   -0.00168631
     atom    3 type  1   force =    -0.01166583   -0.00627541   -0.00226149
     atom    4 type  1   force =     0.01050261    0.00319083    0.00077659
     atom    5 type  1   force =     0.00846738   -0.00419151   -0.00049479
     atom    6 type  2   force =    -0.00554689    0.00212169   -0.00349836
     atom    7 type  2   force =    -0.00564905    0.00154409    0.00466981
     atom    8 type  3   force =    -0.00502656    0.00175750   -0.00133134
     atom    9 type  3   force =     0.00067297    0.00135267    0.00045739
     atom   10 type  3   force =    -0.00335180   -0.00630132   -0.00515013
     atom   11 type  3   force =    -0.00423163   -0.00305826    0.00604844
     atom   12 type  3   force =    -0.00493346   -0.00133499   -0.00436099
     atom   13 type  3   force =    -0.00468057   -0.00160282    0.00482519
     atom   14 type  3   force =    -0.00130155   -0.00202274   -0.00604768
     atom   15 type  3   force =     0.00593554   -0.00158137    0.00597220
     atom   16 type  3   force =    -0.00376244   -0.00044152   -0.00483178
     atom   17 type  3   force =     0.00177012    0.00224313    0.00487351
     atom   18 type  4   force =    -0.00859796    0.00226343   -0.00554867
     atom   19 type  4   force =     0.00064045    0.00511872   -0.00444007
     atom   20 type  4   force =    -0.00060470    0.00349076    0.00484029
     atom   21 type  4   force =    -0.00546204    0.00187551   -0.00691496
     atom   22 type  4   force =    -0.00155108    0.00059014    0.00664615
     atom   23 type  5   force =     0.00064840    0.00050454    0.00034451

     Total force =     0.501734     Total SCF correction =     0.037908

     Molecular Dynamics Calculation

     Starting temperature  =   300.00 K

     temperature is set once at start

     mass Hf               =   178.49
     mass Nb               =    92.91
     mass Ta               =   180.95
     mass Zr               =    91.22
     mass H                =     2.01
     Time step             =     4.20 a.u.,  0.2032 femto-seconds

     Entering Dynamics:    iteration =     1
                           time      =   0.0002 pico-seconds


ATOMIC_POSITIONS (angstrom)
Hf            2.6699999570        2.8271230292        6.6039642186    0   0   0
Hf            1.2529874039        1.2862837162        5.0584661717
Hf            1.2554836689        7.3898046990        5.0880678911
Hf            4.0870125079        1.2862838023        5.0584660373
Hf            4.0845165588        7.3898043223        5.0880679204
Nb            2.6699993231        2.7969294706        3.5155834498
Nb            2.6699985327        5.8763791967        6.6349971614
Ta            1.2093699373        4.3409279830        5.0711257770
Ta            4.1306307971        4.3409280691        5.0711259393
Ta            1.3072521121        1.3141217370        2.0587774490
Ta            1.3027876874        1.3083901618        8.0945807960
Ta            1.3040090458        7.3758271295        2.0462356252
Ta            1.3077104703        7.3650838126        8.0860039771
Ta            4.0327478738        1.3141217637        2.0587774763
Ta            4.0372121408        1.3083900607        8.0945808351
Ta            4.0359908801        7.3758271609        2.0462357307
Ta            4.0322894553        7.3650841812        8.0860039592
Zr            2.6699999763        5.8662873038        3.5273835468
Zr            1.2438273116        4.3220776507        1.9999934532
Zr            1.2403780813        4.3541236137        8.1497620097
Zr            4.0961724520        4.3220775107        1.9999935081
Zr            4.0996227972        4.3541235170        8.1497614623
H             5.2303299022        5.3399992524        6.0721917513


     kinetic energy (Ekin) =          18.37431130 Ry
     temperature           =       87911.34250823 K 
     Ekin + Etot (const)   =       -2924.70434218 Ry

     File outdir/pwscf.msd.dat deleted, as requested

     Writing config-only to output data dir outdir/pwscf.save/
     NEW-OLD atomic charge density approx. for the potential

     Check: negative core charge=   -0.000002

     negative rho (up, down):  9.088E-01 9.088E-01
     Generating pointlists ...
     new r_m :   0.0791 (alat units)  1.3965 (a.u.) for type    3
     new r_m :   0.0791 (alat units)  1.3965 (a.u.) for type    5

     total cpu time spent up to now is      754.0 secs

     Self-consistent Calculation

     iteration #  1     ecut=   120.00 Ry     beta= 0.70
     Davidson diagonalization with overlap
     ethr =  1.00E-06,  avg # of iterations = 13.0

     negative rho (up, down):  9.089E-01 9.089E-01

     total cpu time spent up to now is      842.1 secs

     total energy              =   -2943.07578072 Ry
     estimated scf accuracy    <       0.01532417 Ry

     total magnetization       =    -0.01 Bohr mag/cell
     absolute magnetization    =     0.03 Bohr mag/cell

     iteration #  2     ecut=   120.00 Ry     beta= 0.70
     Davidson diagonalization with overlap
     ethr =  5.53E-06,  avg # of iterations =  2.0

     negative rho (up, down):  9.088E-01 9.088E-01

     total cpu time spent up to now is      888.7 secs

     total energy              =   -2943.07640537 Ry
     estimated scf accuracy    <       0.00384203 Ry

     total magnetization       =    -0.01 Bohr mag/cell
     absolute magnetization    =     0.03 Bohr mag/cell

     iteration #  3     ecut=   120.00 Ry     beta= 0.70
     Davidson diagonalization with overlap
     ethr =  1.39E-06,  avg # of iterations =  2.0

     negative rho (up, down):  9.089E-01 9.089E-01

     total cpu time spent up to now is      933.0 secs

     total energy              =   -2943.07646280 Ry
     estimated scf accuracy    <       0.00144919 Ry

     total magnetization       =    -0.01 Bohr mag/cell
     absolute magnetization    =     0.03 Bohr mag/cell

     iteration #  4     ecut=   120.00 Ry     beta= 0.70
     Davidson diagonalization with overlap
     ethr =  5.23E-07,  avg # of iterations =  2.0

     negative rho (up, down):  9.089E-01 9.089E-01

     Magnetic moment per site  (integrated on atomic sphere of radius R)
     atom   1 (R=0.112)  charge=  9.4627   -0.0001
     atom   2 (R=0.112)  charge=  9.0574   -0.0000
     atom   3 (R=0.112)  charge=  9.0571   -0.0000
     atom   4 (R=0.112)  charge=  9.0593   -0.0000
     atom   5 (R=0.112)  charge=  9.0588    0.0001
     atom   6 (R=0.110)  charge= 10.3477    0.0001
     atom   7 (R=0.110)  charge= 10.3543   -0.0001
     atom   8 (R=0.079)  charge=  7.1176    0.0000
     atom   9 (R=0.079)  charge=  7.1279    0.0001
     atom  10 (R=0.079)  charge=  7.0996   -0.0003
     atom  11 (R=0.079)  charge=  7.0992    0.0001
     atom  12 (R=0.079)  charge=  7.1009   -0.0002
     atom  13 (R=0.079)  charge=  7.1001   -0.0001
     atom  14 (R=0.079)  charge=  7.1002   -0.0002
     atom  15 (R=0.079)  charge=  7.0986    0.0002
     atom  16 (R=0.079)  charge=  7.0996   -0.0004
     atom  17 (R=0.079)  charge=  7.1041    0.0003
     atom  18 (R=0.111)  charge=  9.4533    0.0001
     atom  19 (R=0.111)  charge=  8.9977   -0.0012
     atom  20 (R=0.111)  charge=  8.9942    0.0007
     atom  21 (R=0.111)  charge=  8.9951   -0.0012
     atom  22 (R=0.111)  charge=  8.9945    0.0010
     atom  23 (R=0.079)  charge=  0.9446    0.0000

     total cpu time spent up to now is      976.9 secs

     End of self-consistent calculation

 ------ SPIN UP ------------


          k = 0.0000 0.0000 0.0000 ( 61588 PWs)   bands (ev):

   -60.7690 -60.7570 -60.7219 -60.7116 -60.6814 -60.6754 -60.6344 -60.6316
   -60.5277 -60.3454 -54.3652 -54.3206 -54.2314 -54.1839 -52.6807 -46.3026
   -46.2434 -41.6496 -41.6028 -41.5475 -41.5016 -39.7862 -27.7692 -27.7546
   -27.6801 -27.6702 -27.5820 -27.5648 -27.4457 -27.4373 -27.3737 -27.3194
   -27.2965 -27.2537 -27.2477 -27.2235 -27.2076 -27.1576 -27.1450 -27.1365
   -27.0924 -27.0220 -26.9796 -26.9454 -26.9371 -26.9327 -26.9237 -26.9100
   -26.8733 -26.8579 -26.8330 -26.8314 -24.1496 -23.9382 -23.6432 -23.5500
   -23.2934 -23.1817 -23.1513 -23.0470 -22.9114 -22.8478 -22.8171 -22.5972
   -22.5205 -22.4545 -22.3937 -22.3779 -22.2596 -22.2258 -21.7429 -21.6759
   -21.6097 -20.1716 -19.9462 -19.8083 -19.7967 -19.6509 -19.6007 -19.5843
   -19.5693 -19.5478 -19.5278 -19.3635 -19.3413 -18.1308 -17.9275 -17.8020
     1.1936   2.2107   2.9499   3.1500   3.3390   3.4036   3.5057   3.6720
     3.7016   3.7861   3.9271   4.0452   4.2089   4.5126   4.6358   4.7163
     4.7771   4.8698   5.0601   5.1269   5.1973   5.2791   5.3032   5.3352
     5.4028   5.5622   5.5904   5.7255   5.7450   5.7682   5.7830   5.8373
     5.9749   6.0820   6.1764   6.2297   6.2865   6.3391   6.3718   6.3987
     6.4548   6.6063   6.6764   6.7169   6.9367   6.9863   7.0305   7.1035
     7.1189   7.1682   7.2790   7.3144   7.3601   7.4819   7.5574   7.5849
     7.6307   7.7714   7.9089   7.9520   8.0817   8.1050   8.1305   8.1881
     8.2580   8.3158   8.3613   8.3822   8.4968   8.5608   8.6336   8.7197
     8.8381   8.9190   8.9756   9.0807   9.1697   9.2842   9.2957

 ------ SPIN DOWN ----------


          k = 0.0000 0.0000 0.0000 ( 61588 PWs)   bands (ev):

   -60.7690 -60.7575 -60.7217 -60.7121 -60.6818 -60.6751 -60.6349 -60.6315
   -60.5277 -60.3453 -54.3652 -54.3206 -54.2314 -54.1839 -52.6808 -46.3027
   -46.2433 -41.6487 -41.6039 -41.5467 -41.5027 -39.7862 -27.7689 -27.7552
   -27.6799 -27.6708 -27.5819 -27.5654 -27.4458 -27.4376 -27.3736 -27.3196
   -27.2967 -27.2535 -27.2482 -27.2234 -27.2077 -27.1576 -27.1454 -27.1364
   -27.0923 -27.0219 -26.9795 -26.9452 -26.9372 -26.9328 -26.9238 -26.9104
   -26.8731 -26.8584 -26.8334 -26.8314 -24.1496 -23.9382 -23.6432 -23.5500
   -23.2934 -23.1817 -23.1513 -23.0470 -22.9114 -22.8478 -22.8171 -22.5972
   -22.5206 -22.4544 -22.3938 -22.3779 -22.2596 -22.2258 -21.7429 -21.6759
   -21.6098 -20.1729 -19.9448 -19.8097 -19.7979 -19.6501 -19.5998 -19.5839
   -19.5701 -19.5488 -19.5272 -19.3624 -19.3429 -18.1307 -17.9275 -17.8022
     1.1937   2.2107   2.9496   3.1499   3.3389   3.4037   3.5055   3.6720
     3.7015   3.7860   3.9268   4.0451   4.2089   4.5125   4.6358   4.7161
     4.7770   4.8697   5.0599   5.1266   5.1971   5.2789   5.3031   5.3350
     5.4027   5.5621   5.5903   5.7254   5.7451   5.7679   5.7828   5.8371
     5.9748   6.0819   6.1762   6.2296   6.2864   6.3389   6.3717   6.3986
     6.4546   6.6063   6.6762   6.7167   6.9365   6.9860   7.0300   7.1029
     7.1183   7.1679   7.2786   7.3142   7.3598   7.4810   7.5581   7.5836
     7.6304   7.7712   7.9088   7.9520   8.0814   8.1047   8.1303   8.1877
     8.2575   8.3159   8.3609   8.3818   8.4966   8.5605   8.6334   8.7195
     8.8379   8.9185   8.9756   9.0806   9.1697   9.2846   9.2956

     the Fermi energy is     7.2665 ev

!    total energy              =   -2943.07639300 Ry
     estimated scf accuracy    <       0.00037469 Ry
     smearing contrib. (-TS)   =      -0.10212578 Ry
     internal energy E=F+TS    =   -2942.97426722 Ry

     total magnetization       =    -0.01 Bohr mag/cell
     absolute magnetization    =     0.02 Bohr mag/cell

     convergence has been achieved in   4 iterations

     negative rho (up, down):  9.089E-01 9.089E-01

     Forces acting on atoms (cartesian axes, Ry/au):

     atom    1 type  1   force =     0.00107966   -0.02388519    0.00624996
     atom    2 type  1   force =    -0.11927353   -0.01470886   -0.00194131
     atom    3 type  1   force =    -0.11532259    0.01237867    0.00286799
     atom    4 type  1   force =     0.12070128   -0.01047027   -0.00524255
     atom    5 type  1   force =     0.12014385    0.00150797    0.00210639
     atom    6 type  2   force =    -0.00895069   -0.02176461    0.00410979
     atom    7 type  2   force =    -0.02388621    0.00888143   -0.01619094
     atom    8 type  3   force =    -0.10865255    0.00598828   -0.00105651
     atom    9 type  3   force =     0.09323479   -0.02903591   -0.03395238
     atom   10 type  3   force =    -0.02117785   -0.03043592   -0.05942496
     atom   11 type  3   force =    -0.02267891   -0.03438189    0.05762787
     atom   12 type  3   force =    -0.02067426    0.03413680   -0.05631266
     atom   13 type  3   force =    -0.00613818    0.03027834    0.06492151
     atom   14 type  3   force =     0.02307389   -0.02915464   -0.05954287
     atom   15 type  3   force =     0.02079337   -0.03865256    0.06172776
     atom   16 type  3   force =     0.02048803    0.03694117   -0.05321595
     atom   17 type  3   force =     0.00888006    0.04775889    0.06562467
     atom   18 type  4   force =     0.00059762    0.02685495   -0.00868898
     atom   19 type  4   force =    -0.12958935   -0.00428288   -0.11791797
     atom   20 type  4   force =    -0.12780170    0.00644038    0.11758589
     atom   21 type  4   force =     0.12779511   -0.00740150   -0.11725409
     atom   22 type  4   force =     0.14043784    0.00114213    0.10901429
     atom   23 type  5   force =     0.02692032    0.03186522    0.03890504
     The non-local contrib.  to forces
     atom    1 type  1   force =     0.00273563   -0.01209397    0.02990895
     atom    2 type  1   force =    -0.24883727   -0.16148284    0.01478923
     atom    3 type  1   force =    -0.24190238    0.15311614   -0.01800214
     atom    4 type  1   force =     0.24696909   -0.16216515    0.02483982
     atom    5 type  1   force =     0.25360577    0.12908492    0.00481608
     atom    6 type  2   force =     0.00774989   -0.05352608   -0.06511789
     atom    7 type  2   force =    -0.00951673    0.07536429    0.06915207
     atom    8 type  3   force =    -0.25672489    0.00601111    0.00295241
     atom    9 type  3   force =     0.14604579   -0.04840566   -0.04162768
     atom   10 type  3   force =    -0.21170791    0.00212138   -0.20870626
     atom   11 type  3   force =    -0.21410069    0.00490750    0.19664330
     atom   12 type  3   force =    -0.20534251   -0.02224874   -0.17687922
     atom   13 type  3   force =    -0.20360658   -0.00729955    0.20099036
     atom   14 type  3   force =     0.21075850    0.00452846   -0.21789829
     atom   15 type  3   force =     0.21630523    0.00257679    0.19009693
     atom   16 type  3   force =     0.19620571   -0.01766435   -0.18669431
     atom   17 type  3   force =     0.24421324   -0.03322394    0.15695232
     atom   18 type  4   force =    -0.00788509    0.05901112   -0.06028011
     atom   19 type  4   force =     0.06067971    0.00954004    0.07308285
     atom   20 type  4   force =     0.05411379   -0.02131357   -0.06231286
     atom   21 type  4   force =    -0.05727459    0.01757328    0.07097380
     atom   22 type  4   force =    -0.05895138   -0.01026770   -0.06402999
     atom   23 type  5   force =    -0.03855980   -0.02504840   -0.02377648
     The ionic contribution  to forces
     atom    1 type  1   force =    -0.28917470   -4.81969529   14.02339556
     atom    2 type  1   force =   -39.71152426   -6.13269824    0.72901279
     atom    3 type  1   force =   -39.74023757    6.20904066   -0.79041177
     atom    4 type  1   force =    39.54695521   -6.18486914    0.67322511
     atom    5 type  1   force =    39.19067336    6.83702072   -1.10223774
     atom    6 type  2   force =    -0.15487142   -3.64997442  -14.02445530
     atom    7 type  2   force =    -0.85913684    3.74143563   14.08124196
     atom    8 type  3   force =   -52.23316545   -0.01204890   -0.16808346
     atom    9 type  3   force =    50.71925424   -1.14626589   -1.31122018
     atom   10 type  3   force =   -36.06751130   -2.08974292  -23.06939474
     atom   11 type  3   force =   -35.16459021   -0.85150382   22.10911553
     atom   12 type  3   force =   -35.26387960    0.82772721  -22.14082180
     atom   13 type  3   force =   -36.10845815    2.25919548   23.12848726
     atom   14 type  3   force =    35.99060793   -2.09979787  -23.10687986
     atom   15 type  3   force =    35.01859603   -0.88910112   22.19079175
     atom   16 type  3   force =    35.14838742    0.88141959  -22.22770614
     atom   17 type  3   force =    35.74780790    2.57297198   23.45542659
     atom   18 type  4   force =    -0.27457849    4.39118368  -14.11192365
     atom   19 type  4   force =   -35.91898044    0.92905868  -25.54282596
     atom   20 type  4   force =   -35.96662537   -1.01084493   25.59267978
     atom   21 type  4   force =    35.79591488    0.89141421  -25.65816349
     atom   22 type  4   force =    35.44033062   -1.31032434   26.23046132
     atom   23 type  5   force =     5.15420622    0.65639908    1.04028644
     The local contribution  to forces
     atom    1 type  1   force =     0.28381503    4.80520510  -14.04373600
     atom    2 type  1   force =    39.84674883    6.28044969   -0.74450438
     atom    3 type  1   force =    39.87467913   -6.34950528    0.81260072
     atom    4 type  1   force =   -39.68620504    6.33906663   -0.70324270
     atom    5 type  1   force =   -39.34273560   -6.96188293    1.09917781
     atom    6 type  2   force =     0.13505459    3.68055370   14.08987965
     atom    7 type  2   force =     0.83566306   -3.80240305  -14.15831327
     atom    8 type  3   force =    52.41255856    0.00864723    0.16254392
     atom    9 type  3   force =   -50.81190119    1.16698850    1.32155126
     atom   10 type  3   force =    36.27192752    2.04584952   23.22903937
     atom   11 type  3   force =    35.37625725    0.79975217  -22.26011895
     atom   12 type  3   force =    35.46115148   -0.76132912   22.26856189
     atom   13 type  3   force =    36.32202768   -2.20809593  -23.27181426
     atom   14 type  3   force =   -36.19872089    2.05481442   23.27265674
     atom   15 type  3   force =   -35.23840474    0.83623494  -22.32675037
     atom   16 type  3   force =   -35.34684281   -0.81406281   22.36904483
     atom   17 type  3   force =   -36.01393212   -2.47462659  -23.54931347
     atom   18 type  4   force =     0.27819267   -4.42170936   14.15743519
     atom   19 type  4   force =    35.73224374   -0.94118903   25.35569617
     atom   20 type  4   force =    35.79136753    1.03758611  -25.41511775
     atom   21 type  4   force =   -35.62108468   -0.91646849   25.47398780
     atom   22 type  4   force =   -35.26027456    1.31593857  -26.05553494
     atom   23 type  5   force =    -5.09299831   -0.59951490   -0.97732121
     The core correction contribution to forces
     atom    1 type  1   force =     0.00126028    0.00100186   -0.00048575
     atom    2 type  1   force =    -0.01163212   -0.00149291    0.00009572
     atom    3 type  1   force =    -0.01237674    0.00239570   -0.00114982
     atom    4 type  1   force =     0.01246164   -0.00177032    0.00248881
     atom    5 type  1   force =     0.01075614    0.00286215   -0.00052586
     atom    6 type  2   force =    -0.00032952    0.00273482    0.00293898
     atom    7 type  2   force =     0.00109320   -0.00389859   -0.00286608
     atom    8 type  3   force =    -0.03094087    0.00109861    0.00059794
     atom    9 type  3   force =     0.01718182   -0.00752912   -0.00655451
     atom   10 type  3   force =    -0.02195205    0.00911601   -0.01634218
     atom   11 type  3   force =    -0.02418400    0.00890880    0.01819670
     atom   12 type  3   force =    -0.02154814   -0.01007386   -0.01527372
     atom   13 type  3   force =    -0.02148870   -0.01000998    0.01569143
     atom   14 type  3   force =     0.02138124    0.00945347   -0.01651277
     atom   15 type  3   force =     0.02354624    0.00937445    0.01547540
     atom   16 type  3   force =     0.02172559   -0.01023824   -0.01619799
     atom   17 type  3   force =     0.02472181   -0.00910832    0.01290226
     atom   18 type  4   force =     0.00043854   -0.00307203    0.00288138
     atom   19 type  4   force =    -0.00974452    0.00005042   -0.00965152
     atom   20 type  4   force =    -0.00946577    0.00082491    0.00906064
     atom   21 type  4   force =     0.00946451   -0.00037272   -0.00956485
     atom   22 type  4   force =     0.00996505    0.00058681    0.00862037
     atom   23 type  5   force =     0.00000000    0.00000000    0.00000000
     The Hubbard contrib.    to forces
     atom    1 type  1   force =     0.00000000    0.00000000    0.00000000
     atom    2 type  1   force =     0.00000000    0.00000000    0.00000000
     atom    3 type  1   force =     0.00000000    0.00000000    0.00000000
     atom    4 type  1   force =     0.00000000    0.00000000    0.00000000
     atom    5 type  1   force =     0.00000000    0.00000000    0.00000000
     atom    6 type  2   force =     0.00000000    0.00000000    0.00000000
     atom    7 type  2   force =     0.00000000    0.00000000    0.00000000
     atom    8 type  3   force =     0.00000000    0.00000000    0.00000000
     atom    9 type  3   force =     0.00000000    0.00000000    0.00000000
     atom   10 type  3   force =     0.00000000    0.00000000    0.00000000
     atom   11 type  3   force =     0.00000000    0.00000000    0.00000000
     atom   12 type  3   force =     0.00000000    0.00000000    0.00000000
     atom   13 type  3   force =     0.00000000    0.00000000    0.00000000
     atom   14 type  3   force =     0.00000000    0.00000000    0.00000000
     atom   15 type  3   force =     0.00000000    0.00000000    0.00000000
     atom   16 type  3   force =     0.00000000    0.00000000    0.00000000
     atom   17 type  3   force =     0.00000000    0.00000000    0.00000000
     atom   18 type  4   force =     0.00000000    0.00000000    0.00000000
     atom   19 type  4   force =     0.00000000    0.00000000    0.00000000
     atom   20 type  4   force =     0.00000000    0.00000000    0.00000000
     atom   21 type  4   force =     0.00000000    0.00000000    0.00000000
     atom   22 type  4   force =     0.00000000    0.00000000    0.00000000
     atom   23 type  5   force =     0.00000000    0.00000000    0.00000000
     The SCF correction term to forces
     atom    1 type  1   force =     0.00000000    0.00000000   -0.00000000
     atom    2 type  1   force =     0.00519446    0.00052464   -0.00122532
     atom    3 type  1   force =     0.00373813   -0.00265936   -0.00005966
     atom    4 type  1   force =    -0.00025646   -0.00072310   -0.00244425
     atom    5 type  1   force =     0.00706734   -0.00556771    0.00098545
     atom    6 type  2   force =     0.00266894   -0.00154344    0.00097370
     atom    7 type  2   force =     0.00723427   -0.00160766   -0.00529627
     atom    8 type  3   force =    -0.00115673    0.00228941    0.00104203
     atom    9 type  3   force =     0.02187731    0.00618545    0.00400809
     atom   10 type  3   force =     0.00728906    0.00222927    0.00608820
     atom   11 type  3   force =     0.00316191    0.00356265   -0.00609936
     atom   12 type  3   force =     0.00816767    0.00007050    0.00820953
     atom   13 type  3   force =     0.00461074   -0.00350250   -0.00832394
     atom   14 type  3   force =    -0.00172973    0.00185607    0.00920066
     atom   15 type  3   force =    -0.00002622    0.00227157   -0.00777659
     atom   16 type  3   force =     0.00023529   -0.00250383    0.00844702
     atom   17 type  3   force =     0.00529240   -0.00824506   -0.01023369
     atom   18 type  4   force =     0.00365315    0.00145073    0.00330755
     atom   19 type  4   force =     0.00543534   -0.00173380    0.00588984
     atom   20 type  4   force =     0.00203129    0.00019705   -0.00661457
     atom   21 type  4   force =    -0.00000184    0.00046142    0.00562200
     atom   22 type  4   force =     0.00859128    0.00521798   -0.01039313
     atom   23 type  5   force =     0.00349538    0.00003863   -0.00017436

     Total force =     0.499583     Total SCF correction =     0.044655

     Entering Dynamics:    iteration =     2
                           time      =   0.0004 pico-seconds


ATOMIC_POSITIONS (angstrom)
Hf            2.6699999570        2.8271230292        6.6039642186    0   0   0
Hf            1.2529772837        1.2862824070        5.0584660060
Hf            1.2554738221        7.3898058135        5.0880681794
Hf            4.0870227078        1.2862828225        5.0584655476
Hf            4.0845269960        7.3898044363        5.0880681942
Nb            2.6699977024        2.7969259364        3.5155841360
Nb            2.6699944753        5.8763806961        6.6349945947
Ta            1.2093606690        4.3409284534        5.0711256619
Ta            4.1306400133        4.3409266431        5.0711241245
Ta            1.3072503415        1.3141191620        2.0587724245
Ta            1.3027857769        1.3083872415        8.0945856513
Ta            1.3040072993        7.3758300671        2.0462308833
Ta            1.3077097947        7.3650863905        8.0860094080
Ta            4.0327498236        1.3141192879        2.0587724724
Ta            4.0372138586        1.3083867977        8.0945859615
Ta            4.0359926280        7.3758302886        2.0462312696
Ta            4.0322902976        7.3650881172        8.0860094120
Zr            2.6700000628        5.8662917793        3.5273821878
Zr            1.2438054554        4.3220768560        1.9999736678
Zr            1.2403564016        4.3541246659        8.1497816714
Zr            4.0961939565        4.3220762259        1.9999738522
Zr            4.0996468600        4.3541238778        8.1497796143
H             4.9159562799        5.3401605963        6.0724015487


     kinetic energy (Ekin) =          18.37132905 Ry
     temperature           =       87897.07405505 K 
     Ekin + Etot (const)   =       -2924.70506395 Ry

     Writing config-only to output data dir outdir/pwscf.save/
     NEW-OLD atomic charge density approx. for the potential

     Check: negative core charge=   -0.000002

     negative rho (up, down):  9.088E-01 9.088E-01
     Generating pointlists ...
     new r_m :   0.1069 (alat units)  1.8872 (a.u.) for type    1
     new r_m :   0.1050 (alat units)  1.8526 (a.u.) for type    2
     new r_m :   0.0715 (alat units)  1.2612 (a.u.) for type    3
     new r_m :   0.1078 (alat units)  1.9021 (a.u.) for type    4
     new r_m :   0.0715 (alat units)  1.2612 (a.u.) for type    5

     total cpu time spent up to now is     1004.1 secs

     Self-consistent Calculation

     iteration #  1     ecut=   120.00 Ry     beta= 0.70
     Davidson diagonalization with overlap
     c_bands:  1 eigenvalues not converged
     ethr =  1.00E-06,  avg # of iterations = 19.0

     negative rho (up, down):  9.089E-01 9.089E-01

     total cpu time spent up to now is     1100.6 secs

     total energy              =   -2943.04359712 Ry
     estimated scf accuracy    <       0.03012390 Ry

     total magnetization       =    -0.01 Bohr mag/cell
     absolute magnetization    =     0.02 Bohr mag/cell

     iteration #  2     ecut=   120.00 Ry     beta= 0.70
     Davidson diagonalization with overlap
     ethr =  1.09E-05,  avg # of iterations =  2.0

     negative rho (up, down):  9.089E-01 9.089E-01

     total cpu time spent up to now is     1147.2 secs

     total energy              =   -2943.04546564 Ry
     estimated scf accuracy    <       0.00655834 Ry

     total magnetization       =    -0.01 Bohr mag/cell
     absolute magnetization    =     0.02 Bohr mag/cell

     iteration #  3     ecut=   120.00 Ry     beta= 0.70
     Davidson diagonalization with overlap
     ethr =  2.37E-06,  avg # of iterations =  2.0

     negative rho (up, down):  9.088E-01 9.088E-01

     total cpu time spent up to now is     1194.1 secs

     total energy              =   -2943.04566527 Ry
     estimated scf accuracy    <       0.00115655 Ry

     total magnetization       =    -0.01 Bohr mag/cell
     absolute magnetization    =     0.02 Bohr mag/cell

     iteration #  4     ecut=   120.00 Ry     beta= 0.70
     Davidson diagonalization with overlap
     ethr =  4.18E-07,  avg # of iterations =  3.0

     negative rho (up, down):  9.088E-01 9.088E-01

     Magnetic moment per site  (integrated on atomic sphere of radius R)
     atom   1 (R=0.107)  charge=  9.1138   -0.0000
     atom   2 (R=0.107)  charge=  8.7766   -0.0000
     atom   3 (R=0.107)  charge=  8.7770   -0.0000
     atom   4 (R=0.107)  charge=  8.7795   -0.0001
     atom   5 (R=0.107)  charge=  8.7802   -0.0000
     atom   6 (R=0.105)  charge=  9.9577    0.0000
     atom   7 (R=0.105)  charge=  9.9641   -0.0001
     atom   8 (R=0.071)  charge=  6.0662    0.0000
     atom   9 (R=0.071)  charge=  6.0874    0.0000
     atom  10 (R=0.071)  charge=  6.0509   -0.0002
     atom  11 (R=0.071)  charge=  6.0516    0.0000
     atom  12 (R=0.071)  charge=  6.0507   -0.0002
     atom  13 (R=0.071)  charge=  6.0512   -0.0000
     atom  14 (R=0.071)  charge=  6.0511   -0.0001
     atom  15 (R=0.071)  charge=  6.0501    0.0001
     atom  16 (R=0.071)  charge=  6.0489   -0.0002
     atom  17 (R=0.071)  charge=  6.0527    0.0001
     atom  18 (R=0.108)  charge=  9.1926    0.0000
     atom  19 (R=0.108)  charge=  8.7938   -0.0008
     atom  20 (R=0.108)  charge=  8.7909    0.0004
     atom  21 (R=0.108)  charge=  8.7916   -0.0007
     atom  22 (R=0.108)  charge=  8.7932    0.0006
     atom  23 (R=0.071)  charge=  0.9177    0.0000

     total cpu time spent up to now is     1240.7 secs

     End of self-consistent calculation

 ------ SPIN UP ------------


          k = 0.0000 0.0000 0.0000 ( 61588 PWs)   bands (ev):

   -60.7707 -60.7532 -60.7166 -60.7086 -60.6778 -60.6687 -60.6328 -60.6272
   -60.5357 -60.2903 -54.3624 -54.3172 -54.2289 -54.1759 -52.6799 -46.3378
   -46.2524 -41.6483 -41.5947 -41.5435 -41.4925 -39.7905 -27.7672 -27.7506
   -27.6789 -27.6668 -27.5789 -27.5605 -27.4419 -27.4325 -27.3738 -27.3196
   -27.2965 -27.2517 -27.2452 -27.2208 -27.2046 -27.1601 -27.1442 -27.1337
   -27.1000 -27.0159 -26.9615 -26.9435 -26.9310 -26.9275 -26.9177 -26.9073
   -26.8713 -26.8552 -26.8300 -26.8244 -24.1494 -23.9379 -23.6468 -23.5502
   -23.2899 -23.1894 -23.1529 -23.0487 -22.9101 -22.8474 -22.8169 -22.5953
   -22.5453 -22.4673 -22.4074 -22.3995 -22.2622 -22.2301 -21.7424 -21.6754
   -21.6078 -20.1653 -19.9411 -19.8035 -19.7877 -19.6638 -19.5986 -19.5827
   -19.5646 -19.5369 -19.5236 -19.3567 -19.3326 -18.1344 -17.9303 -17.8041
     0.7593   1.9445   2.9512   3.1448   3.3422   3.3917   3.5001   3.6444
     3.6965   3.7829   3.9250   4.0452   4.2030   4.5047   4.6208   4.7204
     4.7704   4.8995   5.0585   5.1282   5.2181   5.2799   5.3044   5.3430
     5.4031   5.5543   5.5798   5.7164   5.7469   5.7700   5.7874   5.8626
     5.9894   6.0789   6.1804   6.2279   6.2871   6.3597   6.3721   6.3990
     6.4518   6.6023   6.6795   6.7192   6.9334   6.9994   7.0351   7.1185
     7.1330   7.1716   7.2772   7.3026   7.3842   7.5012   7.5661   7.5744
     7.6306   7.7887   7.9100   7.9643   8.0631   8.1075   8.1307   8.1797
     8.2586   8.3114   8.3607   8.3820   8.4995   8.5624   8.6210   8.7149
     8.8440   8.9270   8.9521   9.0826   9.1346   9.2890   9.2995

 ------ SPIN DOWN ----------


          k = 0.0000 0.0000 0.0000 ( 61588 PWs)   bands (ev):

   -60.7707 -60.7535 -60.7164 -60.7089 -60.6781 -60.6685 -60.6332 -60.6271
   -60.5357 -60.2902 -54.3624 -54.3172 -54.2289 -54.1759 -52.6799 -46.3379
   -46.2524 -41.6477 -41.5954 -41.5431 -41.4932 -39.7905 -27.7670 -27.7510
   -27.6787 -27.6673 -27.5788 -27.5609 -27.4422 -27.4326 -27.3737 -27.3197
   -27.2967 -27.2516 -27.2456 -27.2209 -27.2047 -27.1601 -27.1446 -27.1335
   -27.1000 -27.0159 -26.9615 -26.9433 -26.9312 -26.9275 -26.9177 -26.9076
   -26.8712 -26.8556 -26.8305 -26.8242 -24.1494 -23.9380 -23.6468 -23.5502
   -23.2899 -23.1895 -23.1530 -23.0487 -22.9101 -22.8474 -22.8169 -22.5953
   -22.5453 -22.4673 -22.4074 -22.3995 -22.2622 -22.2301 -21.7424 -21.6754
   -21.6078 -20.1661 -19.9402 -19.8043 -19.7885 -19.6632 -19.5981 -19.5825
   -19.5652 -19.5375 -19.5233 -19.3559 -19.3337 -18.1343 -17.9303 -17.8041
     0.7594   1.9444   2.9510   3.1448   3.3421   3.3918   3.4999   3.6444
     3.6965   3.7828   3.9248   4.0451   4.2030   4.5046   4.6207   4.7203
     4.7704   4.8994   5.0583   5.1280   5.2180   5.2798   5.3044   5.3429
     5.4030   5.5543   5.5797   5.7163   5.7471   5.7698   5.7872   5.8624
     5.9894   6.0788   6.1803   6.2278   6.2870   6.3595   6.3720   6.3989
     6.4516   6.6023   6.6794   6.7191   6.9332   6.9992   7.0347   7.1180
     7.1326   7.1714   7.2769   7.3025   7.3839   7.5007   7.5663   7.5735
     7.6304   7.7886   7.9099   7.9643   8.0629   8.1072   8.1305   8.1794
     8.2582   8.3114   8.3604   8.3817   8.4993   8.5622   8.6209   8.7148
     8.8437   8.9266   8.9521   9.0825   9.1345   9.2906   9.2989

     the Fermi energy is     7.2730 ev

!    total energy              =   -2943.04566258 Ry
     estimated scf accuracy    <       0.00026752 Ry
     smearing contrib. (-TS)   =      -0.10224401 Ry
     internal energy E=F+TS    =   -2942.94341857 Ry

     total magnetization       =    -0.00 Bohr mag/cell
     absolute magnetization    =     0.02 Bohr mag/cell

     convergence has been achieved in   4 iterations

     negative rho (up, down):  9.088E-01 9.088E-01

     Forces acting on atoms (cartesian axes, Ry/au):

     atom    1 type  1   force =     0.00397728   -0.02501970    0.00183291
     atom    2 type  1   force =    -0.11827554   -0.01384785   -0.00119006
     atom    3 type  1   force =    -0.11258997    0.01157601    0.00345199
     atom    4 type  1   force =     0.12249079   -0.00791067   -0.00353648
     atom    5 type  1   force =     0.11444547    0.00248810   -0.00242837
     atom    6 type  2   force =    -0.00446077   -0.02094440    0.00728165
     atom    7 type  2   force =    -0.02002442    0.00841195   -0.01978950
     atom    8 type  3   force =    -0.10715238    0.00753187    0.00014994
     atom    9 type  3   force =     0.03968963   -0.10118315   -0.10837181
     atom   10 type  3   force =    -0.02275299   -0.02979674   -0.05747687
     atom   11 type  3   force =    -0.02288098   -0.03367953    0.05472920
     atom   12 type  3   force =    -0.01986354    0.03449026   -0.05383570
     atom   13 type  3   force =    -0.00085168    0.03142322    0.06386400
     atom   14 type  3   force =     0.02189241   -0.02869069   -0.05678107
     atom   15 type  3   force =     0.01898751   -0.03787590    0.06127038
     atom   16 type  3   force =     0.01906516    0.03682818   -0.05097028
     atom   17 type  3   force =     0.00553434    0.04898831    0.06529473
     atom   18 type  4   force =     0.00210612    0.02661147   -0.00700758
     atom   19 type  4   force =    -0.13002881   -0.00560591   -0.11616616
     atom   20 type  4   force =    -0.12639706    0.00602495    0.11715754
     atom   21 type  4   force =     0.12935296   -0.00651920   -0.11562533
     atom   22 type  4   force =     0.13332837   -0.00094186    0.10990665
     atom   23 type  5   force =     0.07440809    0.09764129    0.10824023
     The non-local contrib.  to forces
     atom    1 type  1   force =     0.00513149   -0.01205917    0.02710877
     atom    2 type  1   force =    -0.24732056   -0.16220036    0.01637052
     atom    3 type  1   force =    -0.24105733    0.15266317   -0.01636157
     atom    4 type  1   force =     0.24534644   -0.16246573    0.02358132
     atom    5 type  1   force =     0.25237594    0.12326302    0.00562942
     atom    6 type  2   force =     0.00535118   -0.04754210   -0.06392567
     atom    7 type  2   force =     0.00584132    0.08405177    0.07914506
     atom    8 type  3   force =    -0.25217963    0.00738507    0.00451894
     atom    9 type  3   force =     0.16789303   -0.03910769   -0.03875143
     atom   10 type  3   force =    -0.21325236    0.00194045   -0.20984258
     atom   11 type  3   force =    -0.21621350    0.00616323    0.19381971
     atom   12 type  3   force =    -0.20367941   -0.02232825   -0.17573376
     atom   13 type  3   force =    -0.19862847   -0.00805438    0.19951157
     atom   14 type  3   force =     0.21300140    0.00488996   -0.21239724
     atom   15 type  3   force =     0.21637410    0.00396610    0.18973269
     atom   16 type  3   force =     0.19564013   -0.01772163   -0.18378508
     atom   17 type  3   force =     0.23612294   -0.03154924    0.15729123
     atom   18 type  4   force =    -0.00594011    0.06006884   -0.05652125
     atom   19 type  4   force =     0.06098436    0.00996086    0.07530287
     atom   20 type  4   force =     0.05436198   -0.02148121   -0.06651565
     atom   21 type  4   force =    -0.05884902    0.02006761    0.07285644
     atom   22 type  4   force =    -0.05502587   -0.01254083   -0.06066005
     atom   23 type  5   force =    -0.04152562   -0.03612459   -0.03441141
     The ionic contribution  to forces
     atom    1 type  1   force =    -0.32175517   -4.88197033   14.03765066
     atom    2 type  1   force =   -39.73444453   -6.13496634    0.72587737
     atom    3 type  1   force =   -39.79165901    6.22691052   -0.79978597
     atom    4 type  1   force =    39.57102635   -6.19101526    0.66741892
     atom    5 type  1   force =    39.25460095    6.97004356   -1.16717362
     atom    6 type  2   force =    -0.16386925   -3.67064512  -14.04829513
     atom    7 type  2   force =    -1.12280921    3.82606366   14.17087927
     atom    8 type  3   force =   -52.31637546   -0.02769841   -0.18421607
     atom    9 type  3   force =    50.74972409   -1.59756909   -1.76407250
     atom   10 type  3   force =   -36.07809373   -2.09022575  -23.07168534
     atom   11 type  3   force =   -35.18417813   -0.85338622   22.11399817
     atom   12 type  3   force =   -35.27938919    0.83089393  -22.14580646
     atom   13 type  3   force =   -36.14782212    2.27218714   23.14237756
     atom   14 type  3   force =    36.00076452   -2.10061698  -23.11022133
     atom   15 type  3   force =    35.03823128   -0.89339737   22.19910591
     atom   16 type  3   force =    35.16386836    0.88705421  -22.23708155
     atom   17 type  3   force =    35.79188347    2.62555804   23.50898226
     atom   18 type  4   force =    -0.30564316    4.40392750  -14.17602706
     atom   19 type  4   force =   -35.93606588    0.92699094  -25.54806643
     atom   20 type  4   force =   -36.01621649   -1.01945703   25.61053989
     atom   21 type  4   force =    35.81384004    0.88745615  -25.67005074
     atom   22 type  4   force =    35.50456935   -1.37158256   26.35923156
     atom   23 type  5   force =     5.50981292    0.97544481    1.38642062
     The local contribution  to forces
     atom    1 type  1   force =     0.32171728    4.86645472  -14.06472545
     atom    2 type  1   force =    39.87457244    6.28510466   -0.73968332
     atom    3 type  1   force =    39.93203964   -6.36867298    0.82351646
     atom    4 type  1   force =   -39.70576894    6.35398127   -0.69159450
     atom    5 type  1   force =   -39.40800191   -7.09031842    1.16032754
     atom    6 type  2   force =     0.15688614    3.69814914   14.12804756
     atom    7 type  2   force =     1.09254917   -3.90091381  -14.27130596
     atom    8 type  3   force =    52.49628621    0.02486084    0.18177933
     atom    9 type  3   force =   -50.91295177    1.53297092    1.69777259
     atom   10 type  3   force =    36.28779717    2.05129642   23.24544694
     atom   11 type  3   force =    35.40238761    0.80438998  -22.27685153
     atom   12 type  3   force =    35.48179408   -0.76358487   22.28818037
     atom   13 type  3   force =    36.36290744   -2.21742834  -23.30005019
     atom   14 type  3   force =   -36.21363299    2.06127751   23.28726793
     atom   15 type  3   force =   -35.26378920    0.84688072  -22.35067410
     atom   16 type  3   force =   -35.36253289   -0.82442011   22.39155525
     atom   17 type  3   force =   -36.05021885   -2.53141852  -23.61861324
     atom   18 type  4   force =     0.31551311   -4.43911147   14.23248871
     atom   19 type  4   force =    35.75155571   -0.94425621   25.37039389
     atom   20 type  4   force =    35.84324415    1.04320262  -25.44067463
     atom   21 type  4   force =   -35.63186927   -0.91513979   25.50107757
     atom   22 type  4   force =   -35.32914592    1.37589833  -26.20256461
     atom   23 type  5   force =    -5.39777709   -0.84258180   -1.24419955
     The core correction contribution to forces
     atom    1 type  1   force =     0.00112703    0.00111343   -0.00079591
     atom    2 type  1   force =    -0.01150764   -0.00171233    0.00027199
     atom    3 type  1   force =    -0.01226119    0.00258077   -0.00092487
     atom    4 type  1   force =     0.01256841   -0.00183912    0.00148570
     atom    5 type  1   force =     0.01088590    0.00140671   -0.00099187
     atom    6 type  2   force =    -0.00008309    0.00265099    0.00304571
     atom    7 type  2   force =     0.00075539   -0.00438799   -0.00343611
     atom    8 type  3   force =    -0.03017623    0.00089092    0.00073294
     atom    9 type  3   force =     0.01882222   -0.00672906   -0.00664764
     atom   10 type  3   force =    -0.02220609    0.00899199   -0.01643188
     atom   11 type  3   force =    -0.02431887    0.00909215    0.01794734
     atom   12 type  3   force =    -0.02132618   -0.01006784   -0.01532179
     atom   13 type  3   force =    -0.02032750   -0.01050781    0.01562969
     atom   14 type  3   force =     0.02127040    0.00924770   -0.01651630
     atom   15 type  3   force =     0.02346365    0.00914025    0.01633424
     atom   16 type  3   force =     0.02110960   -0.00938055   -0.01644406
     atom   17 type  3   force =     0.02433910   -0.00928706    0.01347921
     atom   18 type  4   force =     0.00042806   -0.00318942    0.00277740
     atom   19 type  4   force =    -0.00973455   -0.00000455   -0.00973308
     atom   20 type  4   force =    -0.00946974    0.00081483    0.00924963
     atom   21 type  4   force =     0.00953200   -0.00050419   -0.00956557
     atom   22 type  4   force =     0.00971278    0.00071543    0.00834511
     atom   23 type  5   force =     0.00000000    0.00000000    0.00000000
     The Hubbard contrib.    to forces
     atom    1 type  1   force =     0.00000000    0.00000000    0.00000000
     atom    2 type  1   force =     0.00000000    0.00000000    0.00000000
     atom    3 type  1   force =     0.00000000    0.00000000    0.00000000
     atom    4 type  1   force =     0.00000000    0.00000000    0.00000000
     atom    5 type  1   force =     0.00000000    0.00000000    0.00000000
     atom    6 type  2   force =     0.00000000    0.00000000    0.00000000
     atom    7 type  2   force =     0.00000000    0.00000000    0.00000000
     atom    8 type  3   force =     0.00000000    0.00000000    0.00000000
     atom    9 type  3   force =     0.00000000    0.00000000    0.00000000
     atom   10 type  3   force =     0.00000000    0.00000000    0.00000000
     atom   11 type  3   force =     0.00000000    0.00000000    0.00000000
     atom   12 type  3   force =     0.00000000    0.00000000    0.00000000
     atom   13 type  3   force =     0.00000000    0.00000000    0.00000000
     atom   14 type  3   force =     0.00000000    0.00000000    0.00000000
     atom   15 type  3   force =     0.00000000    0.00000000    0.00000000
     atom   16 type  3   force =     0.00000000    0.00000000    0.00000000
     atom   17 type  3   force =     0.00000000    0.00000000    0.00000000
     atom   18 type  4   force =     0.00000000    0.00000000    0.00000000
     atom   19 type  4   force =     0.00000000    0.00000000    0.00000000
     atom   20 type  4   force =     0.00000000    0.00000000    0.00000000
     atom   21 type  4   force =     0.00000000    0.00000000    0.00000000
     atom   22 type  4   force =     0.00000000    0.00000000    0.00000000
     atom   23 type  5   force =     0.00000000    0.00000000    0.00000000
     The SCF correction term to forces
     atom    1 type  1   force =    -0.00000000    0.00000000    0.00000000
     atom    2 type  1   force =     0.00028436   -0.00005427   -0.00383438
     atom    3 type  1   force =     0.00020752   -0.00188626   -0.00279982
     atom    4 type  1   force =    -0.00082187   -0.00655263   -0.00423568
     atom    5 type  1   force =     0.00444419   -0.00188755   -0.00002759
     atom    6 type  2   force =    -0.00288615   -0.00353810   -0.01139857
     atom    7 type  2   force =     0.00349851    0.00361755    0.00512049
     atom    8 type  3   force =    -0.00484767    0.00211266   -0.00247296
     atom    9 type  3   force =     0.01606165    0.00927098    0.00351942
     atom   10 type  3   force =     0.00286162   -0.00178064   -0.00477176
     atom   11 type  3   force =    -0.00069850    0.00008054    0.00600774
     atom   12 type  3   force =     0.00259676   -0.00040349   -0.00496182
     atom   13 type  3   force =     0.00287857   -0.00475418    0.00658761
     atom   14 type  3   force =     0.00034869   -0.00346965   -0.00472189
     atom   15 type  3   force =     0.00456728   -0.00444640    0.00696387
     atom   16 type  3   force =     0.00083956    0.00131548   -0.00502260
     atom   17 type  3   force =     0.00326728   -0.00429569    0.00434751
     atom   18 type  4   force =    -0.00239219    0.00493523   -0.00953314
     atom   19 type  4   force =     0.00309114    0.00172226   -0.00387118
     atom   20 type  4   force =     0.00154265    0.00296496    0.00475054
     atom   21 type  4   force =    -0.00344119    0.00162022   -0.00975079
     atom   22 type  4   force =     0.00307764    0.00658698    0.00574689
     atom   23 type  5   force =     0.00375748    0.00092208    0.00062281

     Total force =     0.528568     Total SCF correction =     0.038375

     Entering Dynamics:    iteration =     3
                           time      =   0.0006 pico-seconds


ATOMIC_POSITIONS (angstrom)
Hf            2.6699999570        2.8271230292        6.6039642186    0   0   0
Hf            1.2529603769        1.2862803032        5.0584657719
Hf            1.2554575149        7.3898075922        5.0880686658
Hf            4.0870399361        1.2862813888        5.0584648550
Hf            4.0845439999        7.3898046930        5.0880683287
Nb            2.6699955901        2.7969200934        3.5155856249
Nb            2.6699882104        5.8763831228        6.6349898465
Ta            1.2093453358        4.3409293501        5.0711255553
Ta            4.1306514760        4.3409194902        5.0711161759
Ta            1.3072472830        1.3141149004        2.0587641468
Ta            1.3027825714        1.3083824150        8.0945936043
Ta            1.3040044285        7.3758349569        2.0462230944
Ta            1.3077090710        7.3650907470        8.0860184536
Ta            4.0327530126        1.3141151882        2.0587642547
Ta            4.0372166512        1.3083813909        8.0945945559
Ta            4.0359954549        7.3758355008        2.0462239235
Ta            4.0322914531        7.3650948259        8.0860185604
Zr            2.6700003856        5.8662992423        3.5273800420
Zr            1.2437690009        4.3220754320        1.9999408405
Zr            1.2403205315        4.3541263946        8.1498144863
Zr            4.0962299834        4.3220742092        1.9999412152
Zr            4.0996858914        4.3541241328        8.1498101054
H             4.6019610395        5.3408184682        6.0731617720


     kinetic energy (Ekin) =          18.34136642 Ry
     temperature           =       87753.71873641 K 
     Ekin + Etot (const)   =       -2924.70429616 Ry

     Writing config-only to output data dir outdir/pwscf.save/
     NEW-OLD atomic charge density approx. for the potential

     Check: negative core charge=   -0.000002

     negative rho (up, down):  9.087E-01 9.087E-01
     Generating pointlists ...
     new r_m :   0.1030 (alat units)  1.8175 (a.u.) for type    1
[...]
   -60.6309 -60.6173 -54.4165 -54.3712 -54.2813 -54.2357 -52.7427 -48.8166
   -46.2637 -41.6285 -41.6220 -41.5434 -41.5221 -39.7682 -28.3661 -27.7703
   -27.7362 -27.7071 -27.6850 -27.5978 -27.5503 -27.4810 -27.4329 -27.4119
   -27.3393 -27.3234 -27.2985 -27.2585 -27.2340 -27.2244 -27.2168 -27.1995
   -27.1975 -27.1545 -27.1449 -27.1349 -27.0165 -26.9997 -26.9339 -26.9276
   -26.8914 -26.8693 -26.8326 -26.8306 -26.4827 -24.2146 -23.9962 -23.7296
   -23.6012 -23.3255 -23.2537 -23.1957 -23.1070 -22.9667 -22.8850 -22.8715
   -22.6484 -22.5434 -22.5069 -22.4749 -22.3015 -22.2731 -21.7953 -21.7406
   -21.6812 -20.1815 -19.9131 -19.8204 -19.8198 -19.6173 -19.6025 -19.5958
   -19.5858 -19.5705 -19.5541 -19.3563 -19.3501 -18.1191 -17.9296 -17.7845
     1.2050   1.8626   2.9601   3.0168   3.1470   3.3108   3.4469   3.4894
     3.6148   3.8704   3.8936   4.1057   4.1607   4.3273   4.4929   4.6163
     4.7242   4.8660   4.9416   5.0718   5.2478   5.2741   5.2814   5.3721
     5.4285   5.5249   5.6507   5.6939   5.6971   5.7379   5.7624   5.9046
     6.0153   6.1099   6.1537   6.2190   6.2550   6.3509   6.3760   6.4154
     6.5467   6.6253   6.6629   6.7575   6.8988   6.9423   7.0029   7.0970
     7.1061   7.1309   7.1512   7.2716   7.4218   7.5024   7.5102   7.5970
     7.6515   7.8242   7.8934   8.0566   8.0673   8.0966   8.1312   8.2088
     8.2386   8.2718   8.3032   8.3748   8.4205   8.5348   8.6541   8.7337
     8.8254   8.9144   8.9848   9.0751   9.1448   9.2409   9.2702

     the Fermi energy is     7.2411 ev

!    total energy              =   -2940.90101032 Ry
     estimated scf accuracy    <       0.00071164 Ry
     smearing contrib. (-TS)   =      -0.09569117 Ry
     internal energy E=F+TS    =   -2940.80531916 Ry

     total magnetization       =    -0.00 Bohr mag/cell
     absolute magnetization    =     0.00 Bohr mag/cell

     convergence has been achieved in   4 iterations

     negative rho (up, down):  9.090E-01 9.090E-01

     Forces acting on atoms (cartesian axes, Ry/au):

     atom    1 type  1   force =    -0.00276414   -0.02564936    0.01742470
     atom    2 type  1   force =    -0.11598895   -0.01767010   -0.00794889
     atom    3 type  1   force =    -0.10633241    0.00489638    0.00034211
     atom    4 type  1   force =     0.11731368   -0.01635188   -0.00862874
     atom    5 type  1   force =     0.10663673    0.00512837   -0.00208502
     atom    6 type  2   force =     0.00067607   -0.01666083    0.00976143
     atom    7 type  2   force =    -0.55921053    3.53827321    3.68489798
     atom    8 type  3   force =    -0.11391950   -0.00456926   -0.01981198
     atom    9 type  3   force =     0.11615356   -0.00523357   -0.02360623
     atom   10 type  3   force =    -0.02010287   -0.02926116   -0.05617525
     atom   11 type  3   force =    -0.01878305   -0.04251061    0.05462912
     atom   12 type  3   force =    -0.01247820    0.03383870   -0.05862979
     atom   13 type  3   force =     0.00724556    0.02329583    0.05838694
     atom   14 type  3   force =     0.02019356   -0.02816607   -0.05531819
     atom   15 type  3   force =     0.02035401   -0.03667763    0.05497347
     atom   16 type  3   force =     0.01204472    0.03405740   -0.05547445
     atom   17 type  3   force =    -0.00112703    0.02657986    0.06324065
     atom   18 type  4   force =     0.00066200    0.03014439   -0.00512594
     atom   19 type  4   force =    -0.12626596   -0.00502395   -0.11671548
     atom   20 type  4   force =    -0.12209321    0.01093529    0.11366027
     atom   21 type  4   force =     0.12599577   -0.00553564   -0.11529769
     atom   22 type  4   force =     0.12309661    0.00806354    0.11403693
     atom   23 type  5   force =     0.54869357   -3.48190289   -3.64653594
     The non-local contrib.  to forces
     atom    1 type  1   force =    -0.00178309   -0.00243163    0.02954417
     atom    2 type  1   force =    -0.24200978   -0.16592981    0.01388390
     atom    3 type  1   force =    -0.23801616    0.15402037   -0.01809732
     atom    4 type  1   force =     0.24173901   -0.16915791    0.01440450
     atom    5 type  1   force =     0.23686625    0.15430340   -0.01990670
     atom    6 type  2   force =     0.00178159   -0.04931069   -0.06815781
     atom    7 type  2   force =    -0.02003447    0.22355588    0.20998811
     atom    8 type  3   force =    -0.24796556    0.00114442   -0.00683697
     atom    9 type  3   force =     0.24005000    0.00764087   -0.00268352
     atom   10 type  3   force =    -0.21055223   -0.00004956   -0.20959964
     atom   11 type  3   force =    -0.21296862    0.01145903    0.19064623
     atom   12 type  3   force =    -0.20246631   -0.02166394   -0.18111593
     atom   13 type  3   force =    -0.16856476   -0.01026659    0.19806737
     atom   14 type  3   force =     0.20981422    0.00102802   -0.20918108
     atom   15 type  3   force =     0.21766609    0.01126700    0.19248866
     atom   16 type  3   force =     0.20249520   -0.02126095   -0.17831133
     atom   17 type  3   force =     0.18481173   -0.00594793    0.20166697
     atom   18 type  4   force =    -0.00023610    0.05165066   -0.04980288
     atom   19 type  4   force =     0.06459421    0.01235701    0.07776034
     atom   20 type  4   force =     0.05238561   -0.00153803   -0.07115247
     atom   21 type  4   force =    -0.06508622    0.01400732    0.07951896
     atom   22 type  4   force =    -0.05205902   -0.00630868   -0.07085626
     atom   23 type  5   force =    -0.08743568    0.65463978    0.68831625
     The ionic contribution  to forces
     atom    1 type  1   force =    -0.02898611   -5.40687235   14.15624583
     atom    2 type  1   force =   -39.77871655   -6.17061105    0.68137925
     atom    3 type  1   force =   -40.08087521    6.68495987   -1.03478108
     atom    4 type  1   force =    39.77132123   -6.17651326    0.67859539
     atom    5 type  1   force =    40.07732611    6.74382544   -1.05965041
     atom    6 type  2   force =    -0.01396063   -3.78983429  -14.19068527
     atom    7 type  2   force =    -1.25827105   11.61027639   22.34517751
     atom    8 type  3   force =   -53.22802575   -0.67639245   -0.84043930
     atom    9 type  3   force =    53.31243047   -0.81548807   -0.98178996
     atom   10 type  3   force =   -36.08605051   -2.09376492  -23.09528997
     atom   11 type  3   force =   -35.21254891   -0.87760697   22.17387411
     atom   12 type  3   force =   -35.30040628    0.87100269  -22.21018839
     atom   13 type  3   force =   -36.29574415    2.53158205   23.40955265
     atom   14 type  3   force =    36.08203075   -2.09477910  -23.09773058
     atom   15 type  3   force =    35.20580501   -0.88067891   22.17870841
     atom   16 type  3   force =    35.29506120    0.87439670  -22.21583712
     atom   17 type  3   force =    36.28426343    2.55081955   23.42989375
     atom   18 type  4   force =    -0.02763934    4.50277472  -14.70292169
     atom   19 type  4   force =   -35.96127463    0.89678468  -25.61985316
     atom   20 type  4   force =   -36.29060768   -1.24072447   26.05430831
     atom   21 type  4   force =    35.95534306    0.89482132  -25.62913183
     atom   22 type  4   force =    36.28772542   -1.26356595   26.11135422
     atom   23 type  5   force =     1.29180012   -6.67441160   -6.54079066
     The local contribution  to forces
     atom    1 type  1   force =     0.03010128    5.37913624  -14.17341620
     atom    2 type  1   force =    39.92195055    6.30995576   -0.72137884
     atom    3 type  1   force =    40.22957433   -6.83349257    1.05176726
     atom    4 type  1   force =   -39.91491538    6.32455180   -0.71985992
     atom    5 type  1   force =   -40.23062346   -6.89574783    1.06788541
     atom    6 type  2   force =     0.01350385    3.81325486   14.25030615
     atom    7 type  2   force =     0.69611826   -8.23444138  -18.82226898
     atom    8 type  3   force =    53.39490523    0.67510033    0.80920518
     atom    9 type  3   force =   -53.46220344    0.80326941    0.94037281
     atom   10 type  3   force =    36.29876032    2.04659012   23.26160971
     atom   11 type  3   force =    35.43218541    0.78286974  -22.30947104
     atom   12 type  3   force =    35.51209255   -0.80461729   22.33599606
     atom   13 type  3   force =    36.49571846   -2.49571337  -23.54951031
     atom   14 type  3   force =   -36.29716356    2.05106513   23.26845103
     atom   15 type  3   force =   -35.43748630    0.81450117  -22.32232761
     atom   16 type  3   force =   -35.51445116   -0.80756198   22.34942955
     atom   17 type  3   force =   -36.51879890   -2.51525098  -23.57205220
     atom   18 type  4   force =     0.02731803   -4.51186525   14.73281603
     atom   19 type  4   force =    35.78010283   -0.90908667   25.42613832
     atom   20 type  4   force =    36.13008328    1.27867371  -25.85943877
     atom   21 type  4   force =   -35.77656082   -0.91216648   25.43987057
     atom   22 type  4   force =   -36.13364366    1.28836687  -25.92602997
     atom   23 type  5   force =    -0.65853107    2.53918543    2.20528124
     The core correction contribution to forces
     atom    1 type  1   force =    -0.00009580    0.00223055    0.00014798
     atom    2 type  1   force =    -0.01164736   -0.00217505    0.00045195
     atom    3 type  1   force =    -0.01215816    0.00347814   -0.00289278
     atom    4 type  1   force =     0.01227008   -0.00253104    0.00009562
     atom    5 type  1   force =     0.01228915    0.00269657   -0.00267975
     atom    6 type  2   force =    -0.00005788    0.00240643    0.00291612
     atom    7 type  2   force =     0.00403674   -0.03092471   -0.03057129
     atom    8 type  3   force =    -0.03135939    0.00072984    0.00079834
     atom    9 type  3   force =     0.03028630    0.00064532    0.00103039
     atom   10 type  3   force =    -0.02175652    0.00906696   -0.01660820
     atom   11 type  3   force =    -0.02227887    0.01020503    0.01631855
     atom   12 type  3   force =    -0.02184986   -0.00949921   -0.01590412
     atom   13 type  3   force =    -0.02010504   -0.00916313    0.01664668
     atom   14 type  3   force =     0.02189969    0.00910018   -0.01675018
     atom   15 type  3   force =     0.02314237    0.00939328    0.01678393
     atom   16 type  3   force =     0.02195403   -0.00963122   -0.01594940
     atom   17 type  3   force =     0.02037395   -0.01004474    0.01554069
     atom   18 type  4   force =     0.00002595   -0.00268903    0.00231837
     atom   19 type  4   force =    -0.00986930   -0.00008650   -0.00993553
     atom   20 type  4   force =    -0.00929161   -0.00001895    0.00961062
     atom   21 type  4   force =     0.00987656   -0.00021253   -0.01001539
     atom   22 type  4   force =     0.00925265    0.00016428    0.00955789
     atom   23 type  5   force =     0.00000000    0.00000000    0.00000000
     The Hubbard contrib.    to forces
     atom    1 type  1   force =     0.00000000    0.00000000    0.00000000
     atom    2 type  1   force =     0.00000000    0.00000000    0.00000000
     atom    3 type  1   force =     0.00000000    0.00000000    0.00000000
     atom    4 type  1   force =     0.00000000    0.00000000    0.00000000
     atom    5 type  1   force =     0.00000000    0.00000000    0.00000000
     atom    6 type  2   force =     0.00000000    0.00000000    0.00000000
     atom    7 type  2   force =     0.00000000    0.00000000    0.00000000
     atom    8 type  3   force =     0.00000000    0.00000000    0.00000000
     atom    9 type  3   force =     0.00000000    0.00000000    0.00000000
     atom   10 type  3   force =     0.00000000    0.00000000    0.00000000
     atom   11 type  3   force =     0.00000000    0.00000000    0.00000000
     atom   12 type  3   force =     0.00000000    0.00000000    0.00000000
     atom   13 type  3   force =     0.00000000    0.00000000    0.00000000
     atom   14 type  3   force =     0.00000000    0.00000000    0.00000000
     atom   15 type  3   force =     0.00000000    0.00000000    0.00000000
     atom   16 type  3   force =     0.00000000    0.00000000    0.00000000
     atom   17 type  3   force =     0.00000000    0.00000000    0.00000000
     atom   18 type  4   force =     0.00000000    0.00000000    0.00000000
     atom   19 type  4   force =     0.00000000    0.00000000    0.00000000
     atom   20 type  4   force =     0.00000000    0.00000000    0.00000000
     atom   21 type  4   force =     0.00000000    0.00000000    0.00000000
     atom   22 type  4   force =     0.00000000    0.00000000    0.00000000
     atom   23 type  5   force =     0.00000000    0.00000000    0.00000000
     The SCF correction term to forces
     atom    1 type  1   force =    -0.00000000    0.00000000    0.00000000
     atom    2 type  1   force =    -0.00577635    0.01082606    0.01699334
     atom    3 type  1   force =    -0.00506776   -0.00433341    0.00362454
     atom    4 type  1   force =     0.00668820    0.00703454    0.01741418
     atom    5 type  1   force =     0.01056813   -0.00021320    0.01154495
     atom    6 type  2   force =    -0.00080140    0.00655888    0.01466074
     atom    7 type  2   force =     0.01872945   -0.03045696   -0.01814886
     atom    8 type  3   force =    -0.00168458   -0.00541538    0.01673928
     atom    9 type  3   force =    -0.00462032   -0.00156508    0.01874257
     atom   10 type  3   force =    -0.00071447    0.00863225    0.00299135
     atom   11 type  3   force =    -0.00338261    0.03029856   -0.01746022
     atom   12 type  3   force =    -0.00005884   -0.00164754    0.01186110
     atom   13 type  3   force =    -0.00426949    0.00659288   -0.01709095
     atom   14 type  3   force =     0.00340191    0.00515572   -0.00082887
     atom   15 type  3   force =     0.01101628    0.00857584   -0.01140142
     atom   16 type  3   force =     0.00677492   -0.00214914    0.00447236
     atom   17 type  3   force =     0.02801221    0.00673997   -0.01253006
     atom   18 type  4   force =     0.00098291   -0.00999070    0.01174274
     atom   19 type  4   force =    -0.00002962   -0.00525646    0.00845306
     atom   20 type  4   force =    -0.00487335   -0.02572096   -0.02038892
     atom   21 type  4   force =     0.00221263   -0.00224926    0.00373850
     atom   22 type  4   force =     0.01161068   -0.01085697   -0.01071045
     atom   23 type  5   force =     0.00264966   -0.00158049   -0.00006426

     Total force =     7.236252     Total SCF correction =     0.093647

     Entering Dynamics:    iteration =    10
                           time      =   0.0020 pico-seconds


ATOMIC_POSITIONS (angstrom)
Hf            2.6699999570        2.8271230292        6.6039642186    0   0   0
Hf            1.2526527994        1.2862431705        5.0584598430
Hf            1.2551634361        7.3898394082        5.0880706886
Hf            4.0873563257        1.2862474042        5.0584585698
Hf            4.0848473754        7.3898299413        5.0880546842
Nb            2.6699760780        2.7968209396        3.5156242304
Nb            2.6687583926        5.8777882185        6.6363349654
Ta            1.2090674430        4.3409395307        5.0711172362
Ta            4.1308902042        4.3405989561        5.0707643776
Ta            1.3071920146        1.3140357350        2.0586125929
Ta            1.3027262309        1.3082820322        8.0947338578
Ta            1.3039564891        7.3759241417        2.0460818659
Ta            1.3076941071        7.3651849078        8.0861854860
Ta            4.0328063403        1.3140413236        2.0586180635
Ta            4.0372664961        1.3082856639        8.0947477145
Ta            4.0360403558        7.3759270809        2.0460884368
Ta            4.0323116521        7.3652075093        8.0861906227
Zr            2.6699999421        5.8664423454        3.5273242670
Zr            1.2431108319        4.3220495576        1.9993461527
Zr            1.2396758797        4.3541526824        8.1504241487
Zr            4.0968864765        4.3220456561        1.9993387126
Zr            4.1003605738        4.3541227704        8.1504123276
H             2.4595063151        5.3076257915        6.0388799442


     kinetic energy (Ekin) =          16.31040494 Ry
     temperature           =       78036.64431398 K 
     Ekin + Etot (const)   =       -2924.59060538 Ry

     The maximum number of steps has been reached.

     End of molecular dynamics calculation

     diffusion coefficients :
     atom     1   D =       0.00000000 cm^2/s
     atom     2   D =       0.00000000 cm^2/s
     atom     3   D =       0.00000000 cm^2/s
     atom     4   D =       0.00000000 cm^2/s
     atom     5   D =       0.00000000 cm^2/s
     atom     6   D =       0.00000000 cm^2/s
     atom     7   D =       0.00000004 cm^2/s
     atom     8   D =       0.00000000 cm^2/s
     atom     9   D =       0.00000000 cm^2/s
     atom    10   D =       0.00000000 cm^2/s
     atom    11   D =       0.00000000 cm^2/s
     atom    12   D =       0.00000000 cm^2/s
     atom    13   D =       0.00000000 cm^2/s
     atom    14   D =       0.00000000 cm^2/s
     atom    15   D =       0.00000000 cm^2/s
     atom    16   D =       0.00000000 cm^2/s
     atom    17   D =       0.00000000 cm^2/s
     atom    18   D =       0.00000000 cm^2/s
     atom    19   D =       0.00000001 cm^2/s
     atom    20   D =       0.00000001 cm^2/s
     atom    21   D =       0.00000001 cm^2/s
     atom    22   D =       0.00000001 cm^2/s
     atom    23   D =       0.07810110 cm^2/s

     < D > =       0.00355005 cm^2/s

     Writing all to output data dir outdir/pwscf.save/

     init_run     :     27.98s CPU     29.15s WALL (       1 calls)
     electrons    :   2997.80s CPU   3042.81s WALL (      10 calls)
     update_pot   :     26.08s CPU     26.17s WALL (       9 calls)
     forces       :    208.10s CPU    211.02s WALL (      10 calls)

     Called by init_run:
     wfcinit      :     21.95s CPU     22.14s WALL (       1 calls)
     potinit      :      1.30s CPU      1.44s WALL (       1 calls)
     hinit0       :      2.05s CPU      2.19s WALL (       1 calls)

     Called by electrons:
     c_bands      :   2447.04s CPU   2462.71s WALL (      52 calls)
     sum_band     :    394.87s CPU    411.06s WALL (      52 calls)
     v_of_rho     :     17.63s CPU     18.32s WALL (      62 calls)
     newd         :    164.65s CPU    179.57s WALL (      62 calls)
     mix_rho      :      1.45s CPU      1.47s WALL (      52 calls)

     Called by c_bands:
     init_us_2    :      3.72s CPU      3.75s WALL (     230 calls)
     init_us_2:cp :      3.71s CPU      3.75s WALL (     230 calls)
     regterg      :   2428.12s CPU   2443.68s WALL (     104 calls)

     Called by *egterg:
     rdiaghg      :     29.94s CPU     30.30s WALL (     660 calls)
     h_psi        :   1004.45s CPU   1015.17s WALL (     680 calls)
     s_psi        :    347.59s CPU    348.07s WALL (     680 calls)
     g_psi        :      0.73s CPU      0.74s WALL (     574 calls)

     Called by h_psi:
     h_psi:calbec :    433.41s CPU    434.25s WALL (     680 calls)
     vloc_psi     :    217.62s CPU    226.93s WALL (     680 calls)
     add_vuspsi   :    351.84s CPU    352.41s WALL (     680 calls)

     General routines
     calbec       :    718.48s CPU    719.82s WALL (     864 calls)
     fft          :     16.63s CPU     17.40s WALL (    1089 calls)
     ffts         :      0.38s CPU      0.42s WALL (      52 calls)
     fftw         :    224.03s CPU    233.78s WALL (   56022 calls)

     Parallel routines

     PWSCF        :  54m45.57s CPU  55m37.51s WALL


   This run was terminated on:  15:21:40   8Jun2023            

=------------------------------------------------------------------------------=
   JOB DONE.
=------------------------------------------------------------------------------=
