
     Program PWSCF v.7.2 starts on 14May2023 at  3:47:44 

     This program is part of the open-source Quantum ESPRESSO suite
     for quantum simulation of materials; please cite
         "P. Giannozzi et al., J. Phys.:Condens. Matter 21 395502 (2009);
         "P. Giannozzi et al., J. Phys.:Condens. Matter 29 465901 (2017);
         "P. Giannozzi et al., J. Chem. Phys. 152 154105 (2020);
          URL http://www.quantum-espresso.org", 
     in publications or presentations arising from this work. More details at
     http://www.quantum-espresso.org/quote

     Parallel version (MPI), running on    12 processors

     MPI processes distributed on     1 nodes
     73330 MiB available memory on the printing compute node when the environment starts

     Reading input from D_Ta_MD.in
Warning: card &CELL ignored
Warning: card / ignored
Warning: card TA 0.0 0.0 0.0 ignored
Warning: card H 0.0 0.0 0.0346437183565424 ignored

     Current dimensions of program PWSCF are:
     Max number of different atomic species (ntypx) = 10
     Max number of k-points (npk) =  40000
     Max angular momentum in pseudopotentials (lmaxx) =  4

     File outdir/pwscf.md deleted, as requested

     R & G space division:  proc/nbgrp/npool/nimage =      12
     Subspace diagonalization in iterative solution of the eigenvalue problem:
     a serial algorithm will be used


     Parallelization info
     --------------------
     sticks:   dense  smooth     PW     G-vecs:    dense   smooth      PW
     Min         197     197     49                19389    19389    2419
     Max         198     198     50                19400    19400    2424
     Sum        2375    2375    599               232765   232765   29075

     Using Slab Decomposition



     bravais-lattice index     =            0
     lattice parameter (alat)  =      18.7412  a.u.
     unit-cell volume          =   10483.6616 (a.u.)^3
     number of atoms/cell      =           10
     number of atomic types    =            2
     number of electrons       =       118.00
     number of Kohn-Sham states=           71
     kinetic-energy cutoff     =      30.0000  Ry
     charge density cutoff     =     120.0000  Ry
     scf convergence threshold =      1.0E-06
     mixing beta               =       0.7000
     number of iterations used =            8  plain     mixing
     energy convergence thresh.=      0.0E+00
     force convergence thresh. =      0.0E+00
     Exchange-correlation=  SLA  PW   PBX  PBC
                           (   1   4   3   4   0   0   0)
     nstep                     =            1


     celldm(1)=  18.741170  celldm(2)=   0.000000  celldm(3)=   0.000000
     celldm(4)=   0.000000  celldm(5)=   0.000000  celldm(6)=   0.000000

     crystal axes: (cart. coord. in units of alat)
               a(1) = (   1.000000   0.000000   0.000000 )  
               a(2) = (   0.500000   0.707107   0.000000 )  
               a(3) = (   0.000000   0.000000   2.252360 )  

     reciprocal axes: (cart. coord. in units 2 pi/alat)
               b(1) = (  1.000000 -0.707107  0.000000 )  
               b(2) = (  0.000000  1.414213  0.000000 )  
               b(3) = (  0.000000  0.000000  0.443979 )  


     PseudoPot. # 1 for Ta read from file:
     q-e/pseudo/ta_pbe_v1.uspp.F.UPF
     MD5 check sum: f8bbe9446314a3b8ea5d9f3e3836c939
     Pseudo is Ultrasoft + core correction, Zval = 13.0
     Generated by new atomic code, or converted to UPF format
     Using radial grid of  921 points,  7 beta functions with: 
                l(1) =   0
                l(2) =   0
                l(3) =   1
                l(4) =   1
                l(5) =   2
                l(6) =   2
                l(7) =   3
     Q(r) pseudized with  6 coefficients,  rinner =    1.300   1.300   1.300
                                                       1.300   1.300   1.300
                                                       1.300

     PseudoPot. # 2 for H  read from file:
     q-e/pseudo/h_pbe_v1.4.uspp.F.UPF
     MD5 check sum: 761ae9a214b05c3daf00ab9f6b793d6f
     Pseudo is Ultrasoft, Zval =  1.0
     Generated by new atomic code, or converted to UPF format
     Using radial grid of  615 points,  2 beta functions with: 
                l(1) =   0
                l(2) =   0
     Q(r) pseudized with  8 coefficients,  rinner =    0.700

     atomic species   valence    mass     pseudopotential
        Ta            13.00   180.94788     Ta( 1.00)
        H              1.00     2.01400     H ( 1.00)

     No symmetry found



   Cartesian axes

     site n.     atom                  positions (alat units)
         1           Ta  tau(   1) = (   0.0000000   0.2357023   1.0083288  )
         2           Ta  tau(   2) = (   0.3333333   0.2357023   1.0083288  )
         3           Ta  tau(   3) = (   0.6666667   0.2357023   1.0083288  )
         4           Ta  tau(   4) = (   0.1666667   0.4714045   1.0083288  )
         5           Ta  tau(   5) = (   0.5000000   0.4714045   1.0083288  )
         6           Ta  tau(   6) = (   0.8333333   0.4714045   1.0083288  )
         7           Ta  tau(   7) = (   0.3333333   0.7071068   1.0083288  )
         8           Ta  tau(   8) = (   0.6666667   0.7071068   1.0083288  )
         9           Ta  tau(   9) = (   1.0000000   0.7071068   1.0083288  )
        10           H   tau(  10) = (   0.5041644   0.4033315   0.5041644  )

     number of k points=     1  Gaussian smearing, width (Ry)=  0.0100
                       cart. coord. in units 2pi/alat
        k(    1) = (   0.0000000   0.0000000   0.0000000), wk =   2.0000000

     Dense  grid:   232765 G-vectors     FFT dimensions: (  72,  60, 150)

     Estimated max dynamical RAM per process >     138.64 MB

     Estimated total dynamical RAM >       1.62 GB

     Check: negative core charge=   -0.000002

     Initial potential from superposition of free atoms

     starting charge     117.9900, renormalised to     118.0000

     negative rho (up, down):  8.768E-01 0.000E+00
     Starting wfcs are  118 randomized atomic wfcs

     total cpu time spent up to now is        2.7 secs

     Self-consistent Calculation

     iteration #  1     ecut=    30.00 Ry     beta= 0.70
     Davidson diagonalization with overlap
     ethr =  1.00E-02,  avg # of iterations =  2.0

     Threshold (ethr) on eigenvalues was too large:
     Diagonalizing with lowered threshold

     Davidson diagonalization with overlap
     ethr =  9.55E-04,  avg # of iterations =  1.0

     negative rho (up, down):  8.697E-01 0.000E+00

     total cpu time spent up to now is        7.0 secs

     total energy              =   -1275.28263229 Ry
     estimated scf accuracy    <       1.16701120 Ry

     iteration #  2     ecut=    30.00 Ry     beta= 0.70
     Davidson diagonalization with overlap
     ethr =  9.89E-04,  avg # of iterations =  5.0

     negative rho (up, down):  8.699E-01 0.000E+00

     total cpu time spent up to now is        9.8 secs

     total energy              =   -1275.58000264 Ry
     estimated scf accuracy    <       2.96091634 Ry

     iteration #  3     ecut=    30.00 Ry     beta= 0.70
     Davidson diagonalization with overlap
     ethr =  9.89E-04,  avg # of iterations =  2.0

     negative rho (up, down):  8.698E-01 0.000E+00

     total cpu time spent up to now is       12.5 secs

     total energy              =   -1275.55425424 Ry
     estimated scf accuracy    <       1.94611425 Ry

     iteration #  4     ecut=    30.00 Ry     beta= 0.70
     Davidson diagonalization with overlap
     ethr =  9.89E-04,  avg # of iterations =  2.0

     negative rho (up, down):  8.695E-01 0.000E+00

     total cpu time spent up to now is       15.0 secs

     total energy              =   -1275.54372420 Ry
     estimated scf accuracy    <       0.95200476 Ry

     iteration #  5     ecut=    30.00 Ry     beta= 0.70
     Davidson diagonalization with overlap
     ethr =  8.07E-04,  avg # of iterations =  2.0

     negative rho (up, down):  8.689E-01 0.000E+00

     total cpu time spent up to now is       17.3 secs

     total energy              =   -1275.23297640 Ry
     estimated scf accuracy    <       1.38870461 Ry

     iteration #  6     ecut=    30.00 Ry     beta= 0.70
     Davidson diagonalization with overlap
     ethr =  8.07E-04,  avg # of iterations =  4.0

     negative rho (up, down):  8.693E-01 0.000E+00

     total cpu time spent up to now is       20.2 secs

     total energy              =   -1276.09219504 Ry
     estimated scf accuracy    <       1.96566844 Ry

     iteration #  7     ecut=    30.00 Ry     beta= 0.70
     Davidson diagonalization with overlap
     ethr =  8.07E-04,  avg # of iterations =  2.0

     negative rho (up, down):  8.696E-01 0.000E+00

     total cpu time spent up to now is       22.8 secs

     total energy              =   -1275.94642161 Ry
     estimated scf accuracy    <       1.35588602 Ry

     iteration #  8     ecut=    30.00 Ry     beta= 0.70
     Davidson diagonalization with overlap
     ethr =  8.07E-04,  avg # of iterations =  2.0

     negative rho (up, down):  8.700E-01 0.000E+00

     total cpu time spent up to now is       25.4 secs

     total energy              =   -1275.72922388 Ry
     estimated scf accuracy    <       0.87005224 Ry

     iteration #  9     ecut=    30.00 Ry     beta= 0.70
     Davidson diagonalization with overlap
     ethr =  7.37E-04,  avg # of iterations =  2.0

     negative rho (up, down):  8.704E-01 0.000E+00

     total cpu time spent up to now is       27.7 secs

     total energy              =   -1275.66287464 Ry
     estimated scf accuracy    <       0.56482053 Ry

     iteration # 10     ecut=    30.00 Ry     beta= 0.70
     Davidson diagonalization with overlap
     ethr =  4.79E-04,  avg # of iterations =  2.0

     negative rho (up, down):  8.702E-01 0.000E+00

     total cpu time spent up to now is       30.1 secs

     total energy              =   -1275.84348403 Ry
     estimated scf accuracy    <       0.63976686 Ry

     iteration # 11     ecut=    30.00 Ry     beta= 0.70
     Davidson diagonalization with overlap
     ethr =  4.79E-04,  avg # of iterations =  1.0

     negative rho (up, down):  8.703E-01 0.000E+00

     total cpu time spent up to now is       32.4 secs

     total energy              =   -1275.81414972 Ry
     estimated scf accuracy    <       0.62312770 Ry

     iteration # 12     ecut=    30.00 Ry     beta= 0.70
     Davidson diagonalization with overlap
     ethr =  4.79E-04,  avg # of iterations =  1.0

     negative rho (up, down):  8.703E-01 0.000E+00

     total cpu time spent up to now is       34.6 secs

     total energy              =   -1275.80800755 Ry
     estimated scf accuracy    <       0.56422103 Ry

     iteration # 13     ecut=    30.00 Ry     beta= 0.70
     Davidson diagonalization with overlap
     ethr =  4.78E-04,  avg # of iterations =  1.0

     negative rho (up, down):  8.703E-01 0.000E+00

     total cpu time spent up to now is       36.8 secs

     total energy              =   -1275.78436124 Ry
     estimated scf accuracy    <       0.55908803 Ry

     iteration # 14     ecut=    30.00 Ry     beta= 0.70
     Davidson diagonalization with overlap
     ethr =  4.74E-04,  avg # of iterations =  1.0

     negative rho (up, down):  8.703E-01 0.000E+00

     total cpu time spent up to now is       38.9 secs

     total energy              =   -1275.77082105 Ry
     estimated scf accuracy    <       0.49478352 Ry

     iteration # 15     ecut=    30.00 Ry     beta= 0.70
     Davidson diagonalization with overlap
     ethr =  4.19E-04,  avg # of iterations =  1.0

     negative rho (up, down):  8.702E-01 0.000E+00

     total cpu time spent up to now is       41.1 secs

     total energy              =   -1275.76231011 Ry
     estimated scf accuracy    <       0.42999325 Ry

     iteration # 16     ecut=    30.00 Ry     beta= 0.70
     Davidson diagonalization with overlap
     ethr =  3.64E-04,  avg # of iterations =  1.0

     negative rho (up, down):  8.701E-01 0.000E+00

     total cpu time spent up to now is       43.4 secs

     total energy              =   -1275.75597934 Ry
     estimated scf accuracy    <       0.17399484 Ry

     iteration # 17     ecut=    30.00 Ry     beta= 0.70
     Davidson diagonalization with overlap
     ethr =  1.47E-04,  avg # of iterations =  1.0

     negative rho (up, down):  8.702E-01 0.000E+00

     total cpu time spent up to now is       45.5 secs

     total energy              =   -1275.75373863 Ry
     estimated scf accuracy    <       0.22700746 Ry

     iteration # 18     ecut=    30.00 Ry     beta= 0.70
     Davidson diagonalization with overlap
     ethr =  1.47E-04,  avg # of iterations =  1.0

     negative rho (up, down):  8.700E-01 0.000E+00

     total cpu time spent up to now is       47.7 secs

     total energy              =   -1275.75231033 Ry
     estimated scf accuracy    <       0.23936131 Ry

     iteration # 19     ecut=    30.00 Ry     beta= 0.70
     Davidson diagonalization with overlap
     ethr =  1.47E-04,  avg # of iterations =  1.0

     negative rho (up, down):  8.701E-01 0.000E+00

     total cpu time spent up to now is       50.0 secs

     total energy              =   -1275.76268514 Ry
     estimated scf accuracy    <       0.45708880 Ry

     iteration # 20     ecut=    30.00 Ry     beta= 0.70
     Davidson diagonalization with overlap
     ethr =  1.47E-04,  avg # of iterations =  1.0

     negative rho (up, down):  8.702E-01 0.000E+00

     total cpu time spent up to now is       52.2 secs

     total energy              =   -1275.75732651 Ry
     estimated scf accuracy    <       0.19082173 Ry

     iteration # 21     ecut=    30.00 Ry     beta= 0.70
     Davidson diagonalization with overlap
     ethr =  1.47E-04,  avg # of iterations =  1.0

     negative rho (up, down):  8.702E-01 0.000E+00

     total cpu time spent up to now is       54.4 secs

     total energy              =   -1275.76107413 Ry
     estimated scf accuracy    <       0.08173083 Ry

     iteration # 22     ecut=    30.00 Ry     beta= 0.70
     Davidson diagonalization with overlap
     ethr =  6.93E-05,  avg # of iterations =  1.0

     negative rho (up, down):  8.701E-01 0.000E+00

     total cpu time spent up to now is       56.6 secs

     total energy              =   -1275.76148335 Ry
     estimated scf accuracy    <       0.00380252 Ry

     iteration # 23     ecut=    30.00 Ry     beta= 0.70
     Davidson diagonalization with overlap
     ethr =  3.22E-06,  avg # of iterations =  1.0

     negative rho (up, down):  8.702E-01 0.000E+00

     total cpu time spent up to now is       58.7 secs

     total energy              =   -1275.76155342 Ry
     estimated scf accuracy    <       0.00261598 Ry

     iteration # 24     ecut=    30.00 Ry     beta= 0.70
     Davidson diagonalization with overlap
     ethr =  2.22E-06,  avg # of iterations =  1.0

     negative rho (up, down):  8.702E-01 0.000E+00

     total cpu time spent up to now is       60.8 secs

     total energy              =   -1275.76157691 Ry
     estimated scf accuracy    <       0.00002650 Ry

     iteration # 25     ecut=    30.00 Ry     beta= 0.70
     Davidson diagonalization with overlap
     ethr =  2.25E-08,  avg # of iterations =  2.0

     negative rho (up, down):  8.702E-01 0.000E+00

     total cpu time spent up to now is       63.4 secs

     total energy              =   -1275.76157783 Ry
     estimated scf accuracy    <       0.00001903 Ry

     iteration # 26     ecut=    30.00 Ry     beta= 0.70
     Davidson diagonalization with overlap
     ethr =  1.61E-08,  avg # of iterations =  5.0

     negative rho (up, down):  8.702E-01 0.000E+00

     total cpu time spent up to now is       66.1 secs

     total energy              =   -1275.76157797 Ry
     estimated scf accuracy    <       0.00005141 Ry

     iteration # 27     ecut=    30.00 Ry     beta= 0.70
     Davidson diagonalization with overlap
     ethr =  1.61E-08,  avg # of iterations =  3.0

     negative rho (up, down):  8.702E-01 0.000E+00

     total cpu time spent up to now is       68.4 secs

     total energy              =   -1275.76157998 Ry
     estimated scf accuracy    <       0.00000352 Ry

     iteration # 28     ecut=    30.00 Ry     beta= 0.70
     Davidson diagonalization with overlap
     ethr =  2.99E-09,  avg # of iterations =  5.0

     negative rho (up, down):  8.702E-01 0.000E+00

     total cpu time spent up to now is       70.9 secs

     total energy              =   -1275.76158012 Ry
     estimated scf accuracy    <       0.00000230 Ry

     iteration # 29     ecut=    30.00 Ry     beta= 0.70
     Davidson diagonalization with overlap
     ethr =  1.95E-09,  avg # of iterations =  5.0

     negative rho (up, down):  8.702E-01 0.000E+00

     total cpu time spent up to now is       73.6 secs

     total energy              =   -1275.76157985 Ry
     estimated scf accuracy    <       0.00000858 Ry

     iteration # 30     ecut=    30.00 Ry     beta= 0.70
     Davidson diagonalization with overlap
     ethr =  1.95E-09,  avg # of iterations =  5.0

     negative rho (up, down):  8.702E-01 0.000E+00

     total cpu time spent up to now is       76.1 secs

     End of self-consistent calculation

          k = 0.0000 0.0000 0.0000 ( 29075 PWs)   bands (ev):

   -70.9016 -70.8621 -70.8620 -70.8592 -70.8590 -70.8311 -70.8298 -70.8243
   -70.8231 -37.5326 -37.4633 -37.4622 -37.4585 -37.4584 -37.4252 -37.4248
   -37.4241 -37.4236 -37.4152 -37.4128 -37.4006 -37.3998 -37.3719 -37.3715
   -37.3641 -37.3637 -37.3579 -37.3576 -37.2247 -37.2244 -36.9292 -36.7904
   -36.7902 -36.7871 -36.7865 -36.6466  -8.2823  -5.9018  -5.9017  -5.9005
    -5.8995  -5.2496  -5.2488  -3.8405  -3.8398  -3.6390  -3.6049  -3.6039
    -3.6038  -3.6031  -3.4309  -3.4301  -3.2531  -2.8790  -2.8668  -2.8659
    -2.8650  -2.7414  -2.7385  -2.7331  -2.6786  -2.6784  -2.2311  -2.2297
    -2.0029  -1.9103  -1.9098  -1.6526  -1.6525  -1.6523  -1.6505

     the Fermi energy is    -2.7257 ev

!    total energy              =   -1275.76157952 Ry
     estimated scf accuracy    <       0.00000097 Ry
     smearing contrib. (-TS)   =      -0.03422126 Ry
     internal energy E=F+TS    =   -1275.72735826 Ry

     convergence has been achieved in  30 iterations

     negative rho (up, down):  8.702E-01 0.000E+00

     Forces acting on atoms (cartesian axes, Ry/au):

     atom    1 type  1   force =    -0.00018444    0.00006452    0.00008815
     atom    2 type  1   force =    -0.00027075   -0.00038303   -0.00078508
     atom    3 type  1   force =     0.00045280   -0.00024121   -0.00084505
     atom    4 type  1   force =    -0.00027047    0.00027112   -0.00013425
     atom    5 type  1   force =     0.00018627    0.00009578   -0.00261675
     atom    6 type  1   force =     0.00008780    0.00016145   -0.00016517
     atom    7 type  1   force =    -0.00071771    0.00022895    0.00024825
     atom    8 type  1   force =     0.00074448   -0.00002007    0.00021412
     atom    9 type  1   force =    -0.00002966   -0.00017607    0.00021300
     atom   10 type  2   force =     0.00000167   -0.00000144    0.00378278
     The non-local contrib.  to forces
     atom    1 type  1   force =    -0.00014942    0.00096879   -0.00383963
     atom    2 type  1   force =     0.00115949   -0.00079700   -0.00589544
     atom    3 type  1   force =    -0.00099892   -0.00057953   -0.00597049
     atom    4 type  1   force =    -0.00137276    0.00047191   -0.00402124
     atom    5 type  1   force =     0.00028936   -0.00037637   -0.00628096
     atom    6 type  1   force =     0.00108979    0.00042932   -0.00411438
     atom    7 type  1   force =    -0.00098202    0.00012722   -0.00500122
     atom    8 type  1   force =     0.00105344   -0.00015232   -0.00504448
     atom    9 type  1   force =    -0.00007013   -0.00000455   -0.00432870
     atom   10 type  2   force =     0.00000346    0.00000632    0.00103076
     The ionic contribution  to forces
     atom    1 type  1   force =     0.00072547    0.00682194    0.32766438
     atom    2 type  1   force =    -0.03028836   -0.02520940    0.38155230
     atom    3 type  1   force =     0.02958548   -0.02628189    0.38353324
     atom    4 type  1   force =    -0.03374092    0.00301203    0.34668575
     atom    5 type  1   force =    -0.00129376    0.01955678    0.43188448
     atom    6 type  1   force =     0.03499885    0.00345064    0.34878531
     atom    7 type  1   force =    -0.00946395    0.02020080    0.35441937
     atom    8 type  1   force =     0.00930276    0.02156078    0.35503861
     atom    9 type  1   force =     0.00016619   -0.02300027    0.34028117
     atom   10 type  2   force =     0.00000824   -0.00011140   -3.26984459
     The local contribution  to forces
     atom    1 type  1   force =    -0.00173110   -0.00754075   -0.32457753
     atom    2 type  1   force =     0.03026966    0.02486544   -0.37691926
     atom    3 type  1   force =    -0.02855629    0.02661078   -0.37885677
     atom    4 type  1   force =     0.03404571   -0.00232102   -0.34337735
     atom    5 type  1   force =     0.00224226   -0.01892285   -0.42854240
     atom    6 type  1   force =    -0.03625196   -0.00359424   -0.34543564
     atom    7 type  1   force =     0.00973731   -0.01978181   -0.34991843
     atom    8 type  1   force =    -0.00968863   -0.02258169   -0.35056268
     atom    9 type  1   force =    -0.00005963    0.02307627   -0.33659369
     atom   10 type  2   force =    -0.00000170    0.00010222    3.27247914
     The core correction contribution to forces
     atom    1 type  1   force =    -0.00000904   -0.00026487   -0.00020539
     atom    2 type  1   force =    -0.00028269   -0.00035871   -0.00048277
     atom    3 type  1   force =     0.00029094   -0.00036522   -0.00049653
     atom    4 type  1   force =     0.00003148    0.00013748   -0.00035072
     atom    5 type  1   force =    -0.00001348    0.00023551   -0.00054762
     atom    6 type  1   force =    -0.00001824    0.00014047   -0.00036370
     atom    7 type  1   force =    -0.00024202    0.00019142   -0.00026743
     atom    8 type  1   force =     0.00025807    0.00020822   -0.00027266
     atom    9 type  1   force =    -0.00001619    0.00006891   -0.00017651
     atom   10 type  2   force =     0.00000000    0.00000000    0.00000000
     The Hubbard contrib.    to forces
     atom    1 type  1   force =     0.00000000    0.00000000    0.00000000
     atom    2 type  1   force =     0.00000000    0.00000000    0.00000000
     atom    3 type  1   force =     0.00000000    0.00000000    0.00000000
     atom    4 type  1   force =     0.00000000    0.00000000    0.00000000
     atom    5 type  1   force =     0.00000000    0.00000000    0.00000000
     atom    6 type  1   force =     0.00000000    0.00000000    0.00000000
     atom    7 type  1   force =     0.00000000    0.00000000    0.00000000
     atom    8 type  1   force =     0.00000000    0.00000000    0.00000000
     atom    9 type  1   force =     0.00000000    0.00000000    0.00000000
     atom   10 type  2   force =     0.00000000    0.00000000    0.00000000
     The SCF correction term to forces
     atom    1 type  1   force =     0.00098171    0.00007892    0.00093395
     atom    2 type  1   force =    -0.00112678    0.00111614    0.00084771
     atom    3 type  1   force =     0.00013365    0.00037416    0.00083313
     atom    4 type  1   force =     0.00076808   -0.00102977    0.00081694
     atom    5 type  1   force =    -0.00103606   -0.00039780    0.00075738
     atom    6 type  1   force =     0.00027142   -0.00026524    0.00085087
     atom    7 type  1   force =     0.00023503   -0.00050918    0.00090358
     atom    8 type  1   force =    -0.00017909    0.00094442    0.00094295
     atom    9 type  1   force =    -0.00004785   -0.00031693    0.00091835
     atom   10 type  2   force =    -0.00000627    0.00000092    0.00000510

     Total force =     0.004959     Total SCF correction =     0.003848
     SCF correction compared to forces is large: reduce conv_thr to get better values

     Molecular Dynamics Calculation
     mass Ta               =   180.95
     mass H                =     2.01
     Time step             =    10.00 a.u.,  0.4838 femto-seconds

     Entering Dynamics:    iteration =     1
                           time      =   0.0005 pico-seconds


ATOMIC_POSITIONS (angstrom)
Ta           -0.0000000296        2.3375540056       10.0000000141
Ta            3.3057996333        2.3375539338        9.9999998740
Ta            6.6116004178        2.3375539565        9.9999998644
Ta            1.6529002908        4.6751070421        9.9999999785
Ta            4.9587000408        4.6751070140        9.9999995802
Ta            8.2644997018        4.6751070245        9.9999999735
Ta            3.3057995616        7.0126610305       10.0000000398
Ta            6.6116004646        7.0126609906       10.0000000344
Ta            9.9174000171        7.0126609656       10.0000000342
H             5.0000000240        3.9999999792        5.0000545246


     kinetic energy (Ekin) =           0.00000000 Ry
     temperature           =           0.00000000 K 
     Ekin + Etot (const)   =       -1275.76157952 Ry

     Linear momentum :    0.0000000000    0.0000000000    0.0000000000

     File outdir/pwscf.msd.dat deleted, as requested

     The maximum number of steps has been reached.

     End of molecular dynamics calculation

     diffusion coefficients :
     atom     1   D =       0.00000000 cm^2/s
     atom     2   D =       0.00000000 cm^2/s
     atom     3   D =       0.00000000 cm^2/s
     atom     4   D =       0.00000000 cm^2/s
     atom     5   D =       0.00000000 cm^2/s
     atom     6   D =       0.00000000 cm^2/s
     atom     7   D =       0.00000000 cm^2/s
     atom     8   D =       0.00000000 cm^2/s
     atom     9   D =       0.00000000 cm^2/s
     atom    10   D =       0.00000000 cm^2/s

     < D > =       0.00000000 cm^2/s

     Writing all to output data dir outdir/pwscf.save/

     init_run     :      2.32s CPU      2.46s WALL (       1 calls)
     electrons    :     69.95s CPU     73.39s WALL (       1 calls)
     forces       :      1.52s CPU      1.56s WALL (       1 calls)

     Called by init_run:
     wfcinit      :      1.00s CPU      1.04s WALL (       1 calls)
     potinit      :      0.19s CPU      0.22s WALL (       1 calls)
     hinit0       :      0.72s CPU      0.72s WALL (       1 calls)

     Called by electrons:
     c_bands      :     44.36s CPU     45.25s WALL (      31 calls)
     sum_band     :     14.50s CPU     16.00s WALL (      31 calls)
     v_of_rho     :      1.06s CPU      1.13s WALL (      31 calls)
     newd         :     10.06s CPU     11.12s WALL (      31 calls)
     mix_rho      :      0.29s CPU      0.29s WALL (      31 calls)

     Called by c_bands:
     init_us_2    :      0.22s CPU      0.23s WALL (      63 calls)
     init_us_2:cp :      0.22s CPU      0.23s WALL (      63 calls)
     cegterg      :     43.20s CPU     44.06s WALL (      31 calls)

     Called by *egterg:
     cdiaghg      :      1.01s CPU      1.01s WALL (      95 calls)
     h_psi        :     23.57s CPU     24.29s WALL (      97 calls)
     s_psi        :      7.14s CPU      7.17s WALL (      97 calls)
     g_psi        :      0.03s CPU      0.03s WALL (      65 calls)

     Called by h_psi:
     h_psi:calbec :      7.70s CPU      7.73s WALL (      97 calls)
     vloc_psi     :      8.61s CPU      9.26s WALL (      97 calls)
     add_vuspsi   :      7.18s CPU      7.19s WALL (      97 calls)

     General routines
     calbec       :     11.68s CPU     11.73s WALL (     132 calls)
     fft          :      1.76s CPU      1.80s WALL (     353 calls)
     ffts         :      0.05s CPU      0.05s WALL (      31 calls)
     fftw         :      9.65s CPU     10.37s WALL (   11719 calls)

     Parallel routines

     PWSCF        :   1m14.09s CPU   1m17.82s WALL


   This run was terminated on:   3:49: 1  14May2023            

=------------------------------------------------------------------------------=
   JOB DONE.
=------------------------------------------------------------------------------=
