
     Program PWSCF v.7.2 starts on 11May2023 at  4: 4:21 

     This program is part of the open-source Quantum ESPRESSO suite
     for quantum simulation of materials; please cite
         "P. Giannozzi et al., J. Phys.:Condens. Matter 21 395502 (2009);
         "P. Giannozzi et al., J. Phys.:Condens. Matter 29 465901 (2017);
         "P. Giannozzi et al., J. Chem. Phys. 152 154105 (2020);
          URL http://www.quantum-espresso.org", 
     in publications or presentations arising from this work. More details at
     http://www.quantum-espresso.org/quote

     Parallel version (MPI), running on    12 processors

     MPI processes distributed on     1 nodes
     67644 MiB available memory on the printing compute node when the environment starts

     Reading input from H2O_system.in
Warning: card O 0.0 0.0 0.0 ignored
Warning: card H 0.0 0.0 0.0 ignored
Warning: card C 0.0 0.0 2.0 ignored

     Current dimensions of program PWSCF are:
     Max number of different atomic species (ntypx) = 10
     Max number of k-points (npk) =  40000
     Max angular momentum in pseudopotentials (lmaxx) =  4

     R & G space division:  proc/nbgrp/npool/nimage =      12
     Subspace diagonalization in iterative solution of the eigenvalue problem:
     a serial algorithm will be used


     Parallelization info
     --------------------
     sticks:   dense  smooth     PW     G-vecs:    dense   smooth      PW
     Min         149     149     40                 4753     4753     682
     Max         150     150     41                 4757     4757     687
     Sum        1789    1789    489                57051    57051    8217

     Using Slab Decomposition



     bravais-lattice index     =            1
     lattice parameter (alat)  =      15.0000  a.u.
     unit-cell volume          =    3375.0000 (a.u.)^3
     number of atoms/cell      =            4
     number of atomic types    =            3
     number of electrons       =        12.00
     number of Kohn-Sham states=            6
     kinetic-energy cutoff     =      25.0000  Ry
     charge density cutoff     =     100.0000  Ry
     scf convergence threshold =      1.0E-08
     mixing beta               =       0.7000
     number of iterations used =            8  plain     mixing
     energy convergence thresh.=      0.0E+00
     force convergence thresh. =      0.0E+00
     Exchange-correlation= SLA  PW   PBE  PBE
                           (   1   4   3   4   0   0   0)
     nstep                     =            2


     celldm(1)=  15.000000  celldm(2)=   0.000000  celldm(3)=   0.000000
     celldm(4)=   0.000000  celldm(5)=   0.000000  celldm(6)=   0.000000

     crystal axes: (cart. coord. in units of alat)
               a(1) = (   1.000000   0.000000   0.000000 )  
               a(2) = (   0.000000   1.000000   0.000000 )  
               a(3) = (   0.000000   0.000000   1.000000 )  

     reciprocal axes: (cart. coord. in units 2 pi/alat)
               b(1) = (  1.000000  0.000000  0.000000 )  
               b(2) = (  0.000000  1.000000  0.000000 )  
               b(3) = (  0.000000  0.000000  1.000000 )  


     PseudoPot. # 1 for H  read from file:
     q-e/pseudo/h_pbe_v1.4.uspp.F.UPF
     MD5 check sum: 761ae9a214b05c3daf00ab9f6b793d6f
     Pseudo is Ultrasoft, Zval =  1.0
     Generated by new atomic code, or converted to UPF format
     Using radial grid of  615 points,  2 beta functions with: 
                l(1) =   0
                l(2) =   0
     Q(r) pseudized with  8 coefficients,  rinner =    0.700

     PseudoPot. # 2 for O  read from file:
     q-e/pseudo/o_pbe_v1.2.uspp.F.UPF
     MD5 check sum: 734c27235a0248c51dbae37a1fbe46ec
     Pseudo is Ultrasoft + core correction, Zval =  6.0
     Generated by new atomic code, or converted to UPF format
     Using radial grid of  737 points,  5 beta functions with: 
                l(1) =   0
                l(2) =   0
                l(3) =   1
                l(4) =   1
                l(5) =   2
     Q(r) pseudized with  8 coefficients,  rinner =    0.900   0.900   0.900
                                                       0.900   0.900

     PseudoPot. # 3 for C  read from file:
     q-e/pseudo/c_pbe_v1.2.uspp.F.UPF
     MD5 check sum: d1aef80898a10debaa0f26306b886e00
     Pseudo is Ultrasoft + core correction, Zval =  4.0
     Generated by new atomic code, or converted to UPF format
     Using radial grid of  721 points,  4 beta functions with: 
                l(1) =   0
                l(2) =   0
                l(3) =   1
                l(4) =   1
     Q(r) pseudized with  8 coefficients,  rinner =    1.100   1.100   1.100


     atomic species   valence    mass     pseudopotential
        H              1.00     1.00784     H ( 1.00)
        O              6.00    15.99900     O ( 1.00)
        C              4.00    12.01100     C ( 1.00)

     No symmetry found



   Cartesian axes

     site n.     atom                  positions (alat units)
         1           O   tau(   1) = (   0.6299624   0.6023911   0.6298886  )
         2           H   tau(   2) = (   0.6298790   0.6814236   0.7281543  )
         3           H   tau(   3) = (   0.6298848   0.6815005   0.5316832  )
         4           C   tau(   4) = (   0.0012598   0.0012598   0.0012598  )

     number of k points=    14
                       cart. coord. in units 2pi/alat
        k(    1) = (   0.0000000   0.0000000   0.0000000), wk =   0.0740741
        k(    2) = (   0.0000000   0.0000000   0.3333333), wk =   0.1481481
        k(    3) = (   0.0000000   0.3333333   0.0000000), wk =   0.1481481
        k(    4) = (   0.0000000   0.3333333   0.3333333), wk =   0.1481481
        k(    5) = (   0.0000000   0.3333333  -0.3333333), wk =   0.1481481
        k(    6) = (   0.3333333   0.0000000   0.0000000), wk =   0.1481481
        k(    7) = (   0.3333333   0.0000000   0.3333333), wk =   0.1481481
        k(    8) = (   0.3333333   0.0000000  -0.3333333), wk =   0.1481481
        k(    9) = (   0.3333333   0.3333333   0.0000000), wk =   0.1481481
        k(   10) = (   0.3333333   0.3333333   0.3333333), wk =   0.1481481
        k(   11) = (   0.3333333   0.3333333  -0.3333333), wk =   0.1481481
        k(   12) = (   0.3333333  -0.3333333   0.0000000), wk =   0.1481481
        k(   13) = (   0.3333333  -0.3333333   0.3333333), wk =   0.1481481
        k(   14) = (   0.3333333  -0.3333333  -0.3333333), wk =   0.1481481

     Dense  grid:    57051 G-vectors     FFT dimensions: (  48,  48,  48)

     Estimated max dynamical RAM per process >      13.69 MB

     Estimated total dynamical RAM >     164.28 MB

     Check: negative core charge=   -0.000020

     Initial potential from superposition of free atoms

     starting charge      11.9999, renormalised to      12.0000

     negative rho (up, down):  1.583E-02 0.000E+00
     Starting wfcs are   10 randomized atomic wfcs

     total cpu time spent up to now is        0.6 secs

     Self-consistent Calculation

     iteration #  1     ecut=    25.00 Ry     beta= 0.70
     Davidson diagonalization with overlap
     ethr =  1.00E-02,  avg # of iterations =  2.0

     negative rho (up, down):  1.929E-02 0.000E+00

     total cpu time spent up to now is        0.8 secs

     total energy              =     -45.23836606 Ry
     estimated scf accuracy    <       0.47302043 Ry

     iteration #  2     ecut=    25.00 Ry     beta= 0.70
     Davidson diagonalization with overlap
     ethr =  3.94E-03,  avg # of iterations =  2.0

     negative rho (up, down):  1.816E-02 0.000E+00

     total cpu time spent up to now is        1.0 secs

     total energy              =     -45.33822825 Ry
     estimated scf accuracy    <       0.37519937 Ry

     iteration #  3     ecut=    25.00 Ry     beta= 0.70
     Davidson diagonalization with overlap
     ethr =  3.13E-03,  avg # of iterations =  2.0

     negative rho (up, down):  2.095E-02 0.000E+00

     total cpu time spent up to now is        1.2 secs

     total energy              =     -45.40644090 Ry
     estimated scf accuracy    <       0.00449482 Ry

     iteration #  4     ecut=    25.00 Ry     beta= 0.70
     Davidson diagonalization with overlap
     ethr =  3.75E-05,  avg # of iterations =  7.1

     negative rho (up, down):  2.132E-02 0.000E+00

     total cpu time spent up to now is        1.4 secs

     total energy              =     -45.46610064 Ry
     estimated scf accuracy    <       0.21051463 Ry

     iteration #  5     ecut=    25.00 Ry     beta= 0.70
     Davidson diagonalization with overlap
     ethr =  3.75E-05,  avg # of iterations =  1.0

     negative rho (up, down):  2.083E-02 0.000E+00

     total cpu time spent up to now is        1.6 secs

     total energy              =     -45.48581629 Ry
     estimated scf accuracy    <       0.23236188 Ry

     iteration #  6     ecut=    25.00 Ry     beta= 0.70
     Davidson diagonalization with overlap
     ethr =  3.75E-05,  avg # of iterations =  2.0

     negative rho (up, down):  2.070E-02 0.000E+00

     total cpu time spent up to now is        1.7 secs

     total energy              =     -45.46708575 Ry
     estimated scf accuracy    <       0.39243330 Ry

     iteration #  7     ecut=    25.00 Ry     beta= 0.70
     Davidson diagonalization with overlap
     ethr =  3.75E-05,  avg # of iterations =  2.0

     negative rho (up, down):  2.184E-02 0.000E+00

     total cpu time spent up to now is        1.9 secs

     total energy              =     -45.40935392 Ry
     estimated scf accuracy    <       0.23848825 Ry

     iteration #  8     ecut=    25.00 Ry     beta= 0.70
     Davidson diagonalization with overlap
     ethr =  3.75E-05,  avg # of iterations =  8.6

     negative rho (up, down):  2.190E-02 0.000E+00

     total cpu time spent up to now is        2.1 secs

     total energy              =     -45.43322959 Ry
     estimated scf accuracy    <       0.14078775 Ry

     iteration #  9     ecut=    25.00 Ry     beta= 0.70
     Davidson diagonalization with overlap
     ethr =  3.75E-05,  avg # of iterations =  1.0

     negative rho (up, down):  2.208E-02 0.000E+00

     total cpu time spent up to now is        2.3 secs

     total energy              =     -45.43398599 Ry
     estimated scf accuracy    <       0.14150862 Ry

     iteration # 10     ecut=    25.00 Ry     beta= 0.70
     Davidson diagonalization with overlap
     ethr =  3.75E-05,  avg # of iterations =  1.0

     negative rho (up, down):  7.393E-02 0.000E+00

     total cpu time spent up to now is        2.4 secs

     total energy              =     -45.46699085 Ry
     estimated scf accuracy    <       0.14326779 Ry

     iteration # 11     ecut=    25.00 Ry     beta= 0.70
     Davidson diagonalization with overlap
     ethr =  3.75E-05,  avg # of iterations =  3.6

     negative rho (up, down):  2.409E-02 0.000E+00

     total cpu time spent up to now is        2.6 secs

     total energy              =     -45.43663528 Ry
     estimated scf accuracy    <       0.33806967 Ry

     iteration # 12     ecut=    25.00 Ry     beta= 0.70
     Davidson diagonalization with overlap
     ethr =  3.75E-05,  avg # of iterations =  2.5

     negative rho (up, down):  2.150E-02 0.000E+00

     total cpu time spent up to now is        2.8 secs

     total energy              =     -45.43223602 Ry
     estimated scf accuracy    <       0.19825930 Ry

     iteration # 13     ecut=    25.00 Ry     beta= 0.70
     Davidson diagonalization with overlap
     ethr =  3.75E-05,  avg # of iterations =  2.5

     negative rho (up, down):  2.151E-02 0.000E+00

     total cpu time spent up to now is        2.9 secs

     total energy              =     -45.42361824 Ry
     estimated scf accuracy    <       0.14479298 Ry

     iteration # 14     ecut=    25.00 Ry     beta= 0.70
     Davidson diagonalization with overlap
     ethr =  3.75E-05,  avg # of iterations =  1.9

     negative rho (up, down):  2.161E-02 0.000E+00

     total cpu time spent up to now is        3.1 secs

     total energy              =     -45.41988097 Ry
     estimated scf accuracy    <       0.11242852 Ry

     iteration # 15     ecut=    25.00 Ry     beta= 0.70
     Davidson diagonalization with overlap
     ethr =  3.75E-05,  avg # of iterations =  1.0

     negative rho (up, down):  2.170E-02 0.000E+00

     total cpu time spent up to now is        3.3 secs

     total energy              =     -45.41590779 Ry
     estimated scf accuracy    <       0.09825853 Ry

     iteration # 16     ecut=    25.00 Ry     beta= 0.70
     Davidson diagonalization with overlap
     ethr =  3.75E-05,  avg # of iterations =  1.0

     negative rho (up, down):  2.206E-02 0.000E+00

     total cpu time spent up to now is        3.4 secs

     total energy              =     -45.39523840 Ry
     estimated scf accuracy    <       0.08374805 Ry

     iteration # 17     ecut=    25.00 Ry     beta= 0.70
     Davidson diagonalization with overlap
     ethr =  3.75E-05,  avg # of iterations =  5.8

     negative rho (up, down):  2.126E-02 0.000E+00

     total cpu time spent up to now is        3.7 secs

     total energy              =     -45.42020061 Ry
     estimated scf accuracy    <       0.12765446 Ry

     iteration # 18     ecut=    25.00 Ry     beta= 0.70
     Davidson diagonalization with overlap
     ethr =  3.75E-05,  avg # of iterations =  2.0

     negative rho (up, down):  2.119E-02 0.000E+00

     total cpu time spent up to now is        3.8 secs

     total energy              =     -45.41930516 Ry
     estimated scf accuracy    <       0.02566478 Ry

     iteration # 19     ecut=    25.00 Ry     beta= 0.70
     Davidson diagonalization with overlap
     ethr =  3.75E-05,  avg # of iterations =  1.0

     negative rho (up, down):  2.116E-02 0.000E+00

     total cpu time spent up to now is        4.0 secs

     total energy              =     -45.41465493 Ry
     estimated scf accuracy    <       0.01869197 Ry

     iteration # 20     ecut=    25.00 Ry     beta= 0.70
     Davidson diagonalization with overlap
     ethr =  3.75E-05,  avg # of iterations =  2.4

     negative rho (up, down):  2.105E-02 0.000E+00

     total cpu time spent up to now is        4.1 secs

     total energy              =     -45.41797124 Ry
     estimated scf accuracy    <       0.00184435 Ry

     iteration # 21     ecut=    25.00 Ry     beta= 0.70
     Davidson diagonalization with overlap
     ethr =  1.54E-05,  avg # of iterations =  2.1

     negative rho (up, down):  2.105E-02 0.000E+00

     total cpu time spent up to now is        4.3 secs

     total energy              =     -45.42316591 Ry
     estimated scf accuracy    <       0.01081339 Ry

     iteration # 22     ecut=    25.00 Ry     beta= 0.70
     Davidson diagonalization with overlap
     ethr =  1.54E-05,  avg # of iterations =  1.0

     negative rho (up, down):  2.105E-02 0.000E+00

     total cpu time spent up to now is        4.4 secs

     total energy              =     -45.42320387 Ry
     estimated scf accuracy    <       0.01060418 Ry

     iteration # 23     ecut=    25.00 Ry     beta= 0.70
     Davidson diagonalization with overlap
     ethr =  1.54E-05,  avg # of iterations =  1.0

     negative rho (up, down):  2.102E-02 0.000E+00

     total cpu time spent up to now is        4.6 secs

     total energy              =     -45.42318151 Ry
     estimated scf accuracy    <       0.01110305 Ry

     iteration # 24     ecut=    25.00 Ry     beta= 0.70
     Davidson diagonalization with overlap
     ethr =  1.54E-05,  avg # of iterations =  1.0

     negative rho (up, down):  2.101E-02 0.000E+00

     total cpu time spent up to now is        4.7 secs

     total energy              =     -45.42317954 Ry
     estimated scf accuracy    <       0.01064344 Ry

     iteration # 25     ecut=    25.00 Ry     beta= 0.70
     Davidson diagonalization with overlap
     ethr =  1.54E-05,  avg # of iterations =  1.0

     negative rho (up, down):  2.103E-02 0.000E+00

     total cpu time spent up to now is        4.9 secs

     total energy              =     -45.42378879 Ry
     estimated scf accuracy    <       0.00976273 Ry

     iteration # 26     ecut=    25.00 Ry     beta= 0.70
     Davidson diagonalization with overlap
     ethr =  1.54E-05,  avg # of iterations =  1.5

     negative rho (up, down):  2.102E-02 0.000E+00

     total cpu time spent up to now is        5.0 secs

     total energy              =     -45.42683392 Ry
     estimated scf accuracy    <       0.02368718 Ry

     iteration # 27     ecut=    25.00 Ry     beta= 0.70
     Davidson diagonalization with overlap
     ethr =  1.54E-05,  avg # of iterations =  1.0

     negative rho (up, down):  2.101E-02 0.000E+00

     total cpu time spent up to now is        5.1 secs

     total energy              =     -45.42713681 Ry
     estimated scf accuracy    <       0.02292623 Ry

     iteration # 28     ecut=    25.00 Ry     beta= 0.70
     Davidson diagonalization with overlap
     ethr =  1.54E-05,  avg # of iterations =  1.0

     negative rho (up, down):  2.105E-02 0.000E+00

     total cpu time spent up to now is        5.3 secs

     total energy              =     -45.42818533 Ry
     estimated scf accuracy    <       0.02437130 Ry

     iteration # 29     ecut=    25.00 Ry     beta= 0.70
     Davidson diagonalization with overlap
     ethr =  1.54E-05,  avg # of iterations =  1.1

     negative rho (up, down):  2.093E-02 0.000E+00

     total cpu time spent up to now is        5.4 secs

     total energy              =     -45.42240604 Ry
     estimated scf accuracy    <       0.03285520 Ry

     iteration # 30     ecut=    25.00 Ry     beta= 0.70
     Davidson diagonalization with overlap
     ethr =  1.54E-05,  avg # of iterations =  2.0

     negative rho (up, down):  2.084E-02 0.000E+00

     total cpu time spent up to now is        5.6 secs

     total energy              =     -45.42254222 Ry
     estimated scf accuracy    <       0.00085989 Ry

     iteration # 31     ecut=    25.00 Ry     beta= 0.70
     Davidson diagonalization with overlap
     ethr =  7.17E-06,  avg # of iterations =  1.0

     negative rho (up, down):  2.082E-02 0.000E+00

     total cpu time spent up to now is        5.7 secs

     total energy              =     -45.42256289 Ry
     estimated scf accuracy    <       0.00007696 Ry

     iteration # 32     ecut=    25.00 Ry     beta= 0.70
     Davidson diagonalization with overlap
     c_bands:  1 eigenvalues not converged
     c_bands:  1 eigenvalues not converged
     c_bands:  1 eigenvalues not converged
     c_bands:  1 eigenvalues not converged
     c_bands:  1 eigenvalues not converged
     ethr =  6.41E-07,  avg # of iterations = 12.2

     negative rho (up, down):  2.083E-02 0.000E+00

     total cpu time spent up to now is        6.0 secs

     total energy              =     -45.42737302 Ry
     estimated scf accuracy    <       0.10266995 Ry

     iteration # 33     ecut=    25.00 Ry     beta= 0.70
     Davidson diagonalization with overlap
     ethr =  6.41E-07,  avg # of iterations =  4.1

     negative rho (up, down):  2.089E-02 0.000E+00

     total cpu time spent up to now is        6.2 secs

     total energy              =     -45.43209669 Ry
     estimated scf accuracy    <       0.10914915 Ry

     iteration # 34     ecut=    25.00 Ry     beta= 0.70
     Davidson diagonalization with overlap
     ethr =  6.41E-07,  avg # of iterations =  8.6

     negative rho (up, down):  2.088E-02 0.000E+00

     total cpu time spent up to now is        6.4 secs

     total energy              =     -45.42951721 Ry
     estimated scf accuracy    <       0.16358329 Ry

     iteration # 35     ecut=    25.00 Ry     beta= 0.70
     Davidson diagonalization with overlap
     ethr =  6.41E-07,  avg # of iterations =  9.3

     negative rho (up, down):  2.083E-02 0.000E+00

     total cpu time spent up to now is        6.7 secs

     total energy              =     -45.42488659 Ry
     estimated scf accuracy    <       0.17786330 Ry

     iteration # 36     ecut=    25.00 Ry     beta= 0.70
     Davidson diagonalization with overlap
     c_bands:  1 eigenvalues not converged
     c_bands:  1 eigenvalues not converged
     c_bands:  1 eigenvalues not converged
     c_bands:  1 eigenvalues not converged
     c_bands:  1 eigenvalues not converged
     c_bands:  1 eigenvalues not converged
     c_bands:  1 eigenvalues not converged
     c_bands:  1 eigenvalues not converged
     c_bands:  1 eigenvalues not converged
     c_bands:  1 eigenvalues not converged
     c_bands:  1 eigenvalues not converged
     ethr =  6.41E-07,  avg # of iterations = 19.1

     negative rho (up, down):  2.084E-02 0.000E+00

     total cpu time spent up to now is        7.0 secs

     total energy              =     -45.42923431 Ry
     estimated scf accuracy    <       0.16586576 Ry

     iteration # 37     ecut=    25.00 Ry     beta= 0.70
     Davidson diagonalization with overlap
     ethr =  6.41E-07,  avg # of iterations =  1.8

     negative rho (up, down):  2.086E-02 0.000E+00

     total cpu time spent up to now is        7.2 secs

     total energy              =     -45.43366670 Ry
     estimated scf accuracy    <       0.16516646 Ry

     iteration # 38     ecut=    25.00 Ry     beta= 0.70
     Davidson diagonalization with overlap
     ethr =  6.41E-07,  avg # of iterations =  8.6

     negative rho (up, down):  2.086E-02 0.000E+00

     total cpu time spent up to now is        7.4 secs

     total energy              =     -45.42425829 Ry
     estimated scf accuracy    <       0.18815539 Ry

     iteration # 39     ecut=    25.00 Ry     beta= 0.70
     Davidson diagonalization with overlap
     c_bands:  1 eigenvalues not converged
     c_bands:  1 eigenvalues not converged
     c_bands:  1 eigenvalues not converged
     c_bands:  1 eigenvalues not converged
     c_bands:  1 eigenvalues not converged
     c_bands:  1 eigenvalues not converged
     c_bands:  1 eigenvalues not converged
     ethr =  6.41E-07,  avg # of iterations = 16.1

     negative rho (up, down):  2.085E-02 0.000E+00

     total cpu time spent up to now is        7.7 secs

     total energy              =     -45.42893813 Ry
     estimated scf accuracy    <       0.17129924 Ry

     iteration # 40     ecut=    25.00 Ry     beta= 0.70
     Davidson diagonalization with overlap
     ethr =  6.41E-07,  avg # of iterations =  1.6

     negative rho (up, down):  2.077E-02 0.000E+00

     total cpu time spent up to now is        7.9 secs

     total energy              =     -45.42493072 Ry
     estimated scf accuracy    <       0.16892873 Ry

     iteration # 41     ecut=    25.00 Ry     beta= 0.70
     Davidson diagonalization with overlap
     c_bands:  1 eigenvalues not converged
     c_bands:  1 eigenvalues not converged
     c_bands:  1 eigenvalues not converged
     c_bands:  1 eigenvalues not converged
     ethr =  6.41E-07,  avg # of iterations =  7.1

     negative rho (up, down):  2.071E-02 0.000E+00

     total cpu time spent up to now is        8.1 secs

     total energy              =     -45.42285495 Ry
     estimated scf accuracy    <       0.09366221 Ry

     iteration # 42     ecut=    25.00 Ry     beta= 0.70
     Davidson diagonalization with overlap
     c_bands:  1 eigenvalues not converged
     c_bands:  1 eigenvalues not converged
     c_bands:  1 eigenvalues not converged
     c_bands:  1 eigenvalues not converged
     ethr =  6.41E-07,  avg # of iterations =  9.5

     negative rho (up, down):  2.126E-02 0.000E+00

     total cpu time spent up to now is        8.3 secs

     total energy              =     -45.41723995 Ry
     estimated scf accuracy    <       0.05349989 Ry

     iteration # 43     ecut=    25.00 Ry     beta= 0.70
     Davidson diagonalization with overlap
     c_bands:  1 eigenvalues not converged
     c_bands:  1 eigenvalues not converged
     c_bands:  1 eigenvalues not converged
     c_bands:  1 eigenvalues not converged
     c_bands:  1 eigenvalues not converged
     c_bands:  1 eigenvalues not converged
     c_bands:  1 eigenvalues not converged
     c_bands:  1 eigenvalues not converged
     c_bands:  1 eigenvalues not converged
     c_bands:  1 eigenvalues not converged
     c_bands:  1 eigenvalues not converged
     c_bands:  1 eigenvalues not converged
     c_bands:  1 eigenvalues not converged
     c_bands:  1 eigenvalues not converged
     ethr =  6.41E-07,  avg # of iterations = 20.0

     negative rho (up, down):  2.144E-02 0.000E+00

     total cpu time spent up to now is        8.7 secs

     total energy              =     -45.45647253 Ry
     estimated scf accuracy    <       0.24412296 Ry

     iteration # 44     ecut=    25.00 Ry     beta= 0.70
     Davidson diagonalization with overlap
     c_bands:  1 eigenvalues not converged
     c_bands:  1 eigenvalues not converged
     c_bands:  1 eigenvalues not converged
     c_bands:  1 eigenvalues not converged
     c_bands:  1 eigenvalues not converged
     c_bands:  1 eigenvalues not converged
     c_bands:  1 eigenvalues not converged
     c_bands:  1 eigenvalues not converged
     c_bands:  1 eigenvalues not converged
     c_bands:  1 eigenvalues not converged
     c_bands:  1 eigenvalues not converged
     c_bands:  1 eigenvalues not converged
     c_bands:  1 eigenvalues not converged
     c_bands:  1 eigenvalues not converged
     ethr =  6.41E-07,  avg # of iterations = 20.0

     negative rho (up, down):  2.170E-02 0.000E+00

     total cpu time spent up to now is        9.1 secs

     total energy              =     -45.45263421 Ry
     estimated scf accuracy    <       0.28383863 Ry

     iteration # 45     ecut=    25.00 Ry     beta= 0.70
     Davidson diagonalization with overlap
     c_bands:  1 eigenvalues not converged
     c_bands:  1 eigenvalues not converged
     c_bands:  1 eigenvalues not converged
     c_bands:  1 eigenvalues not converged
     c_bands:  1 eigenvalues not converged
     c_bands:  1 eigenvalues not converged
     c_bands:  1 eigenvalues not converged
     c_bands:  1 eigenvalues not converged
     ethr =  6.41E-07,  avg # of iterations = 17.1

     negative rho (up, down):  2.204E-02 0.000E+00

     total cpu time spent up to now is        9.4 secs

     total energy              =     -45.45452434 Ry
     estimated scf accuracy    <       0.29891004 Ry

     iteration # 46     ecut=    25.00 Ry     beta= 0.70
     Davidson diagonalization with overlap
     c_bands:  1 eigenvalues not converged
     c_bands:  1 eigenvalues not converged
     c_bands:  1 eigenvalues not converged
     c_bands:  1 eigenvalues not converged
     c_bands:  1 eigenvalues not converged
     ethr =  6.41E-07,  avg # of iterations = 13.1

     negative rho (up, down):  2.234E-02 0.000E+00

     total cpu time spent up to now is        9.7 secs

     total energy              =     -45.46668024 Ry
     estimated scf accuracy    <       0.31090443 Ry

     iteration # 47     ecut=    25.00 Ry     beta= 0.70
     Davidson diagonalization with overlap
     ethr =  6.41E-07,  avg # of iterations =  7.9

     negative rho (up, down):  2.203E-02 0.000E+00

     total cpu time spent up to now is        9.9 secs

     total energy              =     -45.44967054 Ry
     estimated scf accuracy    <       0.35284211 Ry

     iteration # 48     ecut=    25.00 Ry     beta= 0.70
     Davidson diagonalization with overlap
     c_bands:  1 eigenvalues not converged
     c_bands:  1 eigenvalues not converged
     c_bands:  1 eigenvalues not converged
     c_bands:  1 eigenvalues not converged
     c_bands:  1 eigenvalues not converged
     c_bands:  1 eigenvalues not converged
     c_bands:  1 eigenvalues not converged
     c_bands:  1 eigenvalues not converged
     c_bands:  1 eigenvalues not converged
     c_bands:  1 eigenvalues not converged
     c_bands:  1 eigenvalues not converged
     c_bands:  1 eigenvalues not converged
     c_bands:  1 eigenvalues not converged
     c_bands:  1 eigenvalues not converged
     ethr =  6.41E-07,  avg # of iterations = 20.0

     negative rho (up, down):  2.083E-02 0.000E+00

     total cpu time spent up to now is       10.3 secs

     total energy              =     -45.42704114 Ry
     estimated scf accuracy    <       0.32815528 Ry

     iteration # 49     ecut=    25.00 Ry     beta= 0.70
     Davidson diagonalization with overlap
     ethr =  6.41E-07,  avg # of iterations = 12.0

     negative rho (up, down):  2.096E-02 0.000E+00

     total cpu time spent up to now is       10.7 secs

     total energy              =     -45.42915353 Ry
     estimated scf accuracy    <       0.17228721 Ry

     iteration # 50     ecut=    25.00 Ry     beta= 0.70
     Davidson diagonalization with overlap
     ethr =  6.41E-07,  avg # of iterations =  4.9

     negative rho (up, down):  2.094E-02 0.000E+00

     total cpu time spent up to now is       10.9 secs

     total energy              =     -45.42786965 Ry
     estimated scf accuracy    <       0.17581269 Ry

     iteration # 51     ecut=    25.00 Ry     beta= 0.70
     Davidson diagonalization with overlap
     ethr =  6.41E-07,  avg # of iterations =  2.0

     negative rho (up, down):  2.085E-02 0.000E+00

     total cpu time spent up to now is       11.1 secs

     total energy              =     -45.40735853 Ry
     estimated scf accuracy    <       0.17028558 Ry

     iteration # 52     ecut=    25.00 Ry     beta= 0.70
     Davidson diagonalization with overlap
     c_bands:  1 eigenvalues not converged
     c_bands:  1 eigenvalues not converged
     c_bands:  1 eigenvalues not converged
     c_bands:  1 eigenvalues not converged
     c_bands:  1 eigenvalues not converged
     c_bands:  1 eigenvalues not converged
     c_bands:  1 eigenvalues not converged
     c_bands:  1 eigenvalues not converged
     c_bands:  1 eigenvalues not converged
     c_bands:  1 eigenvalues not converged
     c_bands:  1 eigenvalues not converged
     c_bands:  1 eigenvalues not converged
     c_bands:  1 eigenvalues not converged
     c_bands:  1 eigenvalues not converged
     ethr =  6.41E-07,  avg # of iterations = 20.0

     negative rho (up, down):  2.097E-02 0.000E+00

     total cpu time spent up to now is       11.6 secs

     total energy              =     -45.41610092 Ry
     estimated scf accuracy    <       0.31671334 Ry

     iteration # 53     ecut=    25.00 Ry     beta= 0.70
     Davidson diagonalization with overlap
     c_bands:  1 eigenvalues not converged
     c_bands:  1 eigenvalues not converged
     c_bands:  1 eigenvalues not converged
     c_bands:  1 eigenvalues not converged
     c_bands:  1 eigenvalues not converged
     ethr =  6.41E-07,  avg # of iterations = 15.6

     negative rho (up, down):  2.089E-02 0.000E+00

     total cpu time spent up to now is       11.9 secs

     total energy              =     -45.42018931 Ry
     estimated scf accuracy    <       0.11603180 Ry

     iteration # 54     ecut=    25.00 Ry     beta= 0.70
     Davidson diagonalization with overlap
     c_bands:  1 eigenvalues not converged
     c_bands:  1 eigenvalues not converged
     c_bands:  1 eigenvalues not converged
     c_bands:  1 eigenvalues not converged
     c_bands:  1 eigenvalues not converged
     c_bands:  1 eigenvalues not converged
     c_bands:  1 eigenvalues not converged
     ethr =  6.41E-07,  avg # of iterations = 15.2

     negative rho (up, down):  2.100E-02 0.000E+00

     total cpu time spent up to now is       12.2 secs

     total energy              =     -45.42550425 Ry
     estimated scf accuracy    <       0.04521644 Ry

     iteration # 55     ecut=    25.00 Ry     beta= 0.70
     Davidson diagonalization with overlap
     c_bands:  1 eigenvalues not converged
     c_bands:  1 eigenvalues not converged
     c_bands:  1 eigenvalues not converged
     c_bands:  1 eigenvalues not converged
     ethr =  6.41E-07,  avg # of iterations = 11.4

     negative rho (up, down):  2.095E-02 0.000E+00

     total cpu time spent up to now is       12.4 secs

     total energy              =     -45.42554537 Ry
     estimated scf accuracy    <       0.07522577 Ry

     iteration # 56     ecut=    25.00 Ry     beta= 0.70
     Davidson diagonalization with overlap
     c_bands:  1 eigenvalues not converged
     c_bands:  1 eigenvalues not converged
     c_bands:  1 eigenvalues not converged
     c_bands:  1 eigenvalues not converged
     c_bands:  1 eigenvalues not converged
     c_bands:  1 eigenvalues not converged
     c_bands:  1 eigenvalues not converged
     c_bands:  1 eigenvalues not converged
     c_bands:  1 eigenvalues not converged
     ethr =  6.41E-07,  avg # of iterations = 16.6

     negative rho (up, down):  2.084E-02 0.000E+00

     total cpu time spent up to now is       12.8 secs

     total energy              =     -45.41776969 Ry
     estimated scf accuracy    <       0.09770659 Ry

     iteration # 57     ecut=    25.00 Ry     beta= 0.70
     Davidson diagonalization with overlap
     c_bands:  1 eigenvalues not converged
     c_bands:  1 eigenvalues not converged
     c_bands:  1 eigenvalues not converged
     c_bands:  1 eigenvalues not converged
     c_bands:  1 eigenvalues not converged
     c_bands:  1 eigenvalues not converged
     c_bands:  1 eigenvalues not converged
     c_bands:  1 eigenvalues not converged
     c_bands:  1 eigenvalues not converged
     c_bands:  1 eigenvalues not converged
     c_bands:  1 eigenvalues not converged
     c_bands:  1 eigenvalues not converged
     c_bands:  1 eigenvalues not converged
     c_bands:  1 eigenvalues not converged
     ethr =  6.41E-07,  avg # of iterations = 20.0

     negative rho (up, down):  2.082E-02 0.000E+00

     total cpu time spent up to now is       13.1 secs

     total energy              =     -45.43088280 Ry
     estimated scf accuracy    <       0.09405705 Ry

     iteration # 58     ecut=    25.00 Ry     beta= 0.70
     Davidson diagonalization with overlap
     c_bands:  1 eigenvalues not converged
     ethr =  6.41E-07,  avg # of iterations = 11.6

     negative rho (up, down):  2.087E-02 0.000E+00

     total cpu time spent up to now is       13.4 secs

     total energy              =     -45.43172387 Ry
     estimated scf accuracy    <       0.18305031 Ry

     iteration # 59     ecut=    25.00 Ry     beta= 0.70
     Davidson diagonalization with overlap
     ethr =  6.41E-07,  avg # of iterations =  6.1

     negative rho (up, down):  2.090E-02 0.000E+00

     total cpu time spent up to now is       13.6 secs

     total energy              =     -45.42761528 Ry
     estimated scf accuracy    <       0.17520086 Ry

     iteration # 60     ecut=    25.00 Ry     beta= 0.70
     Davidson diagonalization with overlap
     ethr =  6.41E-07,  avg # of iterations =  4.0

     negative rho (up, down):  2.090E-02 0.000E+00

     total cpu time spent up to now is       13.8 secs

     total energy              =     -45.42631920 Ry
     estimated scf accuracy    <       0.15687421 Ry

     iteration # 61     ecut=    25.00 Ry     beta= 0.70
     Davidson diagonalization with overlap
     ethr =  6.41E-07,  avg # of iterations =  3.4

     negative rho (up, down):  2.089E-02 0.000E+00

     total cpu time spent up to now is       13.9 secs

     total energy              =     -45.42564524 Ry
     estimated scf accuracy    <       0.15035887 Ry

     iteration # 62     ecut=    25.00 Ry     beta= 0.70
     Davidson diagonalization with overlap
     ethr =  6.41E-07,  avg # of iterations =  3.5

     negative rho (up, down):  2.100E-02 0.000E+00

     total cpu time spent up to now is       14.1 secs

     total energy              =     -45.42941859 Ry
     estimated scf accuracy    <       0.14838362 Ry

     iteration # 63     ecut=    25.00 Ry     beta= 0.70
     Davidson diagonalization with overlap
     ethr =  6.41E-07,  avg # of iterations = 12.3

     negative rho (up, down):  2.101E-02 0.000E+00

     total cpu time spent up to now is       14.4 secs

     total energy              =     -45.42097845 Ry
     estimated scf accuracy    <       0.17171127 Ry

     iteration # 64     ecut=    25.00 Ry     beta= 0.70
     Davidson diagonalization with overlap
     c_bands:  1 eigenvalues not converged
     c_bands:  1 eigenvalues not converged
     c_bands:  1 eigenvalues not converged
     c_bands:  1 eigenvalues not converged
     c_bands:  1 eigenvalues not converged
     c_bands:  1 eigenvalues not converged
     c_bands:  1 eigenvalues not converged
     c_bands:  1 eigenvalues not converged
     c_bands:  1 eigenvalues not converged
     c_bands:  1 eigenvalues not converged
     c_bands:  1 eigenvalues not converged
     c_bands:  1 eigenvalues not converged
     c_bands:  1 eigenvalues not converged
     c_bands:  1 eigenvalues not converged
     ethr =  6.41E-07,  avg # of iterations = 20.0

     negative rho (up, down):  2.101E-02 0.000E+00

     total cpu time spent up to now is       14.7 secs

     total energy              =     -45.43217299 Ry
     estimated scf accuracy    <       0.11837161 Ry

     iteration # 65     ecut=    25.00 Ry     beta= 0.70
     Davidson diagonalization with overlap
     c_bands:  1 eigenvalues not converged
     c_bands:  1 eigenvalues not converged
     c_bands:  1 eigenvalues not converged
     c_bands:  1 eigenvalues not converged
     c_bands:  1 eigenvalues not converged
     c_bands:  1 eigenvalues not converged
     c_bands:  1 eigenvalues not converged
     c_bands:  1 eigenvalues not converged
     c_bands:  1 eigenvalues not converged
     c_bands:  1 eigenvalues not converged
     ethr =  6.41E-07,  avg # of iterations = 18.0

     negative rho (up, down):  2.106E-02 0.000E+00

     total cpu time spent up to now is       15.0 secs

     total energy              =     -45.43671409 Ry
     estimated scf accuracy    <       0.20729879 Ry

     iteration # 66     ecut=    25.00 Ry     beta= 0.70
     Davidson diagonalization with overlap
     c_bands:  1 eigenvalues not converged
     c_bands:  1 eigenvalues not converged
     c_bands:  1 eigenvalues not converged
     c_bands:  1 eigenvalues not converged
     c_bands:  1 eigenvalues not converged
     c_bands:  1 eigenvalues not converged
     c_bands:  1 eigenvalues not converged
     c_bands:  1 eigenvalues not converged
     c_bands:  1 eigenvalues not converged
     c_bands:  1 eigenvalues not converged
     ethr =  6.41E-07,  avg # of iterations = 16.9

     negative rho (up, down):  2.121E-02 0.000E+00

     total cpu time spent up to now is       15.4 secs

     total energy              =     -45.41429365 Ry
     estimated scf accuracy    <       0.20451768 Ry

     iteration # 67     ecut=    25.00 Ry     beta= 0.70
     Davidson diagonalization with overlap
     c_bands:  1 eigenvalues not converged
     c_bands:  1 eigenvalues not converged
     c_bands:  1 eigenvalues not converged
     c_bands:  1 eigenvalues not converged
     c_bands:  1 eigenvalues not converged
     c_bands:  1 eigenvalues not converged
     c_bands:  1 eigenvalues not converged
     c_bands:  1 eigenvalues not converged
     c_bands:  1 eigenvalues not converged
     c_bands:  1 eigenvalues not converged
     c_bands:  1 eigenvalues not converged
     c_bands:  1 eigenvalues not converged
     c_bands:  1 eigenvalues not converged
     c_bands:  1 eigenvalues not converged
     ethr =  6.41E-07,  avg # of iterations = 20.0

     negative rho (up, down):  2.108E-02 0.000E+00

     total cpu time spent up to now is       15.7 secs

     total energy              =     -45.42242095 Ry
     estimated scf accuracy    <       0.27464751 Ry

     iteration # 68     ecut=    25.00 Ry     beta= 0.70
     Davidson diagonalization with overlap
     c_bands:  1 eigenvalues not converged
     c_bands:  1 eigenvalues not converged
     c_bands:  1 eigenvalues not converged
     c_bands:  1 eigenvalues not converged
     c_bands:  1 eigenvalues not converged
     c_bands:  1 eigenvalues not converged
     c_bands:  1 eigenvalues not converged
     c_bands:  1 eigenvalues not converged
     c_bands:  1 eigenvalues not converged
     c_bands:  1 eigenvalues not converged
     c_bands:  1 eigenvalues not converged
     c_bands:  1 eigenvalues not converged
     c_bands:  1 eigenvalues not converged
     c_bands:  1 eigenvalues not converged
     ethr =  6.41E-07,  avg # of iterations = 20.0

     negative rho (up, down):  2.115E-02 0.000E+00

     total cpu time spent up to now is       16.1 secs

     total energy              =     -45.44722897 Ry
     estimated scf accuracy    <       0.23652514 Ry

     iteration # 69     ecut=    25.00 Ry     beta= 0.70
     Davidson diagonalization with overlap
     c_bands:  1 eigenvalues not converged
     c_bands:  1 eigenvalues not converged
     c_bands:  1 eigenvalues not converged
     c_bands:  1 eigenvalues not converged
     c_bands:  1 eigenvalues not converged
     c_bands:  1 eigenvalues not converged
     c_bands:  1 eigenvalues not converged
     c_bands:  1 eigenvalues not converged
     ethr =  6.41E-07,  avg # of iterations = 17.1

     negative rho (up, down):  2.101E-02 0.000E+00

     total cpu time spent up to now is       16.4 secs

     total energy              =     -45.44130358 Ry
     estimated scf accuracy    <       0.25884703 Ry

     iteration # 70     ecut=    25.00 Ry     beta= 0.70
     Davidson diagonalization with overlap
     ethr =  6.41E-07,  avg # of iterations =  8.0

     negative rho (up, down):  2.094E-02 0.000E+00

     total cpu time spent up to now is       16.6 secs

     total energy              =     -45.43742346 Ry
     estimated scf accuracy    <       0.22004176 Ry

     iteration # 71     ecut=    25.00 Ry     beta= 0.70
     Davidson diagonalization with overlap
     ethr =  6.41E-07,  avg # of iterations =  9.6

     negative rho (up, down):  2.097E-02 0.000E+00

     total cpu time spent up to now is       16.9 secs

     total energy              =     -45.43866108 Ry
     estimated scf accuracy    <       0.19930360 Ry

     iteration # 72     ecut=    25.00 Ry     beta= 0.70
     Davidson diagonalization with overlap
     ethr =  6.41E-07,  avg # of iterations =  1.1

     negative rho (up, down):  2.088E-02 0.000E+00

     total cpu time spent up to now is       17.0 secs

     total energy              =     -45.41885425 Ry
     estimated scf accuracy    <       0.20472553 Ry

     iteration # 73     ecut=    25.00 Ry     beta= 0.70
     Davidson diagonalization with overlap
     c_bands:  1 eigenvalues not converged
     c_bands:  1 eigenvalues not converged
     c_bands:  1 eigenvalues not converged
     c_bands:  1 eigenvalues not converged
     c_bands:  1 eigenvalues not converged
     c_bands:  1 eigenvalues not converged
     c_bands:  1 eigenvalues not converged
     c_bands:  1 eigenvalues not converged
     c_bands:  1 eigenvalues not converged
     c_bands:  1 eigenvalues not converged
     c_bands:  1 eigenvalues not converged
     c_bands:  1 eigenvalues not converged
     c_bands:  1 eigenvalues not converged
     c_bands:  1 eigenvalues not converged
     ethr =  6.41E-07,  avg # of iterations = 20.0

     negative rho (up, down):  2.108E-02 0.000E+00

     total cpu time spent up to now is       17.4 secs

     total energy              =     -45.42587022 Ry
     estimated scf accuracy    <       0.13546091 Ry

     iteration # 74     ecut=    25.00 Ry     beta= 0.70
     Davidson diagonalization with overlap
     c_bands:  1 eigenvalues not converged
     c_bands:  1 eigenvalues not converged
     c_bands:  1 eigenvalues not converged
     c_bands:  1 eigenvalues not converged
     c_bands:  1 eigenvalues not converged
     c_bands:  1 eigenvalues not converged
     c_bands:  1 eigenvalues not converged
     c_bands:  1 eigenvalues not converged
     c_bands:  1 eigenvalues not converged
     c_bands:  1 eigenvalues not converged
     c_bands:  1 eigenvalues not converged
     c_bands:  1 eigenvalues not converged
     ethr =  6.41E-07,  avg # of iterations = 19.4

     negative rho (up, down):  2.102E-02 0.000E+00

     total cpu time spent up to now is       17.7 secs

     total energy              =     -45.42697727 Ry
     estimated scf accuracy    <       0.16775444 Ry

     iteration # 75     ecut=    25.00 Ry     beta= 0.70
     Davidson diagonalization with overlap
     c_bands:  1 eigenvalues not converged
     c_bands:  1 eigenvalues not converged
     ethr =  6.41E-07,  avg # of iterations = 12.0

     negative rho (up, down):  2.120E-02 0.000E+00

     total cpu time spent up to now is       17.9 secs

     total energy              =     -45.40193517 Ry
     estimated scf accuracy    <       0.15942071 Ry

     iteration # 76     ecut=    25.00 Ry     beta= 0.70
     Davidson diagonalization with overlap
     c_bands:  1 eigenvalues not converged
     c_bands:  1 eigenvalues not converged
     c_bands:  1 eigenvalues not converged
     c_bands:  1 eigenvalues not converged
     c_bands:  1 eigenvalues not converged
     c_bands:  1 eigenvalues not converged
     c_bands:  1 eigenvalues not converged
     c_bands:  1 eigenvalues not converged
     c_bands:  1 eigenvalues not converged
     c_bands:  1 eigenvalues not converged
     c_bands:  1 eigenvalues not converged
     c_bands:  1 eigenvalues not converged
     c_bands:  1 eigenvalues not converged
     c_bands:  1 eigenvalues not converged
     ethr =  6.41E-07,  avg # of iterations = 20.0

     negative rho (up, down):  2.110E-02 0.000E+00

     total cpu time spent up to now is       18.3 secs

     total energy              =     -45.43307579 Ry
     estimated scf accuracy    <       0.16346549 Ry

     iteration # 77     ecut=    25.00 Ry     beta= 0.70
     Davidson diagonalization with overlap
     c_bands:  1 eigenvalues not converged
     c_bands:  1 eigenvalues not converged
     c_bands:  1 eigenvalues not converged
     c_bands:  1 eigenvalues not converged
     c_bands:  1 eigenvalues not converged
     c_bands:  1 eigenvalues not converged
     c_bands:  1 eigenvalues not converged
     c_bands:  1 eigenvalues not converged
     c_bands:  1 eigenvalues not converged
     c_bands:  1 eigenvalues not converged
     c_bands:  1 eigenvalues not converged
     c_bands:  1 eigenvalues not converged
     c_bands:  1 eigenvalues not converged
     ethr =  6.41E-07,  avg # of iterations = 19.4

     negative rho (up, down):  2.107E-02 0.000E+00

     total cpu time spent up to now is       18.6 secs

     total energy              =     -45.43120414 Ry
     estimated scf accuracy    <       0.21329528 Ry

     iteration # 78     ecut=    25.00 Ry     beta= 0.70
     Davidson diagonalization with overlap
     c_bands:  1 eigenvalues not converged
     c_bands:  1 eigenvalues not converged
     c_bands:  1 eigenvalues not converged
     c_bands:  1 eigenvalues not converged
     ethr =  6.41E-07,  avg # of iterations = 12.4

     negative rho (up, down):  2.105E-02 0.000E+00

     total cpu time spent up to now is       18.9 secs

     total energy              =     -45.42982263 Ry
     estimated scf accuracy    <       0.18364673 Ry

     iteration # 79     ecut=    25.00 Ry     beta= 0.70
     Davidson diagonalization with overlap
     ethr =  6.41E-07,  avg # of iterations =  7.6

     negative rho (up, down):  2.105E-02 0.000E+00

     total cpu time spent up to now is       19.1 secs

     total energy              =     -45.43003412 Ry
     estimated scf accuracy    <       0.17475668 Ry

     iteration # 80     ecut=    25.00 Ry     beta= 0.70
     Davidson diagonalization with overlap
     ethr =  6.41E-07,  avg # of iterations =  1.1

     negative rho (up, down):  2.105E-02 0.000E+00

     total cpu time spent up to now is       19.2 secs

     total energy              =     -45.43014815 Ry
     estimated scf accuracy    <       0.17520648 Ry

     iteration # 81     ecut=    25.00 Ry     beta= 0.70
     Davidson diagonalization with overlap
     ethr =  6.41E-07,  avg # of iterations =  1.0

     negative rho (up, down):  2.105E-02 0.000E+00

     total cpu time spent up to now is       19.4 secs

     total energy              =     -45.42899562 Ry
     estimated scf accuracy    <       0.17597700 Ry

     iteration # 82     ecut=    25.00 Ry     beta= 0.70
     Davidson diagonalization with overlap
     ethr =  6.41E-07,  avg # of iterations =  2.8

     negative rho (up, down):  2.094E-02 0.000E+00

     total cpu time spent up to now is       19.5 secs

     total energy              =     -45.42164339 Ry
     estimated scf accuracy    <       0.17185756 Ry

     iteration # 83     ecut=    25.00 Ry     beta= 0.70
     Davidson diagonalization with overlap
     c_bands:  1 eigenvalues not converged
     c_bands:  1 eigenvalues not converged
     c_bands:  1 eigenvalues not converged
     c_bands:  1 eigenvalues not converged
     c_bands:  1 eigenvalues not converged
     c_bands:  1 eigenvalues not converged
     c_bands:  1 eigenvalues not converged
     c_bands:  1 eigenvalues not converged
     c_bands:  1 eigenvalues not converged
     ethr =  6.41E-07,  avg # of iterations = 16.6

     negative rho (up, down):  2.122E-02 0.000E+00

     total cpu time spent up to now is       19.8 secs

     total energy              =     -45.42857215 Ry
     estimated scf accuracy    <       0.09400883 Ry

     iteration # 84     ecut=    25.00 Ry     beta= 0.70
     Davidson diagonalization with overlap
     c_bands:  1 eigenvalues not converged
     c_bands:  1 eigenvalues not converged
     c_bands:  1 eigenvalues not converged
     c_bands:  1 eigenvalues not converged
     c_bands:  1 eigenvalues not converged
     ethr =  6.41E-07,  avg # of iterations = 19.5

     negative rho (up, down):  2.141E-02 0.000E+00

     total cpu time spent up to now is       20.2 secs

     total energy              =     -45.42374099 Ry
     estimated scf accuracy    <       0.21631707 Ry

     iteration # 85     ecut=    25.00 Ry     beta= 0.70
     Davidson diagonalization with overlap
     c_bands:  1 eigenvalues not converged
     c_bands:  1 eigenvalues not converged
     c_bands:  1 eigenvalues not converged
     c_bands:  1 eigenvalues not converged
     c_bands:  1 eigenvalues not converged
     c_bands:  1 eigenvalues not converged
     c_bands:  1 eigenvalues not converged
     c_bands:  1 eigenvalues not converged
     c_bands:  1 eigenvalues not converged
     c_bands:  1 eigenvalues not converged
     c_bands:  1 eigenvalues not converged
     c_bands:  1 eigenvalues not converged
     c_bands:  1 eigenvalues not converged
     c_bands:  1 eigenvalues not converged
     ethr =  6.41E-07,  avg # of iterations = 20.0

     negative rho (up, down):  2.120E-02 0.000E+00

     total cpu time spent up to now is       20.6 secs

     total energy              =     -45.40541791 Ry
     estimated scf accuracy    <       0.33301960 Ry

     iteration # 86     ecut=    25.00 Ry     beta= 0.70
     Davidson diagonalization with overlap
     c_bands:  1 eigenvalues not converged
     c_bands:  1 eigenvalues not converged
     c_bands:  1 eigenvalues not converged
     c_bands:  1 eigenvalues not converged
     c_bands:  1 eigenvalues not converged
     c_bands:  1 eigenvalues not converged
     c_bands:  1 eigenvalues not converged
     c_bands:  1 eigenvalues not converged
     c_bands:  1 eigenvalues not converged
     c_bands:  1 eigenvalues not converged
     c_bands:  1 eigenvalues not converged
     c_bands:  1 eigenvalues not converged
     ethr =  6.41E-07,  avg # of iterations = 17.9

     negative rho (up, down):  2.097E-02 0.000E+00

     total cpu time spent up to now is       20.9 secs

     total energy              =     -45.42602189 Ry
     estimated scf accuracy    <       0.08024633 Ry

     iteration # 87     ecut=    25.00 Ry     beta= 0.70
     Davidson diagonalization with overlap
     c_bands:  1 eigenvalues not converged
     c_bands:  1 eigenvalues not converged
     c_bands:  1 eigenvalues not converged
     c_bands:  1 eigenvalues not converged
     c_bands:  1 eigenvalues not converged
     c_bands:  1 eigenvalues not converged
     c_bands:  1 eigenvalues not converged
     c_bands:  1 eigenvalues not converged
     c_bands:  1 eigenvalues not converged
     c_bands:  1 eigenvalues not converged
     c_bands:  1 eigenvalues not converged
     ethr =  6.41E-07,  avg # of iterations = 19.6

     negative rho (up, down):  2.104E-02 0.000E+00

     total cpu time spent up to now is       21.3 secs

     total energy              =     -45.43375794 Ry
     estimated scf accuracy    <       0.15734505 Ry

     iteration # 88     ecut=    25.00 Ry     beta= 0.70
     Davidson diagonalization with overlap
     ethr =  6.41E-07,  avg # of iterations = 12.9

     negative rho (up, down):  2.100E-02 0.000E+00

     total cpu time spent up to now is       21.5 secs

     total energy              =     -45.44083006 Ry
     estimated scf accuracy    <       0.22928225 Ry

     iteration # 89     ecut=    25.00 Ry     beta= 0.70
     Davidson diagonalization with overlap
     ethr =  6.41E-07,  avg # of iterations =  7.0

     negative rho (up, down):  2.090E-02 0.000E+00

     total cpu time spent up to now is       21.7 secs

     total energy              =     -45.43683583 Ry
     estimated scf accuracy    <       0.23223587 Ry

     iteration # 90     ecut=    25.00 Ry     beta= 0.70
     Davidson diagonalization with overlap
     ethr =  6.41E-07,  avg # of iterations =  2.0

     negative rho (up, down):  2.082E-02 0.000E+00

     total cpu time spent up to now is       21.9 secs

     total energy              =     -45.41734183 Ry
     estimated scf accuracy    <       0.20981169 Ry

     iteration # 91     ecut=    25.00 Ry     beta= 0.70
     Davidson diagonalization with overlap
     c_bands:  1 eigenvalues not converged
     c_bands:  1 eigenvalues not converged
     c_bands:  1 eigenvalues not converged
     c_bands:  1 eigenvalues not converged
     c_bands:  1 eigenvalues not converged
     c_bands:  1 eigenvalues not converged
     c_bands:  1 eigenvalues not converged
     c_bands:  1 eigenvalues not converged
     c_bands:  1 eigenvalues not converged
     c_bands:  1 eigenvalues not converged
     c_bands:  1 eigenvalues not converged
     c_bands:  1 eigenvalues not converged
     c_bands:  1 eigenvalues not converged
     c_bands:  1 eigenvalues not converged
     ethr =  6.41E-07,  avg # of iterations = 20.0

     negative rho (up, down):  2.080E-02 0.000E+00

     total cpu time spent up to now is       22.2 secs

     total energy              =     -45.43261203 Ry
     estimated scf accuracy    <       0.17295557 Ry

     iteration # 92     ecut=    25.00 Ry     beta= 0.70
     Davidson diagonalization with overlap
     c_bands:  1 eigenvalues not converged
     c_bands:  1 eigenvalues not converged
     c_bands:  1 eigenvalues not converged
     c_bands:  1 eigenvalues not converged
     c_bands:  1 eigenvalues not converged
     c_bands:  1 eigenvalues not converged
     c_bands:  1 eigenvalues not converged
     c_bands:  1 eigenvalues not converged
     c_bands:  1 eigenvalues not converged
     c_bands:  1 eigenvalues not converged
     c_bands:  1 eigenvalues not converged
     c_bands:  1 eigenvalues not converged
     c_bands:  1 eigenvalues not converged
     ethr =  6.41E-07,  avg # of iterations = 19.6

     negative rho (up, down):  2.083E-02 0.000E+00

     total cpu time spent up to now is       22.6 secs

     total energy              =     -45.43429529 Ry
     estimated scf accuracy    <       0.19865979 Ry

     iteration # 93     ecut=    25.00 Ry     beta= 0.70
     Davidson diagonalization with overlap
     ethr =  6.41E-07,  avg # of iterations =  8.5

     negative rho (up, down):  2.090E-02 0.000E+00

     total cpu time spent up to now is       22.8 secs

     total energy              =     -45.43131456 Ry
     estimated scf accuracy    <       0.19458747 Ry

     iteration # 94     ecut=    25.00 Ry     beta= 0.70
     Davidson diagonalization with overlap
     ethr =  6.41E-07,  avg # of iterations =  9.1

     negative rho (up, down):  2.091E-02 0.000E+00

     total cpu time spent up to now is       23.0 secs

     total energy              =     -45.42606573 Ry
     estimated scf accuracy    <       0.19219365 Ry

     iteration # 95     ecut=    25.00 Ry     beta= 0.70
     Davidson diagonalization with overlap
     ethr =  6.41E-07,  avg # of iterations =  3.0

     negative rho (up, down):  2.096E-02 0.000E+00

     total cpu time spent up to now is       23.2 secs

     total energy              =     -45.42400947 Ry
     estimated scf accuracy    <       0.15337687 Ry

     iteration # 96     ecut=    25.00 Ry     beta= 0.70
     Davidson diagonalization with overlap
     ethr =  6.41E-07,  avg # of iterations = 10.2

     negative rho (up, down):  2.115E-02 0.000E+00

     total cpu time spent up to now is       23.4 secs

     total energy              =     -45.42372386 Ry
     estimated scf accuracy    <       0.14171956 Ry

     iteration # 97     ecut=    25.00 Ry     beta= 0.70
     Davidson diagonalization with overlap
     c_bands:  1 eigenvalues not converged
     c_bands:  1 eigenvalues not converged
     c_bands:  1 eigenvalues not converged
     c_bands:  1 eigenvalues not converged
     c_bands:  1 eigenvalues not converged
     c_bands:  1 eigenvalues not converged
     c_bands:  1 eigenvalues not converged
     c_bands:  1 eigenvalues not converged
     c_bands:  1 eigenvalues not converged
     c_bands:  1 eigenvalues not converged
     c_bands:  1 eigenvalues not converged
     c_bands:  1 eigenvalues not converged
     c_bands:  1 eigenvalues not converged
     c_bands:  1 eigenvalues not converged
     ethr =  6.41E-07,  avg # of iterations = 20.0

     negative rho (up, down):  2.150E-02 0.000E+00

     total cpu time spent up to now is       23.8 secs

     total energy              =     -45.42676956 Ry
     estimated scf accuracy    <       0.16446420 Ry

     iteration # 98     ecut=    25.00 Ry     beta= 0.70
     Davidson diagonalization with overlap
     c_bands:  1 eigenvalues not converged
     c_bands:  1 eigenvalues not converged
     c_bands:  1 eigenvalues not converged
     c_bands:  1 eigenvalues not converged
     c_bands:  1 eigenvalues not converged
     c_bands:  1 eigenvalues not converged
     c_bands:  1 eigenvalues not converged
     c_bands:  1 eigenvalues not converged
     c_bands:  1 eigenvalues not converged
     c_bands:  1 eigenvalues not converged
     ethr =  6.41E-07,  avg # of iterations = 19.6

     negative rho (up, down):  2.147E-02 0.000E+00

     total cpu time spent up to now is       24.1 secs

     total energy              =     -45.44805984 Ry
     estimated scf accuracy    <       0.26470275 Ry

     iteration # 99     ecut=    25.00 Ry     beta= 0.70
     Davidson diagonalization with overlap
     ethr =  6.41E-07,  avg # of iterations =  7.0

     negative rho (up, down):  2.116E-02 0.000E+00

     total cpu time spent up to now is       24.4 secs

     total energy              =     -45.43396426 Ry
     estimated scf accuracy    <       0.26096668 Ry

     iteration #100     ecut=    25.00 Ry     beta= 0.70
     Davidson diagonalization with overlap
     ethr =  6.41E-07,  avg # of iterations = 14.4

     negative rho (up, down):  2.107E-02 0.000E+00

     total cpu time spent up to now is       24.7 secs

     total energy              =     -45.42675075 Ry
     estimated scf accuracy    <       0.19044471 Ry

     End of self-consistent calculation

     convergence NOT achieved after 100 iterations: stopping

     Writing config to output data dir ./h2o.save/

     init_run     :      0.39s CPU      0.43s WALL (       1 calls)
     electrons    :     22.77s CPU     24.02s WALL (       1 calls)

     Called by init_run:
     wfcinit      :      0.08s CPU      0.08s WALL (       1 calls)
     potinit      :      0.02s CPU      0.02s WALL (       1 calls)
     hinit0       :      0.27s CPU      0.29s WALL (       1 calls)

     Called by electrons:
     c_bands      :     17.79s CPU     18.88s WALL (     100 calls)
     sum_band     :      3.11s CPU      3.21s WALL (     100 calls)
     v_of_rho     :      0.64s CPU      0.67s WALL (     101 calls)
     newd         :      0.97s CPU      1.02s WALL (     101 calls)
     mix_rho      :      0.22s CPU      0.22s WALL (     100 calls)

     Called by c_bands:
     init_us_2    :      0.57s CPU      0.61s WALL (    2814 calls)
     init_us_2:cp :      0.56s CPU      0.59s WALL (    2814 calls)
     cegterg      :     16.81s CPU     17.82s WALL (    1400 calls)

     Called by *egterg:
     cdiaghg      :      0.94s CPU      1.01s WALL (   14195 calls)
     h_psi        :     11.31s CPU     11.97s WALL (   14209 calls)
     s_psi        :      0.77s CPU      0.82s WALL (   14209 calls)
     g_psi        :      0.09s CPU      0.10s WALL (   12795 calls)

     Called by h_psi:
     h_psi:calbec :      1.66s CPU      1.75s WALL (   14209 calls)
     vloc_psi     :      8.64s CPU      9.14s WALL (   14209 calls)
     add_vuspsi   :      0.79s CPU      0.84s WALL (   14209 calls)

     General routines
     calbec       :      1.97s CPU      2.08s WALL (   15609 calls)
     fft          :      0.75s CPU      0.78s WALL (    1112 calls)
     ffts         :      0.04s CPU      0.04s WALL (     100 calls)
     fftw         :      8.86s CPU      9.36s WALL (   68406 calls)
     davcio       :      0.00s CPU      0.00s WALL (      32 calls)

     Parallel routines

     PWSCF        :     23.38s CPU     24.70s WALL


   This run was terminated on:   4: 4:46  11May2023            

=------------------------------------------------------------------------------=
   JOB DONE.
=------------------------------------------------------------------------------=
