
     Program PWSCF v.7.2 starts on 30May2023 at 14:40:47 

     This program is part of the open-source Quantum ESPRESSO suite
     for quantum simulation of materials; please cite
         "P. Giannozzi et al., J. Phys.:Condens. Matter 21 395502 (2009);
         "P. Giannozzi et al., J. Phys.:Condens. Matter 29 465901 (2017);
         "P. Giannozzi et al., J. Chem. Phys. 152 154105 (2020);
          URL http://www.quantum-espresso.org", 
     in publications or presentations arising from this work. More details at
     http://www.quantum-espresso.org/quote

     Parallel version (MPI), running on    12 processors

     MPI processes distributed on     1 nodes
     70469 MiB available memory on the printing compute node when the environment starts

     Reading input from HfNbTaZr_random_lattice_16_relax.in
Warning: card &CELL ignored
Warning: card / ignored

     Current dimensions of program PWSCF are:
     Max number of different atomic species (ntypx) = 10
     Max number of k-points (npk) =  40000
     Max angular momentum in pseudopotentials (lmaxx) =  4
     Found identity + (  0.0000 -0.5000  0.0000) symmetry
     This is a supercell, fractional translations are disabled

     R & G space division:  proc/nbgrp/npool/nimage =      12
     Subspace diagonalization in iterative solution of the eigenvalue problem:
     a serial algorithm will be used


     Parallelization info
     --------------------
     sticks:   dense  smooth     PW     G-vecs:    dense   smooth      PW
     Min        1224     612    153                55864    19730    2463
     Max        1225     613    154                55866    19731    2464
     Sum       14689    7353   1837               670373   236769   29557

     Using Slab Decomposition



     bravais-lattice index     =            0
     lattice parameter (alat)  =      13.8706  a.u.
     unit-cell volume          =    1334.3040 (a.u.)^3
     number of atoms/cell      =           16
     number of atomic types    =            4
     number of electrons       =       200.00
     number of Kohn-Sham states=          120
     kinetic-energy cutoff     =     120.0000  Ry
     charge density cutoff     =     960.0000  Ry
     scf convergence threshold =      1.0E-06
     mixing beta               =       0.7000
     number of iterations used =            8  plain     mixing
     energy convergence thresh.=      1.0E-04
     force convergence thresh. =      1.0E-03
     Exchange-correlation= SLA  PW   PBE  PBE
                           (   1   4   3   4   0   0   0)
     nstep                     =           50


     celldm(1)=  13.870590  celldm(2)=   0.000000  celldm(3)=   0.000000
     celldm(4)=   0.000000  celldm(5)=   0.000000  celldm(6)=   0.000000

     crystal axes: (cart. coord. in units of alat)
               a(1) = (   1.000000   0.000000   0.000000 )  
               a(2) = (   0.000000   1.000000   0.000000 )  
               a(3) = (   0.000000   0.000000   0.500000 )  

     reciprocal axes: (cart. coord. in units 2 pi/alat)
               b(1) = (  1.000000  0.000000  0.000000 )  
               b(2) = (  0.000000  1.000000  0.000000 )  
               b(3) = (  0.000000  0.000000  2.000000 )  


     PseudoPot. # 1 for Hf read from file:
     q-e/pseudo/hf_pbe_v1.uspp.F.UPF
     MD5 check sum: 8ee9378dfe14276e333edf04c5e4aa26
     Pseudo is Ultrasoft + core correction, Zval = 12.0
     Generated by new atomic code, or converted to UPF format
     Using radial grid of  921 points,  8 beta functions with: 
                l(1) =   0
                l(2) =   0
                l(3) =   0
                l(4) =   1
                l(5) =   1
                l(6) =   2
                l(7) =   2
                l(8) =   3
     Q(r) pseudized with  6 coefficients,  rinner =    1.200   1.200   1.200
                                                       1.200   1.200   1.200
                                                       1.200

     PseudoPot. # 2 for Nb read from file:
     q-e/pseudo/nb_pbe_v1.uspp.F.UPF
     MD5 check sum: 573aab8a2fa660278ed4a62cd769473f
     Pseudo is Ultrasoft + core correction, Zval = 13.0
     Generated by new atomic code, or converted to UPF format
     Using radial grid of  887 points,  6 beta functions with: 
                l(1) =   0
                l(2) =   0
                l(3) =   1
                l(4) =   1
                l(5) =   2
                l(6) =   2
     Q(r) pseudized with  6 coefficients,  rinner =    1.000   1.000   1.000
                                                       1.000   1.000

     PseudoPot. # 3 for Ta read from file:
     q-e/pseudo/ta_pbe_v1.uspp.F.UPF
     MD5 check sum: f8bbe9446314a3b8ea5d9f3e3836c939
     Pseudo is Ultrasoft + core correction, Zval = 13.0
     Generated by new atomic code, or converted to UPF format
     Using radial grid of  921 points,  7 beta functions with: 
                l(1) =   0
                l(2) =   0
                l(3) =   1
                l(4) =   1
                l(5) =   2
                l(6) =   2
                l(7) =   3
     Q(r) pseudized with  6 coefficients,  rinner =    1.300   1.300   1.300
                                                       1.300   1.300   1.300
                                                       1.300

     PseudoPot. # 4 for Zr read from file:
     q-e/pseudo/zr_pbe_v1.uspp.F.UPF
     MD5 check sum: 5db81b1e868ab7776c4564c113de050b
     Pseudo is Ultrasoft + core correction, Zval = 12.0
     Generated by new atomic code, or converted to UPF format
     Using radial grid of  887 points,  6 beta functions with: 
                l(1) =   0
                l(2) =   0
                l(3) =   1
                l(4) =   1
                l(5) =   2
                l(6) =   2
     Q(r) pseudized with  6 coefficients,  rinner =    1.200   1.200   1.200
                                                       1.200   1.200

     atomic species   valence    mass     pseudopotential
        Hf            12.00   178.49000     Hf( 1.00)
        Nb            13.00    92.90637     Nb( 1.00)
        Ta            13.00   180.94788     Ta( 1.00)
        Zr            12.00    91.22400     Zr( 1.00)

     No symmetry found



   Cartesian axes

     site n.     atom                  positions (alat units)
         1           Hf  tau(   1) = (   0.1362398   0.1362398   0.1362398  )
         2           Nb  tau(   2) = (   0.1362398   0.3637602   0.3637602  )
         3           Ta  tau(   3) = (   0.3637602   0.1362398   0.3637602  )
         4           Zr  tau(   4) = (   0.3637602   0.3637602   0.1362398  )
         5           Hf  tau(   5) = (   0.1362398   0.6362398   0.1362398  )
         6           Nb  tau(   6) = (   0.1362398   0.8637602   0.3637602  )
         7           Ta  tau(   7) = (   0.3637602   0.6362398   0.3637602  )
         8           Zr  tau(   8) = (   0.3637602   0.8637602   0.1362398  )
         9           Hf  tau(   9) = (   0.6362398   0.1362398   0.1362398  )
        10           Nb  tau(  10) = (   0.6362398   0.3637602   0.3637602  )
        11           Ta  tau(  11) = (   0.8637602   0.1362398   0.3637602  )
        12           Zr  tau(  12) = (   0.8637602   0.3637602   0.1362398  )
        13           Hf  tau(  13) = (   0.6362398   0.6362398   0.1362398  )
        14           Nb  tau(  14) = (   0.6362398   0.8637602   0.3637602  )
        15           Ta  tau(  15) = (   0.8637602   0.6362398   0.3637602  )
        16           Zr  tau(  16) = (   0.8637602   0.8637602   0.1362398  )

     number of k points=     1  Gaussian smearing, width (Ry)=  0.0220
                       cart. coord. in units 2pi/alat
        k(    1) = (   0.0000000   0.0000000   0.0000000), wk =   2.0000000

     Dense  grid:   670373 G-vectors     FFT dimensions: ( 144, 144,  72)

     Smooth grid:   236769 G-vectors     FFT dimensions: ( 100, 100,  50)

     Estimated max dynamical RAM per process >     423.33 MB

     Estimated total dynamical RAM >       4.96 GB

     Initial potential from superposition of free atoms

     starting charge     191.9760, renormalised to     200.0000

     negative rho (up, down):  1.060E+00 0.000E+00
     Starting wfcs are  208 randomized atomic wfcs

     total cpu time spent up to now is        6.5 secs

     Self-consistent Calculation

     iteration #  1     ecut=   120.00 Ry     beta= 0.70
     Davidson diagonalization with overlap
     ethr =  1.00E-02,  avg # of iterations =  2.0

     negative rho (up, down):  1.029E+00 0.000E+00

     total cpu time spent up to now is       14.2 secs

     total energy              =   -2067.01878726 Ry
     estimated scf accuracy    <       3.99589402 Ry

     iteration #  2     ecut=   120.00 Ry     beta= 0.70
     Davidson diagonalization with overlap
     ethr =  2.00E-03,  avg # of iterations =  4.0

     negative rho (up, down):  1.034E+00 0.000E+00

     total cpu time spent up to now is       23.8 secs

     total energy              =   -2065.60613007 Ry
     estimated scf accuracy    <      14.46758848 Ry

     iteration #  3     ecut=   120.00 Ry     beta= 0.70
     Davidson diagonalization with overlap
     ethr =  2.00E-03,  avg # of iterations =  4.0

     negative rho (up, down):  1.045E+00 0.000E+00

     total cpu time spent up to now is       32.3 secs

     total energy              =   -2068.41480449 Ry
     estimated scf accuracy    <       1.01618212 Ry

     iteration #  4     ecut=   120.00 Ry     beta= 0.70
     Davidson diagonalization with overlap
     ethr =  5.08E-04,  avg # of iterations =  3.0

     negative rho (up, down):  1.046E+00 0.000E+00

     total cpu time spent up to now is       40.0 secs

     total energy              =   -2068.49934845 Ry
     estimated scf accuracy    <       0.36735520 Ry

     iteration #  5     ecut=   120.00 Ry     beta= 0.70
     Davidson diagonalization with overlap
     ethr =  1.84E-04,  avg # of iterations =  3.0

     negative rho (up, down):  1.047E+00 0.000E+00

     total cpu time spent up to now is       47.7 secs

     total energy              =   -2068.53496764 Ry
     estimated scf accuracy    <       0.33321125 Ry

     iteration #  6     ecut=   120.00 Ry     beta= 0.70
     Davidson diagonalization with overlap
     ethr =  1.67E-04,  avg # of iterations =  1.0

     negative rho (up, down):  1.048E+00 0.000E+00

     total cpu time spent up to now is       54.4 secs

     total energy              =   -2068.55657313 Ry
     estimated scf accuracy    <       0.02031929 Ry

     iteration #  7     ecut=   120.00 Ry     beta= 0.70
     Davidson diagonalization with overlap
     ethr =  1.02E-05,  avg # of iterations = 12.0

     negative rho (up, down):  1.050E+00 0.000E+00

     total cpu time spent up to now is       63.1 secs

     total energy              =   -2068.55264424 Ry
     estimated scf accuracy    <       0.10751029 Ry

     iteration #  8     ecut=   120.00 Ry     beta= 0.70
     Davidson diagonalization with overlap
     ethr =  1.02E-05,  avg # of iterations =  3.0

     negative rho (up, down):  1.050E+00 0.000E+00

     total cpu time spent up to now is       70.9 secs

     total energy              =   -2068.55996307 Ry
     estimated scf accuracy    <       0.00388543 Ry

     iteration #  9     ecut=   120.00 Ry     beta= 0.70
     Davidson diagonalization with overlap
     ethr =  1.94E-06,  avg # of iterations =  8.0

     negative rho (up, down):  1.050E+00 0.000E+00

     total cpu time spent up to now is       79.7 secs

     total energy              =   -2068.55816513 Ry
     estimated scf accuracy    <       0.04090887 Ry

     iteration # 10     ecut=   120.00 Ry     beta= 0.70
     Davidson diagonalization with overlap
     ethr =  1.94E-06,  avg # of iterations =  8.0

     negative rho (up, down):  1.050E+00 0.000E+00

     total cpu time spent up to now is       88.0 secs

     total energy              =   -2068.56078848 Ry
     estimated scf accuracy    <       0.00110541 Ry

     iteration # 11     ecut=   120.00 Ry     beta= 0.70
     Davidson diagonalization with overlap
     ethr =  5.53E-07,  avg # of iterations =  2.0

     negative rho (up, down):  1.050E+00 0.000E+00

     total cpu time spent up to now is       95.3 secs

     total energy              =   -2068.56084099 Ry
     estimated scf accuracy    <       0.00130513 Ry

     iteration # 12     ecut=   120.00 Ry     beta= 0.70
     Davidson diagonalization with overlap
     ethr =  5.53E-07,  avg # of iterations =  2.0

     negative rho (up, down):  1.050E+00 0.000E+00

     total cpu time spent up to now is      102.6 secs

     total energy              =   -2068.56088817 Ry
     estimated scf accuracy    <       0.00097489 Ry

     iteration # 13     ecut=   120.00 Ry     beta= 0.70
     Davidson diagonalization with overlap
     ethr =  4.87E-07,  avg # of iterations =  2.0

     negative rho (up, down):  1.051E+00 0.000E+00

     total cpu time spent up to now is      109.7 secs

     total energy              =   -2068.56096833 Ry
     estimated scf accuracy    <       0.00024170 Ry

     iteration # 14     ecut=   120.00 Ry     beta= 0.70
     Davidson diagonalization with overlap
     ethr =  1.21E-07,  avg # of iterations =  2.0

     negative rho (up, down):  1.051E+00 0.000E+00

     total cpu time spent up to now is      116.8 secs

     total energy              =   -2068.56099117 Ry
     estimated scf accuracy    <       0.00001286 Ry

     iteration # 15     ecut=   120.00 Ry     beta= 0.70
     Davidson diagonalization with overlap
     ethr =  6.43E-09,  avg # of iterations =  2.0

     negative rho (up, down):  1.051E+00 0.000E+00

     total cpu time spent up to now is      124.3 secs

     total energy              =   -2068.56099243 Ry
     estimated scf accuracy    <       0.00001221 Ry

     iteration # 16     ecut=   120.00 Ry     beta= 0.70
     Davidson diagonalization with overlap
     ethr =  6.11E-09,  avg # of iterations =  2.0

     negative rho (up, down):  1.051E+00 0.000E+00

     total cpu time spent up to now is      131.5 secs

     total energy              =   -2068.56099352 Ry
     estimated scf accuracy    <       0.00000543 Ry

     iteration # 17     ecut=   120.00 Ry     beta= 0.70
     Davidson diagonalization with overlap
     ethr =  2.71E-09,  avg # of iterations =  1.0

     negative rho (up, down):  1.051E+00 0.000E+00

     total cpu time spent up to now is      138.0 secs

     End of self-consistent calculation

          k = 0.0000 0.0000 0.0000 ( 29557 PWs)   bands (ev):

   -39.0652 -39.0590 -39.0548 -39.0500 -32.7770 -32.7711 -32.7615 -32.7542
   -26.3458 -26.3186 -26.3090 -26.2997 -19.9912 -19.9799 -19.9498 -19.9125
    -6.8710  -6.7555  -6.6505  -6.6116  -6.3784  -6.3462  -6.3363  -6.1893
    -6.1857  -6.1602  -6.0836  -6.0431  -3.7412  -3.5727  -3.5414  -3.4721
    -3.2889  -3.1157  -2.9957  -2.9007  -2.8145  -2.7521  -2.7232  -2.4283
    -2.3642  -2.2405  -2.1703  -2.1359  -2.0047  -1.7955  -1.4688  -1.3897
    -1.3842  -1.3053  -0.9968  -0.9367   1.4466   1.4934   1.7012   1.7962
     1.9321   1.9483   2.0304   2.0915   2.1353   2.1511   2.2011   2.2345
    20.3955  20.8724  21.2572  21.5081  21.7775  22.2347  22.3276  22.7632
    22.9666  23.2352  23.3786  23.5576  23.6322  23.7337  23.8072  23.9210
    23.9630  24.0528  24.5316  24.6358  25.1984  25.4530  25.4586  26.0965
    26.4189  26.5972  26.6792  26.7024  26.7982  26.9183  27.0446  27.2738
    27.5007  27.5624  27.6133  27.6337  27.8318  28.0722  28.2908  28.3143
    28.3338  28.3443  28.3459  28.3544  29.1863  29.5794  29.5870  29.6690
    29.8234  29.9695  30.0210  30.0926  31.5081  31.6005  31.8676  31.9814

     the Fermi energy is    27.8057 ev

!    total energy              =   -2068.56099351 Ry
     estimated scf accuracy    <       0.00000060 Ry
     smearing contrib. (-TS)   =      -0.04996277 Ry
     internal energy E=F+TS    =   -2068.51103074 Ry

     The total energy is F=E-TS. E is the sum of the following terms:
     one-electron contribution =      32.17881254 Ry
     hartree contribution      =     162.60482599 Ry
     xc contribution           =    -628.16061056 Ry
     ewald contribution        =   -1635.13405871 Ry

     convergence has been achieved in  17 iterations

     negative rho (up, down):  1.051E+00 0.000E+00

     Forces acting on atoms (cartesian axes, Ry/au):

     atom    1 type  1   force =    -0.27256768   -0.26945900   -0.24861956
     atom    2 type  2   force =    -0.24230380    0.24265504    0.19897078
     atom    3 type  3   force =     0.24273529   -0.26170640    0.24545133
     atom    4 type  4   force =     0.27227195    0.28878603   -0.19580392
     atom    5 type  1   force =    -0.27279585   -0.26980463   -0.24866437
     atom    6 type  2   force =    -0.24231350    0.24261547    0.19893911
     atom    7 type  3   force =     0.24273476   -0.26193574    0.24548063
     atom    8 type  4   force =     0.27233709    0.28877780   -0.19580453
     atom    9 type  1   force =    -0.27226718   -0.26958894   -0.24862189
     atom   10 type  2   force =    -0.24233794    0.24265551    0.19902214
     atom   11 type  3   force =     0.24244405   -0.26182988    0.24549509
     atom   12 type  4   force =     0.27199891    0.28895069   -0.19588164
     atom   13 type  1   force =    -0.27197063   -0.26962500   -0.24864132
     atom   14 type  2   force =    -0.24229876    0.24263020    0.19902642
     atom   15 type  3   force =     0.24238267   -0.26181134    0.24550200
     atom   16 type  4   force =     0.27195060    0.28869018   -0.19585026
     The non-local contrib.  to forces
     atom    1 type  1   force =     0.09297362    0.07873254    0.11207561
     atom    2 type  2   force =     0.28368842   -0.17240416   -0.01638241
     atom    3 type  3   force =    -0.06143480    0.06437285   -0.20518150
     atom    4 type  4   force =    -0.26754087   -0.19212132   -0.04956987
     atom    5 type  1   force =     0.09284177    0.07848768    0.11201822
     atom    6 type  2   force =     0.28374865   -0.17244712   -0.01640442
     atom    7 type  3   force =    -0.06145799    0.06410853   -0.20514316
     atom    8 type  4   force =    -0.26750739   -0.19212620   -0.04958693
     atom    9 type  1   force =     0.09305967    0.07863676    0.11205130
     atom   10 type  2   force =     0.28354410   -0.17236684   -0.01636278
     atom   11 type  3   force =    -0.06169082    0.06421787   -0.20510956
     atom   12 type  4   force =    -0.26757827   -0.19196671   -0.04959328
     atom   13 type  1   force =     0.09331637    0.07860183    0.11199825
     atom   14 type  2   force =     0.28351775   -0.17234791   -0.01637628
     atom   15 type  3   force =    -0.06178498    0.06426367   -0.20507962
     atom   16 type  4   force =    -0.26763110   -0.19216505   -0.04959360
     The ionic contribution  to forces
     atom    1 type  1   force =    -4.92105825   -4.92105825   -5.11790058
     atom    2 type  2   force =    -5.33114643    5.33114643    5.11790058
     atom    3 type  3   force =     5.33114643   -5.33114643    5.11790058
     atom    4 type  4   force =     4.92105825    4.92105825   -5.11790058
     atom    5 type  1   force =    -4.92105825   -4.92105825   -5.11790058
     atom    6 type  2   force =    -5.33114643    5.33114643    5.11790058
     atom    7 type  3   force =     5.33114643   -5.33114643    5.11790058
     atom    8 type  4   force =     4.92105825    4.92105825   -5.11790058
     atom    9 type  1   force =    -4.92105825   -4.92105825   -5.11790058
     atom   10 type  2   force =    -5.33114643    5.33114643    5.11790058
     atom   11 type  3   force =     5.33114643   -5.33114643    5.11790058
     atom   12 type  4   force =     4.92105825    4.92105825   -5.11790058
     atom   13 type  1   force =    -4.92105825   -4.92105825   -5.11790058
     atom   14 type  2   force =    -5.33114643    5.33114643    5.11790058
     atom   15 type  3   force =     5.33114643   -5.33114643    5.11790058
     atom   16 type  4   force =     4.92105825    4.92105825   -5.11790058
     The local contribution  to forces
     atom    1 type  1   force =     4.55210891    4.57599651    4.72112273
     atom    2 type  2   force =     4.81918463   -4.92667531   -4.90137197
     atom    3 type  3   force =    -5.02960886    5.01864803   -4.64753368
     atom    4 type  4   force =    -4.39521234   -4.45176088    4.96864230
     atom    5 type  1   force =     4.55133800    4.57490564    4.72106756
     atom    6 type  2   force =     4.81820209   -4.92735838   -4.90130704
     atom    7 type  3   force =    -5.02959225    5.01736330   -4.64751179
     atom    8 type  4   force =    -4.39467863   -4.45179868    4.96856383
     atom    9 type  1   force =     4.55344832    4.57553279    4.72117717
     atom   10 type  2   force =     4.82102538   -4.92661231   -4.90139661
     atom   11 type  3   force =    -5.03176873    5.01790173   -4.64762525
     atom   12 type  4   force =    -4.39715337   -4.45095956    4.96861853
     atom   13 type  1   force =     4.55438330    4.57548054    4.72127504
     atom   14 type  2   force =     4.82179809   -4.92769577   -4.90132692
     atom   15 type  3   force =    -5.03195718    5.01799692   -4.64769321
     atom   16 type  4   force =    -4.39747921   -4.45256289    4.96870118
     The core correction contribution to forces
     atom    1 type  1   force =     0.00303701   -0.00254552    0.03602779
     atom    2 type  2   force =    -0.01459149    0.01081800   -0.00109364
     atom    3 type  3   force =     0.00357026   -0.01272347   -0.01973404
     atom    4 type  4   force =     0.01464588    0.01140909    0.00298124
     atom    5 type  1   force =     0.00303572   -0.00255932    0.03602040
     atom    6 type  2   force =    -0.01459670    0.01081858   -0.00109340
     atom    7 type  3   force =     0.00356970   -0.01273370   -0.01973201
     atom    8 type  4   force =     0.01464822    0.01140951    0.00298262
     atom    9 type  1   force =     0.00301398   -0.00254048    0.03602347
     atom   10 type  2   force =    -0.01458452    0.01081665   -0.00109162
     atom   11 type  3   force =     0.00358178   -0.01271892   -0.01972141
     atom   12 type  4   force =     0.01463504    0.01140924    0.00297989
     atom   13 type  1   force =     0.00302878   -0.00254347    0.03601061
     atom   14 type  2   force =    -0.01458253    0.01081480   -0.00109067
     atom   15 type  3   force =     0.00357607   -0.01271502   -0.01971522
     atom   16 type  4   force =     0.01463713    0.01140785    0.00298064
     The Hubbard contrib.    to forces
     atom    1 type  1   force =     0.00000000    0.00000000    0.00000000
     atom    2 type  2   force =     0.00000000    0.00000000    0.00000000
     atom    3 type  3   force =     0.00000000    0.00000000    0.00000000
     atom    4 type  4   force =     0.00000000    0.00000000    0.00000000
     atom    5 type  1   force =     0.00000000    0.00000000    0.00000000
     atom    6 type  2   force =     0.00000000    0.00000000    0.00000000
     atom    7 type  3   force =     0.00000000    0.00000000    0.00000000
     atom    8 type  4   force =     0.00000000    0.00000000    0.00000000
     atom    9 type  1   force =     0.00000000    0.00000000    0.00000000
     atom   10 type  2   force =     0.00000000    0.00000000    0.00000000
     atom   11 type  3   force =     0.00000000    0.00000000    0.00000000
     atom   12 type  4   force =     0.00000000    0.00000000    0.00000000
     atom   13 type  1   force =     0.00000000    0.00000000    0.00000000
     atom   14 type  2   force =     0.00000000    0.00000000    0.00000000
     atom   15 type  3   force =     0.00000000    0.00000000    0.00000000
     atom   16 type  4   force =     0.00000000    0.00000000    0.00000000
     The SCF correction term to forces
     atom    1 type  1   force =     0.00037297   -0.00058203    0.00005061
     atom    2 type  2   force =     0.00056302   -0.00022767   -0.00008605
     atom    3 type  3   force =    -0.00093581   -0.00085513   -0.00000431
     atom    4 type  4   force =    -0.00067703    0.00020313    0.00003871
     atom    5 type  1   force =     0.00104884    0.00042186    0.00012575
     atom    6 type  2   force =     0.00148083    0.00045820   -0.00016087
     atom    7 type  3   force =    -0.00092919    0.00047482   -0.00003726
     atom    8 type  4   force =    -0.00118141    0.00023717    0.00013225
     atom    9 type  1   force =    -0.00072897   -0.00015751    0.00002248
     atom   10 type  2   force =    -0.00117453   -0.00032617   -0.00003169
     atom   11 type  3   force =     0.00117733   -0.00008187    0.00004647
     atom   12 type  4   force =     0.00103919   -0.00058829    0.00000953
     atom   13 type  1   force =    -0.00163890   -0.00010341   -0.00002892
     atom   14 type  2   force =    -0.00188370    0.00071490   -0.00008456
     atom   15 type  3   force =     0.00140426   -0.00020823    0.00008519
     atom   16 type  4   force =     0.00136748    0.00095426   -0.00004217

     Total force =     1.731329     Total SCF correction =     0.005068


     Computing stress (Cartesian axis) and pressure


     negative rho (up, down):  1.051E+00 0.000E+00
          total   stress  (Ry/bohr**3)                   (kbar)     P=     1815.66
   0.01476312  -0.00017884   0.00043936         2171.73      -26.31       64.63
  -0.00017884   0.01466087   0.00007174          -26.31     2156.69       10.55
   0.00043936   0.00007174   0.00760373           64.63       10.55     1118.55


     BFGS Geometry Optimization
     Energy error            =      0.0E+00 Ry
     Gradient error          =      2.9E-01 Ry/Bohr

     number of scf cycles    =   1
     number of bfgs steps    =   0

     energy             new  =   -2068.5609935145 Ry

     new trust radius        =       0.4572155807 bohr
     new conv_thr            =       0.0000010000 Ry


ATOMIC_POSITIONS (angstrom)
Hf            0.8557633967        0.8574084404        0.8684361927
Nb            0.8717783525        2.7984075191        2.7752908050
Ta            2.7984499829        0.8615109380        2.7998872485
Zr            2.8140801125        2.8228189841        0.8963850251
Hf            0.8556426509        4.5272255369        0.8684124817
Nb            0.8717732176        6.4683865799        2.7752740449
Ta            2.7984497054        4.5313895773        2.7999027568
Zr            2.8141145842        6.4928146286        0.8963847054
Hf            4.5259224111        0.8573396789        0.8684349614
Nb            4.5417602869        2.7984077672        2.7753179805
Ta            6.4682958683        0.8614455946        2.7999104083
Zr            6.4839356239        2.8229061188        0.8963438999
Hf            4.5260793407        4.5273205958        0.8684246776
Nb            4.5417810202        6.4683943734        2.7753202437
Ta            6.4682633837        4.5314554045        2.7999140631
Zr            6.4839100625        6.4927682623        0.8963605055



     Writing config-only to output data dir outdir/pwscf.save/
     NEW-OLD atomic charge density approx. for the potential

     negative rho (up, down):  1.034E+00 0.000E+00

     total cpu time spent up to now is      160.8 secs

     Self-consistent Calculation

     iteration #  1     ecut=   120.00 Ry     beta= 0.70
     Davidson diagonalization with overlap
     ethr =  1.00E-06,  avg # of iterations = 19.0

     negative rho (up, down):  1.049E+00 0.000E+00

     total cpu time spent up to now is      184.8 secs

     total energy              =   -2068.22724558 Ry
     estimated scf accuracy    <       1.96635577 Ry

     iteration #  2     ecut=   120.00 Ry     beta= 0.70
     Davidson diagonalization with overlap
     ethr =  9.83E-04,  avg # of iterations =  3.0

     negative rho (up, down):  1.050E+00 0.000E+00

     total cpu time spent up to now is      193.1 secs

     total energy              =   -2068.67029091 Ry
     estimated scf accuracy    <       2.49944568 Ry

     iteration #  3     ecut=   120.00 Ry     beta= 0.70
     Davidson diagonalization with overlap
     ethr =  9.83E-04,  avg # of iterations =  2.0

     negative rho (up, down):  1.051E+00 0.000E+00

     total cpu time spent up to now is      200.8 secs

     total energy              =   -2069.09211356 Ry
     estimated scf accuracy    <       0.08660502 Ry

     iteration #  4     ecut=   120.00 Ry     beta= 0.70
     Davidson diagonalization with overlap
     ethr =  4.33E-05,  avg # of iterations =  6.0

     negative rho (up, down):  1.051E+00 0.000E+00

     total cpu time spent up to now is      209.4 secs

     total energy              =   -2069.07880777 Ry
     estimated scf accuracy    <       0.45851748 Ry

     iteration #  5     ecut=   120.00 Ry     beta= 0.70
     Davidson diagonalization with overlap
     ethr =  4.33E-05,  avg # of iterations =  3.0

     negative rho (up, down):  1.052E+00 0.000E+00

     total cpu time spent up to now is      217.1 secs

     total energy              =   -2069.11007502 Ry
     estimated scf accuracy    <       0.14011531 Ry

     iteration #  6     ecut=   120.00 Ry     beta= 0.70
     Davidson diagonalization with overlap
     ethr =  4.33E-05,  avg # of iterations =  2.0

     negative rho (up, down):  1.052E+00 0.000E+00

     total cpu time spent up to now is      224.2 secs

     total energy              =   -2069.11864340 Ry
     estimated scf accuracy    <       0.02398353 Ry

     iteration #  7     ecut=   120.00 Ry     beta= 0.70
     Davidson diagonalization with overlap
     ethr =  1.20E-05,  avg # of iterations =  2.0

     negative rho (up, down):  1.052E+00 0.000E+00

     total cpu time spent up to now is      231.7 secs

     total energy              =   -2069.12088380 Ry
     estimated scf accuracy    <       0.02818024 Ry

     iteration #  8     ecut=   120.00 Ry     beta= 0.70
     Davidson diagonalization with overlap
     ethr =  1.20E-05,  avg # of iterations =  1.0

     negative rho (up, down):  1.052E+00 0.000E+00

     total cpu time spent up to now is      238.3 secs

     total energy              =   -2069.12229565 Ry
     estimated scf accuracy    <       0.00280687 Ry

     iteration #  9     ecut=   120.00 Ry     beta= 0.70
     Davidson diagonalization with overlap
     ethr =  1.40E-06,  avg # of iterations =  2.0

     negative rho (up, down):  1.052E+00 0.000E+00

     total cpu time spent up to now is      245.7 secs

     total energy              =   -2069.12248081 Ry
     estimated scf accuracy    <       0.00506504 Ry

     iteration # 10     ecut=   120.00 Ry     beta= 0.70
     Davidson diagonalization with overlap
     ethr =  1.40E-06,  avg # of iterations =  2.0

     negative rho (up, down):  1.052E+00 0.000E+00

     total cpu time spent up to now is      252.9 secs

     total energy              =   -2069.12279100 Ry
     estimated scf accuracy    <       0.00040775 Ry

     iteration # 11     ecut=   120.00 Ry     beta= 0.70
     Davidson diagonalization with overlap
     ethr =  2.04E-07,  avg # of iterations =  2.0

     negative rho (up, down):  1.052E+00 0.000E+00

     total cpu time spent up to now is      260.2 secs

     total energy              =   -2069.12284902 Ry
     estimated scf accuracy    <       0.00015159 Ry

     iteration # 12     ecut=   120.00 Ry     beta= 0.70
     Davidson diagonalization with overlap
     ethr =  7.58E-08,  avg # of iterations =  2.0

     negative rho (up, down):  1.052E+00 0.000E+00

     total cpu time spent up to now is      267.3 secs

     total energy              =   -2069.12286205 Ry
     estimated scf accuracy    <       0.00000995 Ry

     iteration # 13     ecut=   120.00 Ry     beta= 0.70
     Davidson diagonalization with overlap
     ethr =  4.97E-09,  avg # of iterations =  4.0

     negative rho (up, down):  1.052E+00 0.000E+00

     total cpu time spent up to now is      275.1 secs

     total energy              =   -2069.12285931 Ry
     estimated scf accuracy    <       0.00008134 Ry

     iteration # 14     ecut=   120.00 Ry     beta= 0.70
     Davidson diagonalization with overlap
     ethr =  4.97E-09,  avg # of iterations =  5.0

     negative rho (up, down):  1.052E+00 0.000E+00

     total cpu time spent up to now is      282.8 secs

     total energy              =   -2069.12286478 Ry
     estimated scf accuracy    <       0.00001322 Ry

     iteration # 15     ecut=   120.00 Ry     beta= 0.70
     Davidson diagonalization with overlap
     ethr =  4.97E-09,  avg # of iterations =  2.0

     negative rho (up, down):  1.052E+00 0.000E+00

     total cpu time spent up to now is      290.2 secs

     total energy              =   -2069.12286587 Ry
     estimated scf accuracy    <       0.00000118 Ry

     iteration # 16     ecut=   120.00 Ry     beta= 0.70
     Davidson diagonalization with overlap
     ethr =  5.89E-10,  avg # of iterations =  3.0

     negative rho (up, down):  1.052E+00 0.000E+00

     total cpu time spent up to now is      297.8 secs

     total energy              =   -2069.12286592 Ry
     estimated scf accuracy    <       0.00000269 Ry

     iteration # 17     ecut=   120.00 Ry     beta= 0.70
     Davidson diagonalization with overlap
     ethr =  5.89E-10,  avg # of iterations =  2.0

     negative rho (up, down):  1.052E+00 0.000E+00

     total cpu time spent up to now is      305.1 secs

     End of self-consistent calculation

          k = 0.0000 0.0000 0.0000 ( 29557 PWs)   bands (ev):

   -39.0882 -39.0828 -39.0792 -39.0752 -32.6747 -32.6705 -32.6611 -32.6554
   -26.2223 -26.1968 -26.1917 -26.1841 -19.7353 -19.7287 -19.7042 -19.6693
    -6.5789  -6.5162  -6.4083  -6.3757  -6.3467  -6.3142  -6.3109  -6.1632
    -6.1349  -6.1129  -6.0763  -6.0393  -3.4300  -3.2729  -3.2174  -3.1049
    -3.0056  -2.9705  -2.8913  -2.8108  -2.7862  -2.6484  -2.6416  -2.4603
    -2.3218  -2.2628  -2.1029  -2.0302  -1.8938  -1.7684  -1.6146  -1.3735
    -1.3549  -1.2923  -0.9602  -0.8788   1.5616   1.5631   1.8522   1.9341
     2.0281   2.1030   2.2224   2.2608   2.2834   2.2867   2.3630   2.4242
    20.3122  20.8285  21.2075  21.4763  21.9899  22.1259  22.2313  22.9775
    23.2932  23.5151  23.5827  23.7510  23.7694  23.8203  23.9823  23.9827
    24.1301  24.2778  24.8764  25.0679  25.1139  25.2273  25.8747  26.0748
    26.6399  26.6414  26.7083  26.7665  26.8367  26.8405  27.0423  27.2103
    27.2302  27.2761  27.3557  27.3837  27.4277  27.4918  27.8557  28.2185
    28.2617  28.3140  28.5334  28.5961  29.3254  29.7420  30.1212  30.1253
    30.4049  30.6218  30.6357  30.6673  31.2070  31.2356  31.5105  31.5720

     the Fermi energy is    27.4707 ev

!    total energy              =   -2069.12286599 Ry
     estimated scf accuracy    <       0.00000017 Ry
     smearing contrib. (-TS)   =      -0.07147253 Ry
     internal energy E=F+TS    =   -2069.05139346 Ry

     The total energy is F=E-TS. E is the sum of the following terms:
     one-electron contribution =      53.47668053 Ry
     hartree contribution      =     152.35121092 Ry
     xc contribution           =    -627.72398856 Ry
     ewald contribution        =   -1647.15529635 Ry

     convergence has been achieved in  17 iterations

     negative rho (up, down):  1.052E+00 0.000E+00

     Forces acting on atoms (cartesian axes, Ry/au):

     atom    1 type  1   force =     0.15861600    0.17730786    0.11197034
     atom    2 type  2   force =     0.15757323   -0.15754421   -0.07860694
     atom    3 type  3   force =    -0.14338399    0.18444248   -0.11230014
     atom    4 type  4   force =    -0.17275890   -0.20424594    0.07889056
     atom    5 type  1   force =     0.15893694    0.17750811    0.11202981
     atom    6 type  2   force =     0.15762694   -0.15750425   -0.07851514
     atom    7 type  3   force =    -0.14331053    0.18462376   -0.11229532
     atom    8 type  4   force =    -0.17286290   -0.20433044    0.07884231
     atom    9 type  1   force =     0.15829910    0.17741448    0.11206038
     atom   10 type  2   force =     0.15754851   -0.15762188   -0.07861556
     atom   11 type  3   force =    -0.14336585    0.18449325   -0.11236089
     atom   12 type  4   force =    -0.17255297   -0.20465239    0.07895134
     atom   13 type  1   force =     0.15794481    0.17738064    0.11207212
     atom   14 type  2   force =     0.15744074   -0.15756476   -0.07857521
     atom   15 type  3   force =    -0.14334455    0.18447376   -0.11243195
     atom   16 type  4   force =    -0.17240659   -0.20418048    0.07888432
     The non-local contrib.  to forces
     atom    1 type  1   force =    -0.05568473   -0.03405229   -0.06180165
     atom    2 type  2   force =    -0.25873300    0.09799514    0.02293640
     atom    3 type  3   force =     0.00318859    0.01605899    0.10854806
     atom    4 type  4   force =     0.25047814    0.13280878    0.03145771
     atom    5 type  1   force =    -0.05583028   -0.03439089   -0.06184732
     atom    6 type  2   force =    -0.25874553    0.09806674    0.02291539
     atom    7 type  3   force =     0.00318006    0.01587063    0.10859339
     atom    8 type  4   force =     0.25048844    0.13285025    0.03145947
     atom    9 type  1   force =    -0.05586559   -0.03425227   -0.06180968
     atom   10 type  2   force =    -0.25850117    0.09806760    0.02289547
     atom   11 type  3   force =     0.00298165    0.01597482    0.10864327
     atom   12 type  4   force =     0.25036150    0.13287039    0.03154359
     atom   13 type  1   force =    -0.05572626   -0.03423802   -0.06184470
     atom   14 type  2   force =    -0.25855228    0.09789367    0.02287403
     atom   15 type  3   force =     0.00298486    0.01588617    0.10873941
     atom   16 type  4   force =     0.25036219    0.13287198    0.03152491
     The ionic contribution  to forces
     atom    1 type  1   force =     3.25522946    3.40826230    2.36022439
     atom    2 type  2   force =     3.25638175   -3.47708373   -1.98401125
     atom    3 type  3   force =    -3.27962519    3.61244252   -2.31139058
     atom    4 type  4   force =    -3.23684327   -3.55137007    1.93505361
     atom    5 type  1   force =     3.26128098    3.41752503    2.36097850
     atom    6 type  2   force =     3.25850063   -3.47478451   -1.98306964
     atom    7 type  3   force =    -3.27958100    3.62062368   -2.31162992
     atom    8 type  4   force =    -3.23987669   -3.55421846    1.93466233
     atom    9 type  1   force =     3.24801887    3.41181034    2.36099479
     atom   10 type  2   force =     3.24996299   -3.47784131   -1.98442834
     atom   11 type  3   force =    -3.26614237    3.61533581   -2.31252341
     atom   12 type  4   force =    -3.22724195   -3.55876611    1.93607708
     atom   13 type  1   force =     3.24133393    3.41420236    2.36137000
     atom   14 type  2   force =     3.24741636   -3.47491014   -1.98429446
     atom   15 type  3   force =    -3.26516579    3.61818778   -2.31348814
     atom   16 type  4   force =    -3.22364869   -3.54941549    1.93547506
     The local contribution  to forces
     atom    1 type  1   force =    -3.03020706   -3.20045310   -2.16332081
     atom    2 type  2   force =    -2.85264202    3.22808464    1.88275576
     atom    3 type  3   force =     3.13045872   -3.45862015    2.07972411
     atom    4 type  4   force =     2.82694852    3.22218327   -1.88577182
     atom    5 type  1   force =    -3.03557621   -3.20936180   -2.16393077
     atom    6 type  2   force =    -2.85444105    3.22666343    1.88195030
     atom    7 type  3   force =     3.13061147   -3.46630420    2.07991821
     atom    8 type  4   force =     2.82989588    3.22532875   -1.88545785
     atom    9 type  1   force =    -3.02412190   -3.20377461   -2.16396985
     atom   10 type  2   force =    -2.84779473    3.22887771    1.88319198
     atom   11 type  3   force =     3.11725501   -3.46115388    2.08068198
     atom   12 type  4   force =     2.81759164    3.22887702   -1.88678308
     atom   13 type  1   force =    -3.01814388   -3.20628782   -2.16427143
     atom   14 type  2   force =    -2.84556159    3.22683083    1.88312638
     atom   15 type  3   force =     3.11618768   -3.46439753    2.08144512
     atom   16 type  4   force =     2.81409728    3.22094230   -1.88623085
     The core correction contribution to forces
     atom    1 type  1   force =    -0.01021286    0.00385070   -0.02309738
     atom    2 type  2   force =     0.01328750   -0.00724509   -0.00030375
     atom    3 type  3   force =     0.00246354    0.01472744    0.01085068
     atom    4 type  4   force =    -0.01340393   -0.00821864   -0.00182168
     atom    5 type  1   force =    -0.01021373    0.00384315   -0.02310615
     atom    6 type  2   force =     0.01328837   -0.00725123   -0.00030301
     atom    7 type  3   force =     0.00245122    0.01472946    0.01085286
     atom    8 type  4   force =    -0.01340454   -0.00821911   -0.00182239
     atom    9 type  1   force =    -0.01020167    0.00382143   -0.02310584
     atom   10 type  2   force =     0.01327387   -0.00724926   -0.00030137
     atom   11 type  3   force =     0.00243765    0.01471923    0.01085856
     atom   12 type  4   force =    -0.01339291   -0.00822424   -0.00182587
     atom   13 type  1   force =    -0.01019522    0.00383298   -0.02310916
     atom   14 type  2   force =     0.01327769   -0.00724170   -0.00030015
     atom   15 type  3   force =     0.00245346    0.01472673    0.01086287
     atom   16 type  4   force =    -0.01339563   -0.00821906   -0.00182504
     The Hubbard contrib.    to forces
     atom    1 type  1   force =     0.00000000    0.00000000    0.00000000
     atom    2 type  2   force =     0.00000000    0.00000000    0.00000000
     atom    3 type  3   force =     0.00000000    0.00000000    0.00000000
     atom    4 type  4   force =     0.00000000    0.00000000    0.00000000
     atom    5 type  1   force =     0.00000000    0.00000000    0.00000000
     atom    6 type  2   force =     0.00000000    0.00000000    0.00000000
     atom    7 type  3   force =     0.00000000    0.00000000    0.00000000
     atom    8 type  4   force =     0.00000000    0.00000000    0.00000000
     atom    9 type  1   force =     0.00000000    0.00000000    0.00000000
     atom   10 type  2   force =     0.00000000    0.00000000    0.00000000
     atom   11 type  3   force =     0.00000000    0.00000000    0.00000000
     atom   12 type  4   force =     0.00000000    0.00000000    0.00000000
     atom   13 type  1   force =     0.00000000    0.00000000    0.00000000
     atom   14 type  2   force =     0.00000000    0.00000000    0.00000000
     atom   15 type  3   force =     0.00000000    0.00000000    0.00000000
     atom   16 type  4   force =     0.00000000    0.00000000    0.00000000
     The SCF correction term to forces
     atom    1 type  1   force =    -0.00052129   -0.00029049   -0.00002700
     atom    2 type  2   force =    -0.00073347    0.00071410    0.00002311
     atom    3 type  3   force =     0.00011789   -0.00015705   -0.00002520
     atom    4 type  4   force =     0.00004917    0.00035999   -0.00002005
     atom    5 type  1   force =    -0.00073630   -0.00009812   -0.00005725
     atom    6 type  2   force =    -0.00098795   -0.00018942   -0.00000098
     atom    7 type  3   force =     0.00001525   -0.00028654   -0.00002266
     atom    8 type  4   force =     0.00002154   -0.00006261    0.00000795
     atom    9 type  1   force =     0.00045692   -0.00018113   -0.00004185
     atom   10 type  2   force =     0.00059508    0.00053264    0.00003391
     atom   11 type  3   force =     0.00008974   -0.00037347   -0.00001408
     atom   12 type  4   force =     0.00011627    0.00059981   -0.00005318
     atom   13 type  1   force =     0.00066378   -0.00011959   -0.00006539
     atom   14 type  2   force =     0.00084810   -0.00012815    0.00002619
     atom   15 type  3   force =     0.00018277    0.00007988    0.00001600
     atom   16 type  4   force =     0.00016579   -0.00035095   -0.00005256

     Total force =     1.039144     Total SCF correction =     0.002455


     Computing stress (Cartesian axis) and pressure


     negative rho (up, down):  1.052E+00 0.000E+00
          total   stress  (Ry/bohr**3)                   (kbar)     P=     1641.49
   0.01291203  -0.00003943   0.00016337         1899.43       -5.80       24.03
  -0.00003943   0.01263322   0.00010453           -5.80     1858.41       15.38
   0.00016337   0.00010453   0.00793052           24.03       15.38     1166.62

     Energy error            =      5.6E-01 Ry
     Gradient error          =      2.0E-01 Ry/Bohr

     number of scf cycles    =   2
     number of bfgs steps    =   1

     energy             old  =   -2068.5609935145 Ry
     energy             new  =   -2069.1228659884 Ry

     CASE: energy            _new < energy            _old

     new trust radius        =       0.1735474999 bohr
     new conv_thr            =       0.0000010000 Ry


ATOMIC_POSITIONS (angstrom)
Hf            0.9079013202        0.9157697669        0.9051149363
Nb            0.9236375933        2.7465587221        2.7495960789
Ta            2.7513106693        0.9222624930        2.7630916898
Zr            2.7572379781        2.7555422844        0.9221812030
Hf            0.9078867968        4.5856526817        0.9051109023
Nb            0.9236503001        6.4165509809        2.7496097781
Ta            2.7513348208        4.5922009052        2.7631088671
Zr            2.7572380090        6.4255098064        0.9221648340
Hf            4.5779556201        0.9157361726        0.9051436447
Nb            4.5936112298        2.7465331383        2.7496205025
Ta            6.4211619305        0.9222137547        2.7630947453
Zr            6.4271613620        2.7554946143        0.9221601152
Hf            4.5779953915        4.5857057529        0.9051372220
Nb            4.5935962103        6.4165386842        2.7496361947
Ta            6.4211363943        4.5922171260        2.7630747843
Zr            6.4271843738        6.4255131165        0.9221545019



     Writing config-only to output data dir outdir/pwscf.save/
     NEW-OLD atomic charge density approx. for the potential

     negative rho (up, down):  1.052E+00 0.000E+00

     total cpu time spent up to now is      327.5 secs

     Self-consistent Calculation

     iteration #  1     ecut=   120.00 Ry     beta= 0.70
     Davidson diagonalization with overlap
     ethr =  1.00E-06,  avg # of iterations = 18.0

     negative rho (up, down):  1.053E+00 0.000E+00

     total cpu time spent up to now is      357.1 secs

     total energy              =   -2069.28543222 Ry
     estimated scf accuracy    <       0.35998095 Ry

     iteration #  2     ecut=   120.00 Ry     beta= 0.70
     Davidson diagonalization with overlap
     ethr =  1.80E-04,  avg # of iterations =  6.0

     negative rho (up, down):  1.054E+00 0.000E+00

     total cpu time spent up to now is      370.1 secs

     total energy              =   -2069.34068165 Ry
     estimated scf accuracy    <       0.57777358 Ry

     iteration #  3     ecut=   120.00 Ry     beta= 0.70
     Davidson diagonalization with overlap
     ethr =  1.80E-04,  avg # of iterations =  2.0

     negative rho (up, down):  1.054E+00 0.000E+00

     total cpu time spent up to now is      381.6 secs

     total energy              =   -2069.44120613 Ry
     estimated scf accuracy    <       0.02258469 Ry

     iteration #  4     ecut=   120.00 Ry     beta= 0.70
     Davidson diagonalization with overlap
     ethr =  1.13E-05,  avg # of iterations =  8.0

     negative rho (up, down):  1.054E+00 0.000E+00

     total cpu time spent up to now is      394.4 secs

     total energy              =   -2069.43859629 Ry
     estimated scf accuracy    <       0.10079796 Ry

     iteration #  5     ecut=   120.00 Ry     beta= 0.70
     Davidson diagonalization with overlap
     ethr =  1.13E-05,  avg # of iterations =  7.0

     negative rho (up, down):  1.054E+00 0.000E+00

     total cpu time spent up to now is      406.8 secs

     total energy              =   -2069.44450577 Ry
     estimated scf accuracy    <       0.04639691 Ry

     iteration #  6     ecut=   120.00 Ry     beta= 0.70
     Davidson diagonalization with overlap
     ethr =  1.13E-05,  avg # of iterations =  2.0

     negative rho (up, down):  1.054E+00 0.000E+00

     total cpu time spent up to now is      417.8 secs

     total energy              =   -2069.44744889 Ry
     estimated scf accuracy    <       0.00655268 Ry

     iteration #  7     ecut=   120.00 Ry     beta= 0.70
     Davidson diagonalization with overlap
     ethr =  3.28E-06,  avg # of iterations =  3.0

     negative rho (up, down):  1.054E+00 0.000E+00

     total cpu time spent up to now is      428.9 secs

     total energy              =   -2069.44809830 Ry
     estimated scf accuracy    <       0.00291044 Ry

     iteration #  8     ecut=   120.00 Ry     beta= 0.70
     Davidson diagonalization with overlap
     ethr =  1.46E-06,  avg # of iterations =  2.0

     negative rho (up, down):  1.054E+00 0.000E+00

     total cpu time spent up to now is      439.9 secs

     total energy              =   -2069.44826135 Ry
     estimated scf accuracy    <       0.00045499 Ry

     iteration #  9     ecut=   120.00 Ry     beta= 0.70
     Davidson diagonalization with overlap
     ethr =  2.27E-07,  avg # of iterations =  3.0

     negative rho (up, down):  1.054E+00 0.000E+00

     total cpu time spent up to now is      451.8 secs

     total energy              =   -2069.44825893 Ry
     estimated scf accuracy    <       0.00131906 Ry

     iteration # 10     ecut=   120.00 Ry     beta= 0.70
     Davidson diagonalization with overlap
     ethr =  2.27E-07,  avg # of iterations =  2.0

     negative rho (up, down):  1.054E+00 0.000E+00

     total cpu time spent up to now is      463.6 secs

     total energy              =   -2069.44834267 Ry
     estimated scf accuracy    <       0.00003618 Ry

     iteration # 11     ecut=   120.00 Ry     beta= 0.70
     Davidson diagonalization with overlap
     ethr =  1.81E-08,  avg # of iterations =  3.0

     negative rho (up, down):  1.054E+00 0.000E+00

     total cpu time spent up to now is      475.7 secs

     total energy              =   -2069.44834530 Ry
     estimated scf accuracy    <       0.00002414 Ry

     iteration # 12     ecut=   120.00 Ry     beta= 0.70
     Davidson diagonalization with overlap
     ethr =  1.21E-08,  avg # of iterations =  2.0

     negative rho (up, down):  1.054E+00 0.000E+00

     total cpu time spent up to now is      487.7 secs

     total energy              =   -2069.44834551 Ry
     estimated scf accuracy    <       0.00005221 Ry

     iteration # 13     ecut=   120.00 Ry     beta= 0.70
     Davidson diagonalization with overlap
     ethr =  1.21E-08,  avg # of iterations =  2.0

     negative rho (up, down):  1.054E+00 0.000E+00

     total cpu time spent up to now is      499.4 secs

     total energy              =   -2069.44834877 Ry
     estimated scf accuracy    <       0.00001010 Ry

     iteration # 14     ecut=   120.00 Ry     beta= 0.70
     Davidson diagonalization with overlap
     ethr =  5.05E-09,  avg # of iterations =  2.0

     negative rho (up, down):  1.054E+00 0.000E+00

     total cpu time spent up to now is      510.8 secs

     total energy              =   -2069.44834972 Ry
     estimated scf accuracy    <       0.00000107 Ry

     iteration # 15     ecut=   120.00 Ry     beta= 0.70
     Davidson diagonalization with overlap
     ethr =  5.37E-10,  avg # of iterations =  2.0

     negative rho (up, down):  1.054E+00 0.000E+00

     total cpu time spent up to now is      522.8 secs

     total energy              =   -2069.44834971 Ry
     estimated scf accuracy    <       0.00000140 Ry

     iteration # 16     ecut=   120.00 Ry     beta= 0.70
     Davidson diagonalization with overlap
     ethr =  5.37E-10,  avg # of iterations =  2.0

     negative rho (up, down):  1.054E+00 0.000E+00

     total cpu time spent up to now is      536.1 secs

     End of self-consistent calculation

          k = 0.0000 0.0000 0.0000 ( 29557 PWs)   bands (ev):

   -39.0839 -39.0787 -39.0755 -39.0716 -32.5882 -32.5844 -32.5752 -32.5698
   -26.1998 -26.1734 -26.1707 -26.1625 -19.6450 -19.6407 -19.6173 -19.5838
    -6.4671  -6.4302  -6.4283  -6.3905  -6.2360  -6.2215  -6.2094  -6.1424
    -6.0781  -6.0707  -5.9990  -5.9157  -3.3489  -3.2270  -3.0984  -3.0889
    -2.9295  -2.8283  -2.8194  -2.7547  -2.6415  -2.6388  -2.5256  -2.4716
    -2.3340  -2.2830  -2.0133  -1.8757  -1.7451  -1.6917  -1.6225  -1.3954
    -1.3051  -1.1933  -0.9465  -0.8512   1.5522   1.6102   1.8626   1.9658
     2.0146   2.1243   2.2443   2.2711   2.3424   2.3889   2.4099   2.4585
    20.2870  20.7303  21.1970  21.4272  22.0290  22.1470  22.1584  23.0867
    23.4779  23.5068  23.5176  23.8505  23.9644  24.1103  24.1708  24.3684
    24.4000  24.4428  24.4438  24.5007  24.9998  25.4179  26.2646  26.3658
    26.6377  26.7717  26.7884  26.8461  26.8653  26.8806  27.0185  27.0309
    27.0310  27.0787  27.1191  27.1507  27.2659  27.3017  27.3152  28.2039
    28.2093  28.2317  29.2640  29.3316  29.4017  29.5850  29.7718  29.8005
    30.7035  31.1606  31.1919  31.3696  31.4867  31.5051  31.5102  31.6130

     the Fermi energy is    27.2578 ev

!    total energy              =   -2069.44834944 Ry
     estimated scf accuracy    <       0.00000051 Ry
     smearing contrib. (-TS)   =      -0.09541873 Ry
     internal energy E=F+TS    =   -2069.35293071 Ry

     The total energy is F=E-TS. E is the sum of the following terms:
     one-electron contribution =      65.72124746 Ry
     hartree contribution      =     146.36875682 Ry
     xc contribution           =    -627.45648953 Ry
     ewald contribution        =   -1653.98644545 Ry

     convergence has been achieved in  16 iterations

     negative rho (up, down):  1.054E+00 0.000E+00

     Forces acting on atoms (cartesian axes, Ry/au):

     atom    1 type  1   force =     0.00873824   -0.00423161    0.01644872
     atom    2 type  2   force =    -0.00150609    0.00611056   -0.01517629
     atom    3 type  3   force =    -0.00277883   -0.00351838   -0.01129297
     atom    4 type  4   force =    -0.00424110    0.00137830    0.01002683
     atom    5 type  1   force =     0.00877030   -0.00434034    0.01643304
     atom    6 type  2   force =    -0.00146062    0.00623544   -0.01516293
     atom    7 type  3   force =    -0.00275066   -0.00355492   -0.01129595
     atom    8 type  4   force =    -0.00428036    0.00190021    0.01003113
     atom    9 type  1   force =     0.00844244   -0.00422216    0.01644648
     atom   10 type  2   force =    -0.00149392    0.00614873   -0.01517858
     atom   11 type  3   force =    -0.00296007   -0.00348772   -0.01131006
     atom   12 type  4   force =    -0.00419345    0.00138734    0.01002704
     atom   13 type  1   force =     0.00839295   -0.00440653    0.01643081
     atom   14 type  2   force =    -0.00151674    0.00627778   -0.01517215
     atom   15 type  3   force =    -0.00297737   -0.00360277   -0.01127264
     atom   16 type  4   force =    -0.00418471    0.00192606    0.01001751
     The non-local contrib.  to forces
     atom    1 type  1   force =    -0.00730020   -0.00591877   -0.00641116
     atom    2 type  2   force =    -0.01484118   -0.01553805   -0.00175994
     atom    3 type  3   force =     0.00073284   -0.00186294    0.02060278
     atom    4 type  4   force =     0.02242532    0.00148256    0.00671336
     atom    5 type  1   force =    -0.00727070   -0.00614330   -0.00643804
     atom    6 type  2   force =    -0.01483034   -0.01556507   -0.00175367
     atom    7 type  3   force =     0.00078194   -0.00203394    0.02065834
     atom    8 type  4   force =     0.02241564    0.00181344    0.00671734
     atom    9 type  1   force =    -0.00739488   -0.00595956   -0.00641086
     atom   10 type  2   force =    -0.01459660   -0.01554096   -0.00173592
     atom   11 type  3   force =     0.00037088   -0.00190705    0.02064616
     atom   12 type  4   force =     0.02185470    0.00143940    0.00671183
     atom   13 type  1   force =    -0.00738956   -0.00607559   -0.00645019
     atom   14 type  2   force =    -0.01463291   -0.01555246   -0.00172825
     atom   15 type  3   force =     0.00030177   -0.00203419    0.02065639
     atom   16 type  4   force =     0.02188169    0.00184483    0.00671577
     The ionic contribution  to forces
     atom    1 type  1   force =     0.20062059   -0.04995641    0.36437741
     atom    2 type  2   force =    -0.01797005    0.16592643   -0.14452012
     atom    3 type  3   force =    -0.05683475   -0.15061236   -0.31943843
     atom    4 type  4   force =    -0.13312669    0.02970887    0.09973863
     atom    5 type  1   force =     0.20050887   -0.04484096    0.36442944
     atom    6 type  2   force =    -0.01725050    0.16561493   -0.14491939
     atom    7 type  3   force =    -0.05734503   -0.14635033   -0.31983459
     atom    8 type  4   force =    -0.13419247    0.03011085    0.10027392
     atom    9 type  1   force =     0.19832043   -0.04933710    0.36419011
     atom   10 type  2   force =    -0.01769480    0.16595001   -0.14462966
     atom   11 type  3   force =    -0.04700088   -0.14982723   -0.31975473
     atom   12 type  4   force =    -0.12620254    0.02998152    0.09999339
     atom   13 type  1   force =     0.19791027   -0.04638247    0.36432573
     atom   14 type  2   force =    -0.01805210    0.16679373   -0.14509267
     atom   15 type  3   force =    -0.04610447   -0.14701224   -0.31945586
     atom   16 type  4   force =    -0.12558590    0.03023275    0.10031683
     The local contribution  to forces
     atom    1 type  1   force =    -0.18226050    0.05415131   -0.33883607
     atom    2 type  2   force =     0.03130970   -0.14695647    0.13166434
     atom    3 type  3   force =     0.05375575    0.14886135    0.28681311
     atom    4 type  4   force =     0.10786977   -0.03132965   -0.09645264
     atom    5 type  1   force =    -0.18197959    0.04837031   -0.33884997
     atom    6 type  2   force =     0.03069990   -0.14274014    0.13207976
     atom    7 type  3   force =     0.05435301    0.14388073    0.28712328
     atom    8 type  4   force =     0.10890359   -0.02846677   -0.09699790
     atom    9 type  1   force =    -0.18101046    0.05355706   -0.33864383
     atom   10 type  2   force =     0.02959416   -0.14680426    0.13174826
     atom   11 type  3   force =     0.04350636    0.14820532    0.28707173
     atom   12 type  4   force =     0.10082784   -0.03169762   -0.09671233
     atom   13 type  1   force =    -0.18074590    0.04979877   -0.33873688
     atom   14 type  2   force =     0.02992627   -0.14401935    0.13221495
     atom   15 type  3   force =     0.04247537    0.14445239    0.28677061
     atom   16 type  4   force =     0.10015807   -0.02845204   -0.09705679
     The core correction contribution to forces
     atom    1 type  1   force =    -0.00189889   -0.00216498   -0.00285095
     atom    2 type  2   force =     0.00060245    0.00085108   -0.00037576
     atom    3 type  3   force =    -0.00011942    0.00045301    0.00089370
     atom    4 type  4   force =    -0.00104582    0.00002271   -0.00012798
     atom    5 type  1   force =    -0.00189901   -0.00216475   -0.00285450
     atom    6 type  2   force =     0.00060205    0.00085556   -0.00037509
     atom    7 type  3   force =    -0.00011794    0.00046134    0.00089921
     atom    8 type  4   force =    -0.00104451    0.00002797   -0.00012877
     atom    9 type  1   force =    -0.00189089   -0.00216514   -0.00285154
     atom   10 type  2   force =     0.00059053    0.00085132   -0.00037629
     atom   11 type  3   force =    -0.00014843    0.00045181    0.00089915
     atom   12 type  4   force =    -0.00102028    0.00002429   -0.00012840
     atom   13 type  1   force =    -0.00188955   -0.00216225   -0.00285735
     atom   14 type  2   force =     0.00059263    0.00085516   -0.00037571
     atom   15 type  3   force =    -0.00014852    0.00045412    0.00089837
     atom   16 type  4   force =    -0.00102305    0.00002723   -0.00012930
     The Hubbard contrib.    to forces
     atom    1 type  1   force =     0.00000000    0.00000000    0.00000000
     atom    2 type  2   force =     0.00000000    0.00000000    0.00000000
     atom    3 type  3   force =     0.00000000    0.00000000    0.00000000
     atom    4 type  4   force =     0.00000000    0.00000000    0.00000000
     atom    5 type  1   force =     0.00000000    0.00000000    0.00000000
     atom    6 type  2   force =     0.00000000    0.00000000    0.00000000
     atom    7 type  3   force =     0.00000000    0.00000000    0.00000000
     atom    8 type  4   force =     0.00000000    0.00000000    0.00000000
     atom    9 type  1   force =     0.00000000    0.00000000    0.00000000
     atom   10 type  2   force =     0.00000000    0.00000000    0.00000000
     atom   11 type  3   force =     0.00000000    0.00000000    0.00000000
     atom   12 type  4   force =     0.00000000    0.00000000    0.00000000
     atom   13 type  1   force =     0.00000000    0.00000000    0.00000000
     atom   14 type  2   force =     0.00000000    0.00000000    0.00000000
     atom   15 type  3   force =     0.00000000    0.00000000    0.00000000
     atom   16 type  4   force =     0.00000000    0.00000000    0.00000000
     The SCF correction term to forces
     atom    1 type  1   force =    -0.00042153   -0.00034513    0.00016075
     atom    2 type  2   force =    -0.00060578    0.00182521   -0.00019354
     atom    3 type  3   force =    -0.00031201   -0.00035980   -0.00017286
     atom    4 type  4   force =    -0.00036244    0.00149144    0.00014672
     atom    5 type  1   force =    -0.00058802    0.00043601    0.00013737
     atom    6 type  2   force =    -0.00068049   -0.00193220   -0.00020328
     atom    7 type  3   force =    -0.00042139    0.00048491   -0.00015092
     atom    8 type  4   force =    -0.00036136   -0.00158764    0.00015780
     atom    9 type  1   force =     0.00041947   -0.00031978    0.00015387
     atom   10 type  2   force =     0.00061402    0.00169026   -0.00019371
     atom   11 type  3   force =     0.00031325   -0.00041292   -0.00018110
     atom   12 type  4   force =     0.00034808    0.00163738    0.00015382
     atom   13 type  1   force =     0.00050893    0.00041264    0.00014076
     atom   14 type  2   force =     0.00065061   -0.00180165   -0.00019921
     atom   15 type  3   force =     0.00049972    0.00053478   -0.00015088
     atom   16 type  4   force =     0.00038573   -0.00172908    0.00016227

     Total force =     0.060092     Total SCF correction =     0.005402


     Computing stress (Cartesian axis) and pressure


     negative rho (up, down):  1.054E+00 0.000E+00
          total   stress  (Ry/bohr**3)                   (kbar)     P=     1570.40
   0.01219647  -0.00000259   0.00000143         1794.16       -0.38        0.21
  -0.00000259   0.01189598   0.00000968           -0.38     1749.96        1.42
   0.00000143   0.00000968   0.00793366            0.21        1.42     1167.08

     Energy error            =      3.3E-01 Ry
     Gradient error          =      1.6E-02 Ry/Bohr

     number of scf cycles    =   3
     number of bfgs steps    =   2

     energy             old  =   -2069.1228659884 Ry
     energy             new  =   -2069.4483494375 Ry

     CASE: energy            _new < energy            _old

     new trust radius        =       0.0191554088 bohr
     new conv_thr            =       0.0000001645 Ry


ATOMIC_POSITIONS (angstrom)
Hf            0.9123260010        0.9131428345        0.9138306851
Nb            0.9225197065        2.7501549946        2.7414986339
Ta            2.7500711891        0.9199863626        2.7571560023
Zr            2.7552846087        2.7567083532        0.9275021399
Hf            0.9123278387        4.5829668657        0.9138180440
Nb            0.9225567156        6.4202143780        2.7415192314
Ta            2.7501102475        4.5899046989        2.7571715296
Zr            2.7552638050        6.4269571580        0.9274882584
Hf            4.5822218642        0.9131140849        0.9138578722
Nb            4.5925000159        2.7501502300        2.7415217989
Ta            6.4198251140        0.9199540790        2.7571500278
Zr            6.4252332011        2.7566668146        0.9274810336
Hf            4.5822359407        4.5829845645        0.9138429880
Nb            4.5924730509        6.4202250784        2.7415408094
Ta            6.4197902522        4.5898955604        2.7571504539
Zr            6.4252604491        6.4269739427        0.9274704917



     Writing config-only to output data dir outdir/pwscf.save/
     NEW-OLD atomic charge density approx. for the potential

     negative rho (up, down):  1.054E+00 0.000E+00

     total cpu time spent up to now is      578.3 secs

     Self-consistent Calculation

     iteration #  1     ecut=   120.00 Ry     beta= 0.70
     Davidson diagonalization with overlap
     ethr =  1.00E-06,  avg # of iterations = 10.0

     negative rho (up, down):  1.054E+00 0.000E+00

     total cpu time spent up to now is      603.7 secs

     total energy              =   -2069.44978866 Ry
     estimated scf accuracy    <       0.00095331 Ry

     iteration #  2     ecut=   120.00 Ry     beta= 0.70
     Davidson diagonalization with overlap
     ethr =  4.77E-07,  avg # of iterations =  5.0

     negative rho (up, down):  1.054E+00 0.000E+00

     total cpu time spent up to now is      620.1 secs

     total energy              =   -2069.44887610 Ry
     estimated scf accuracy    <       0.00806440 Ry

     iteration #  3     ecut=   120.00 Ry     beta= 0.70
     Davidson diagonalization with overlap
     ethr =  4.77E-07,  avg # of iterations =  5.0

     negative rho (up, down):  1.054E+00 0.000E+00

     total cpu time spent up to now is      633.3 secs

     total energy              =   -2069.44947313 Ry
     estimated scf accuracy    <       0.01008287 Ry

     iteration #  4     ecut=   120.00 Ry     beta= 0.70
     Davidson diagonalization with overlap
     ethr =  4.77E-07,  avg # of iterations =  5.0

     negative rho (up, down):  1.054E+00 0.000E+00

     total cpu time spent up to now is      643.9 secs

     total energy              =   -2069.45009877 Ry
     estimated scf accuracy    <       0.00039084 Ry

     iteration #  5     ecut=   120.00 Ry     beta= 0.70
     Davidson diagonalization with overlap
     ethr =  1.95E-07,  avg # of iterations =  3.0

     negative rho (up, down):  1.054E+00 0.000E+00

     total cpu time spent up to now is      651.7 secs

     total energy              =   -2069.45009988 Ry
     estimated scf accuracy    <       0.00087217 Ry

     iteration #  6     ecut=   120.00 Ry     beta= 0.70
     Davidson diagonalization with overlap
     ethr =  1.95E-07,  avg # of iterations =  2.0

     negative rho (up, down):  1.054E+00 0.000E+00

     total cpu time spent up to now is      659.0 secs

     total energy              =   -2069.45015847 Ry
     estimated scf accuracy    <       0.00025331 Ry

     iteration #  7     ecut=   120.00 Ry     beta= 0.70
     Davidson diagonalization with overlap
     ethr =  1.27E-07,  avg # of iterations =  1.0

     negative rho (up, down):  1.054E+00 0.000E+00

     total cpu time spent up to now is      665.6 secs

     total energy              =   -2069.45017783 Ry
     estimated scf accuracy    <       0.00000760 Ry

     iteration #  8     ecut=   120.00 Ry     beta= 0.70
     Davidson diagonalization with overlap
     ethr =  3.80E-09,  avg # of iterations =  5.0

     negative rho (up, down):  1.054E+00 0.000E+00

     total cpu time spent up to now is      673.4 secs

     total energy              =   -2069.45017881 Ry
     estimated scf accuracy    <       0.00000909 Ry

     iteration #  9     ecut=   120.00 Ry     beta= 0.70
     Davidson diagonalization with overlap
     ethr =  3.80E-09,  avg # of iterations =  3.0

     negative rho (up, down):  1.054E+00 0.000E+00

     total cpu time spent up to now is      680.7 secs

     total energy              =   -2069.45017925 Ry
     estimated scf accuracy    <       0.00001304 Ry

     iteration # 10     ecut=   120.00 Ry     beta= 0.70
     Davidson diagonalization with overlap
     ethr =  3.80E-09,  avg # of iterations =  2.0

     negative rho (up, down):  1.054E+00 0.000E+00

     total cpu time spent up to now is      687.9 secs

     total energy              =   -2069.45017995 Ry
     estimated scf accuracy    <       0.00000180 Ry

     iteration # 11     ecut=   120.00 Ry     beta= 0.70
     Davidson diagonalization with overlap
     ethr =  9.01E-10,  avg # of iterations =  2.0

     negative rho (up, down):  1.054E+00 0.000E+00

     total cpu time spent up to now is      695.2 secs

     total energy              =   -2069.45018017 Ry
     estimated scf accuracy    <       0.00000024 Ry

     iteration # 12     ecut=   120.00 Ry     beta= 0.70
     Davidson diagonalization with overlap
     ethr =  1.20E-10,  avg # of iterations =  3.0

     negative rho (up, down):  1.054E+00 0.000E+00

     total cpu time spent up to now is      702.6 secs

     End of self-consistent calculation

          k = 0.0000 0.0000 0.0000 ( 29557 PWs)   bands (ev):

   -39.0840 -39.0788 -39.0757 -39.0718 -32.5843 -32.5805 -32.5713 -32.5659
   -26.2043 -26.1777 -26.1751 -26.1669 -19.6478 -19.6436 -19.6201 -19.5866
    -6.4690  -6.4305  -6.4288  -6.3891  -6.2379  -6.2199  -6.2075  -6.1445
    -6.0764  -6.0690  -5.9968  -5.9131  -3.3498  -3.2301  -3.1012  -3.0897
    -2.9354  -2.8325  -2.8246  -2.7567  -2.6536  -2.6468  -2.5143  -2.4672
    -2.3401  -2.2872  -2.0120  -1.8722  -1.7416  -1.6871  -1.6178  -1.3915
    -1.3047  -1.1926  -0.9456  -0.8488   1.5496   1.6097   1.8592   1.9655
     2.0112   2.1210   2.2400   2.2684   2.3431   2.3887   2.4073   2.4541
    20.2885  20.7266  21.1989  21.4271  22.0276  22.1464  22.1574  23.0899
    23.4730  23.5096  23.5133  23.8556  23.9594  24.1152  24.1686  24.3696
    24.4068  24.4355  24.4412  24.4977  24.9995  25.4147  26.2637  26.3815
    26.6370  26.7701  26.7878  26.8442  26.8805  26.9070  26.9825  27.0185
    27.0313  27.0777  27.1177  27.1221  27.2759  27.3139  27.3144  28.2030
    28.2088  28.2310  29.2682  29.3257  29.4022  29.5865  29.7635  29.8028
    30.6912  31.1699  31.1872  31.3830  31.4964  31.5087  31.5282  31.6314

     the Fermi energy is    27.2551 ev

!    total energy              =   -2069.45018017 Ry
     estimated scf accuracy    <       0.00000004 Ry
     smearing contrib. (-TS)   =      -0.09422318 Ry
     internal energy E=F+TS    =   -2069.35595699 Ry

     The total energy is F=E-TS. E is the sum of the following terms:
     one-electron contribution =      65.75374415 Ry
     hartree contribution      =     146.34613839 Ry
     xc contribution           =    -627.45482355 Ry
     ewald contribution        =   -1654.00101599 Ry

     convergence has been achieved in  12 iterations

     negative rho (up, down):  1.054E+00 0.000E+00

     Forces acting on atoms (cartesian axes, Ry/au):

     atom    1 type  1   force =     0.00321407    0.00338311   -0.00184331
     atom    2 type  2   force =    -0.00355629   -0.00160327   -0.00894972
     atom    3 type  3   force =     0.00098446    0.00253916    0.00926309
     atom    4 type  4   force =    -0.00076504   -0.00424948    0.00154963
     atom    5 type  1   force =     0.00318032    0.00358292   -0.00183454
     atom    6 type  2   force =    -0.00358286   -0.00170950   -0.00894686
     atom    7 type  3   force =     0.00099174    0.00265908    0.00923912
     atom    8 type  4   force =    -0.00073838   -0.00459058    0.00155772
     atom    9 type  1   force =     0.00330762    0.00336724   -0.00188015
     atom   10 type  2   force =    -0.00349603   -0.00163339   -0.00894566
     atom   11 type  3   force =     0.00084127    0.00252447    0.00924450
     atom   12 type  4   force =    -0.00053149   -0.00420582    0.00155773
     atom   13 type  1   force =     0.00333039    0.00360318   -0.00186721
     atom   14 type  2   force =    -0.00347539   -0.00169632   -0.00893919
     atom   15 type  3   force =     0.00085290    0.00266710    0.00923299
     atom   16 type  4   force =    -0.00055731   -0.00463791    0.00156185
     The non-local contrib.  to forces
     atom    1 type  1   force =    -0.00465567   -0.00595754    0.01646714
     atom    2 type  2   force =    -0.00124407   -0.00692466   -0.02082697
     atom    3 type  3   force =     0.00098974   -0.00099702   -0.00545632
     atom    4 type  4   force =     0.00756021    0.00956609    0.00200546
     atom    5 type  1   force =    -0.00462976   -0.00604570    0.01642609
     atom    6 type  2   force =    -0.00120546   -0.00658708   -0.02080383
     atom    7 type  3   force =     0.00105497   -0.00103369   -0.00539534
     atom    8 type  4   force =     0.00755183    0.00953948    0.00201074
     atom    9 type  1   force =    -0.00471380   -0.00599156    0.01645457
     atom   10 type  2   force =    -0.00144370   -0.00691656   -0.02077549
     atom   11 type  3   force =     0.00059908   -0.00100868   -0.00544018
     atom   12 type  4   force =     0.00678954    0.00956793    0.00199592
     atom   13 type  1   force =    -0.00470879   -0.00603856    0.01640845
     atom   14 type  2   force =    -0.00147917   -0.00658676   -0.02075359
     atom   15 type  3   force =     0.00054047   -0.00108310   -0.00539990
     atom   16 type  4   force =     0.00679291    0.00954373    0.00200217
     The ionic contribution  to forces
     atom    1 type  1   force =     0.06775236    0.09520221   -0.08475122
     atom    2 type  2   force =    -0.07860117   -0.00110893    0.29225179
     atom    3 type  3   force =     0.03417475    0.00174579    0.08931165
     atom    4 type  4   force =    -0.03967824   -0.09125516   -0.29669955
     atom    5 type  1   force =     0.06696015    0.10398673   -0.08432413
     atom    6 type  2   force =    -0.07946963   -0.01325433    0.29165418
     atom    7 type  3   force =     0.03313479    0.00894443    0.08876316
     atom    8 type  4   force =    -0.03952155   -0.10454435   -0.29614729
     atom    9 type  1   force =     0.07286555    0.09543257   -0.08497834
     atom   10 type  2   force =    -0.07399947   -0.00214817    0.29212203
     atom   11 type  3   force =     0.04800239    0.00140468    0.08917924
     atom   12 type  4   force =    -0.03037091   -0.09050536   -0.29643076
     atom   13 type  1   force =     0.07330704    0.10403412   -0.08448482
     atom   14 type  2   force =    -0.07326604   -0.01243957    0.29153847
     atom   15 type  3   force =     0.04917896    0.00985461    0.08891228
     atom   16 type  4   force =    -0.03046896   -0.10534927   -0.29591671
     The local contribution  to forces
     atom    1 type  1   force =    -0.05872314   -0.08458542    0.06266085
     atom    2 type  2   force =     0.07622977    0.00643621   -0.28011375
     atom    3 type  3   force =    -0.03436367    0.00022033   -0.07282837
     atom    4 type  4   force =     0.03148876    0.07821993    0.29581595
     atom    5 type  1   force =    -0.05805811   -0.09303100    0.06228982
     atom    6 type  2   force =     0.07714110    0.01777726   -0.27953909
     atom    7 type  3   force =    -0.03316181   -0.00657007   -0.07236911
     atom    8 type  4   force =     0.03145055    0.09073145    0.29526846
     atom    9 type  1   force =    -0.06358867   -0.08487978    0.06286266
     atom   10 type  2   force =     0.07217893    0.00765198   -0.28002534
     atom   11 type  3   force =    -0.04754643    0.00066754   -0.07273561
     atom   12 type  4   force =     0.02336393    0.07757073    0.29556662
     atom   13 type  1   force =    -0.06396093   -0.09297902    0.06243473
     atom   14 type  2   force =     0.07140424    0.01676056   -0.27946171
     atom   15 type  3   force =    -0.04886284   -0.00751221   -0.07252307
     atom   16 type  4   force =     0.02334404    0.09141767    0.29505315
     The core correction contribution to forces
     atom    1 type  1   force =    -0.00116619   -0.00140201    0.00381116
     atom    2 type  2   force =    -0.00003569    0.00030120   -0.00029871
     atom    3 type  3   force =    -0.00003776    0.00131530   -0.00178052
     atom    4 type  4   force =    -0.00030170   -0.00044552    0.00045162
     atom    5 type  1   force =    -0.00116066   -0.00140152    0.00380419
     atom    6 type  2   force =    -0.00003738    0.00028929   -0.00029842
     atom    7 type  3   force =    -0.00004068    0.00132470   -0.00177359
     atom    8 type  4   force =    -0.00030049   -0.00044693    0.00045075
     atom    9 type  1   force =    -0.00117525   -0.00140162    0.00380855
     atom   10 type  2   force =    -0.00002653    0.00030075   -0.00030052
     atom   11 type  3   force =    -0.00008548    0.00131454   -0.00177628
     atom   12 type  4   force =    -0.00026009   -0.00044481    0.00045169
     atom   13 type  1   force =    -0.00117616   -0.00140514    0.00380107
     atom   14 type  2   force =    -0.00002493    0.00028925   -0.00030007
     atom   15 type  3   force =    -0.00008195    0.00131671   -0.00177208
     atom   16 type  4   force =    -0.00026120   -0.00044831    0.00045077
     The Hubbard contrib.    to forces
     atom    1 type  1   force =     0.00000000    0.00000000    0.00000000
     atom    2 type  2   force =     0.00000000    0.00000000    0.00000000
     atom    3 type  3   force =     0.00000000    0.00000000    0.00000000
     atom    4 type  4   force =     0.00000000    0.00000000    0.00000000
     atom    5 type  1   force =     0.00000000    0.00000000    0.00000000
     atom    6 type  2   force =     0.00000000    0.00000000    0.00000000
     atom    7 type  3   force =     0.00000000    0.00000000    0.00000000
     atom    8 type  4   force =     0.00000000    0.00000000    0.00000000
     atom    9 type  1   force =     0.00000000    0.00000000    0.00000000
     atom   10 type  2   force =     0.00000000    0.00000000    0.00000000
     atom   11 type  3   force =     0.00000000    0.00000000    0.00000000
     atom   12 type  4   force =     0.00000000    0.00000000    0.00000000
     atom   13 type  1   force =     0.00000000    0.00000000    0.00000000
     atom   14 type  2   force =     0.00000000    0.00000000    0.00000000
     atom   15 type  3   force =     0.00000000    0.00000000    0.00000000
     atom   16 type  4   force =     0.00000000    0.00000000    0.00000000
     The SCF correction term to forces
     atom    1 type  1   force =     0.00000406    0.00012214   -0.00002927
     atom    2 type  2   force =     0.00009223   -0.00031081    0.00003988
     atom    3 type  3   force =     0.00021875    0.00025104    0.00001861
     atom    4 type  4   force =     0.00016327   -0.00033855   -0.00002187
     atom    5 type  1   force =     0.00006606    0.00007069   -0.00002855
     atom    6 type  2   force =    -0.00001413    0.00006164    0.00004227
     atom    7 type  3   force =     0.00000181   -0.00001002    0.00001597
     atom    8 type  4   force =     0.00007863    0.00012604   -0.00002297
     atom    9 type  1   force =    -0.00008286    0.00020391   -0.00002564
     atom   10 type  2   force =    -0.00020790   -0.00052512    0.00003562
     atom   11 type  3   force =    -0.00013095    0.00014267    0.00001930
     atom   12 type  4   force =    -0.00005659   -0.00039804   -0.00002377
[...]
     ethr =  1.00E-06,  avg # of iterations =  3.0

     Threshold (ethr) on eigenvalues was too large:
     Diagonalizing with lowered threshold

     Davidson diagonalization with overlap
     ethr =  3.28E-08,  avg # of iterations =  4.0

     negative rho (up, down):  1.054E+00 0.000E+00

     total cpu time spent up to now is     3177.7 secs

     total energy              =   -2069.46517768 Ry
     estimated scf accuracy    <       0.00006285 Ry

     iteration #  2     ecut=   120.00 Ry     beta= 0.70
     Davidson diagonalization with overlap
     ethr =  3.14E-08,  avg # of iterations =  5.0

     negative rho (up, down):  1.054E+00 0.000E+00

     total cpu time spent up to now is     3187.9 secs

     total energy              =   -2069.46507784 Ry
     estimated scf accuracy    <       0.00121187 Ry

     iteration #  3     ecut=   120.00 Ry     beta= 0.70
     Davidson diagonalization with overlap
     ethr =  3.14E-08,  avg # of iterations =  5.0

     negative rho (up, down):  1.054E+00 0.000E+00

     total cpu time spent up to now is     3197.8 secs

     total energy              =   -2069.46517078 Ry
     estimated scf accuracy    <       0.00058408 Ry

     iteration #  4     ecut=   120.00 Ry     beta= 0.70
     Davidson diagonalization with overlap
     ethr =  3.14E-08,  avg # of iterations =  4.0

     negative rho (up, down):  1.054E+00 0.000E+00

     total cpu time spent up to now is     3207.0 secs

     total energy              =   -2069.46521118 Ry
     estimated scf accuracy    <       0.00000742 Ry

     iteration #  5     ecut=   120.00 Ry     beta= 0.70
     Davidson diagonalization with overlap
     ethr =  3.71E-09,  avg # of iterations =  5.0

     negative rho (up, down):  1.054E+00 0.000E+00

     total cpu time spent up to now is     3216.8 secs

     total energy              =   -2069.46521068 Ry
     estimated scf accuracy    <       0.00002552 Ry

     iteration #  6     ecut=   120.00 Ry     beta= 0.70
     Davidson diagonalization with overlap
     ethr =  3.71E-09,  avg # of iterations =  3.0

     negative rho (up, down):  1.054E+00 0.000E+00

     total cpu time spent up to now is     3228.8 secs

     total energy              =   -2069.46521264 Ry
     estimated scf accuracy    <       0.00000547 Ry

     iteration #  7     ecut=   120.00 Ry     beta= 0.70
     Davidson diagonalization with overlap
     ethr =  2.74E-09,  avg # of iterations =  2.0

     negative rho (up, down):  1.054E+00 0.000E+00

     total cpu time spent up to now is     3240.7 secs

     total energy              =   -2069.46521308 Ry
     estimated scf accuracy    <       0.00000039 Ry

     iteration #  8     ecut=   120.00 Ry     beta= 0.70
     Davidson diagonalization with overlap
     ethr =  1.93E-10,  avg # of iterations =  5.0

     negative rho (up, down):  1.054E+00 0.000E+00

     total cpu time spent up to now is     3253.7 secs

     total energy              =   -2069.46521312 Ry
     estimated scf accuracy    <       0.00000070 Ry

     iteration #  9     ecut=   120.00 Ry     beta= 0.70
     Davidson diagonalization with overlap
     ethr =  1.93E-10,  avg # of iterations =  3.0

     negative rho (up, down):  1.054E+00 0.000E+00

     total cpu time spent up to now is     3266.1 secs

     total energy              =   -2069.46521316 Ry
     estimated scf accuracy    <       0.00000062 Ry

     iteration # 10     ecut=   120.00 Ry     beta= 0.70
     Davidson diagonalization with overlap
     ethr =  1.93E-10,  avg # of iterations =  2.0

     negative rho (up, down):  1.054E+00 0.000E+00

     total cpu time spent up to now is     3278.2 secs

     total energy              =   -2069.46521320 Ry
     estimated scf accuracy    <       0.00000005 Ry

     iteration # 11     ecut=   120.00 Ry     beta= 0.70
     Davidson diagonalization with overlap
     ethr =  2.62E-11,  avg # of iterations =  3.0

     negative rho (up, down):  1.054E+00 0.000E+00

     total cpu time spent up to now is     3290.8 secs

     total energy              =   -2069.46521320 Ry
     estimated scf accuracy    <       0.00000003 Ry

     iteration # 12     ecut=   120.00 Ry     beta= 0.70
     Davidson diagonalization with overlap
     ethr =  1.35E-11,  avg # of iterations =  3.0

     negative rho (up, down):  1.054E+00 0.000E+00

     total cpu time spent up to now is     3303.6 secs

     total energy              =   -2069.46521320 Ry
     estimated scf accuracy    <       0.00000005 Ry

     iteration # 13     ecut=   120.00 Ry     beta= 0.70
     Davidson diagonalization with overlap
     ethr =  1.35E-11,  avg # of iterations =  2.0

     negative rho (up, down):  1.054E+00 0.000E+00

     total cpu time spent up to now is     3315.9 secs

     End of self-consistent calculation

          k = 0.0000 0.0000 0.0000 ( 29557 PWs)   bands (ev):

   -39.0631 -39.0580 -39.0546 -39.0508 -32.5761 -32.5709 -32.5627 -32.5561
   -26.2424 -26.2143 -26.2129 -26.2026 -19.7349 -19.7307 -19.7031 -19.6703
    -6.4404  -6.4066  -6.3969  -6.3536  -6.2258  -6.2084  -6.1830  -6.1181
    -6.0801  -6.0539  -6.0195  -5.9328  -3.3685  -3.2594  -3.1316  -3.1093
    -3.0007  -2.8867  -2.8744  -2.8706  -2.7838  -2.7113  -2.4662  -2.4116
    -2.3865  -2.3388  -1.9796  -1.8676  -1.7396  -1.6125  -1.5929  -1.3686
    -1.2983  -1.1803  -0.9544  -0.8488   1.5102   1.5374   1.8102   1.8903
     1.9546   2.0631   2.1544   2.2142   2.2710   2.3163   2.3479   2.3660
    20.3032  20.7527  21.1836  21.4486  22.0219  22.1769  22.2124  23.1159
    23.4003  23.4988  23.5227  23.7649  23.8651  24.0838  24.1507  24.2962
    24.3144  24.3837  24.3926  24.4602  25.0436  25.3401  26.1354  26.4690
    26.6118  26.6715  26.7227  26.7440  26.7773  26.8885  26.8924  27.0210
    27.0876  27.1198  27.2039  27.2345  27.3053  27.3921  27.7688  28.1138
    28.1863  28.2485  29.2440  29.2903  29.4519  29.5641  29.7851  29.8262
    30.5103  30.8705  31.1776  31.4050  31.4679  31.4986  31.5591  31.5889

     the Fermi energy is    27.3356 ev

!    total energy              =   -2069.46521320 Ry
     estimated scf accuracy    <          6.6E-09 Ry
     smearing contrib. (-TS)   =      -0.06852393 Ry
     internal energy E=F+TS    =   -2069.39668927 Ry

     The total energy is F=E-TS. E is the sum of the following terms:
     one-electron contribution =      64.70971913 Ry
     hartree contribution      =     146.70916766 Ry
     xc contribution           =    -627.46170662 Ry
     ewald contribution        =   -1653.35386944 Ry

     convergence has been achieved in  13 iterations

     negative rho (up, down):  1.054E+00 0.000E+00

     Forces acting on atoms (cartesian axes, Ry/au):

     atom    1 type  1   force =     0.00009814    0.00014077   -0.00003896
     atom    2 type  2   force =    -0.00018068    0.00013926   -0.00007641
     atom    3 type  3   force =     0.00017998   -0.00007139   -0.00016444
     atom    4 type  4   force =    -0.00001020   -0.00010271    0.00020680
     atom    5 type  1   force =     0.00012743    0.00011568   -0.00003888
     atom    6 type  2   force =    -0.00017348    0.00010817   -0.00003080
     atom    7 type  3   force =     0.00016940   -0.00015467   -0.00016600
     atom    8 type  4   force =    -0.00005358   -0.00017808    0.00023178
     atom    9 type  1   force =     0.00018510    0.00015180   -0.00003498
     atom   10 type  2   force =    -0.00014854    0.00013033    0.00002801
     atom   11 type  3   force =    -0.00003045   -0.00006705   -0.00016719
     atom   12 type  4   force =    -0.00009467   -0.00013127    0.00019815
     atom   13 type  1   force =     0.00015274    0.00010085   -0.00003626
     atom   14 type  2   force =    -0.00015262    0.00011941    0.00005119
     atom   15 type  3   force =    -0.00001308   -0.00015546   -0.00018445
     atom   16 type  4   force =    -0.00005548   -0.00014566    0.00022242
     The non-local contrib.  to forces
     atom    1 type  1   force =    -0.00009516   -0.00023640    0.04387509
     atom    2 type  2   force =     0.00005287   -0.00015040   -0.07856637
     atom    3 type  3   force =     0.00183050   -0.00010657    0.04115116
     atom    4 type  4   force =     0.00235859    0.00020769    0.00506384
     atom    5 type  1   force =    -0.00016663   -0.00024259    0.04387864
     atom    6 type  2   force =     0.00005976   -0.00009006   -0.07879226
     atom    7 type  3   force =     0.00183105   -0.00012614    0.04109255
     atom    8 type  4   force =     0.00237988    0.00022875    0.00489734
     atom    9 type  1   force =    -0.00011710   -0.00035232    0.04212612
     atom   10 type  2   force =    -0.00001686   -0.00015104   -0.07620332
     atom   11 type  3   force =    -0.00169283   -0.00013994    0.04155756
     atom   12 type  4   force =    -0.00212418    0.00023173    0.00487704
     atom   13 type  1   force =    -0.00004720   -0.00012069    0.04212435
     atom   14 type  2   force =    -0.00002559   -0.00008940   -0.07646279
     atom   15 type  3   force =    -0.00169973   -0.00013688    0.04152862
     atom   16 type  4   force =    -0.00214382    0.00020509    0.00471416
     The ionic contribution  to forces
     atom    1 type  1   force =     0.00084330    0.00247309   -0.07552084
     atom    2 type  2   force =    -0.00431393    0.00353026    1.47918998
     atom    3 type  3   force =    -0.05931437   -0.00233126   -0.32603591
     atom    4 type  4   force =    -0.02292280   -0.00012914   -1.07893677
     atom    5 type  1   force =     0.00240409    0.00188465   -0.07556595
     atom    6 type  2   force =    -0.00418077    0.00173371    1.48059738
     atom    7 type  3   force =    -0.05956381   -0.00320974   -0.32553241
     atom    8 type  4   force =    -0.02493863   -0.00411956   -1.07806734
     atom    9 type  1   force =     0.00276104    0.00444117   -0.05605595
     atom   10 type  2   force =    -0.00092077    0.00325773    1.45864181
     atom   11 type  3   force =     0.06235741   -0.00195678   -0.32901630
     atom   12 type  4   force =     0.02146816   -0.00158838   -1.07464290
     atom   13 type  1   force =     0.00118074   -0.00017829   -0.05610411
     atom   14 type  2   force =    -0.00100050    0.00202557    1.45963625
     atom   15 type  3   force =     0.06273143   -0.00315480   -0.32880655
     atom   16 type  4   force =     0.02340942   -0.00267823   -1.07378040
     The local contribution  to forces
     atom    1 type  1   force =    -0.00058682   -0.00190021    0.02202719
     atom    2 type  2   force =     0.00407200   -0.00334638   -1.39973752
     atom    3 type  3   force =     0.05758311    0.00241201    0.28659183
     atom    4 type  4   force =     0.02060829   -0.00032860    1.07249710
     atom    5 type  1   force =    -0.00216222   -0.00162277    0.02206977
     atom    6 type  2   force =     0.00393252   -0.00146760   -1.40086499
     atom    7 type  3   force =     0.05780604    0.00309595    0.28614544
     atom    8 type  4   force =     0.02275102    0.00386458    1.07180152
     atom    9 type  1   force =    -0.00248749   -0.00390831    0.00465358
     atom   10 type  2   force =     0.00080252   -0.00310003   -1.38136195
     atom   11 type  3   force =    -0.06059913    0.00206966    0.28910709
     atom   12 type  4   force =    -0.01948048    0.00120653    1.06837718
     atom   13 type  1   force =    -0.00089669    0.00047019    0.00470313
     atom   14 type  2   force =     0.00089383   -0.00173032   -1.38208025
     atom   15 type  3   force =    -0.06092945    0.00306078    0.28890692
     atom   16 type  4   force =    -0.02155529    0.00235232    1.06768563
     The core correction contribution to forces
     atom    1 type  1   force =    -0.00001766   -0.00004497    0.00958128
     atom    2 type  2   force =    -0.00000410    0.00001126   -0.00097727
     atom    3 type  3   force =     0.00012541    0.00003570   -0.00186504
     atom    4 type  4   force =    -0.00011734   -0.00000996    0.00158907
     atom    5 type  1   force =    -0.00002047   -0.00004003    0.00958173
     atom    6 type  2   force =    -0.00000443    0.00000936   -0.00096813
     atom    7 type  3   force =     0.00012468    0.00002183   -0.00186755
     atom    8 type  4   force =    -0.00011640   -0.00000867    0.00159626
     atom    9 type  1   force =    -0.00001793   -0.00005453    0.00924054
     atom   10 type  2   force =    -0.00000375    0.00001124   -0.00105343
     atom   11 type  3   force =    -0.00013888    0.00003313   -0.00180834
     atom   12 type  4   force =     0.00010784   -0.00000994    0.00159292
     atom   13 type  1   force =    -0.00001515   -0.00003001    0.00924050
     atom   14 type  2   force =    -0.00000334    0.00000936   -0.00104251
     atom   15 type  3   force =    -0.00013911    0.00001851   -0.00181072
     atom   16 type  4   force =     0.00010683   -0.00000881    0.00159986
     The Hubbard contrib.    to forces
     atom    1 type  1   force =     0.00000000    0.00000000    0.00000000
     atom    2 type  2   force =     0.00000000    0.00000000    0.00000000
     atom    3 type  3   force =     0.00000000    0.00000000    0.00000000
     atom    4 type  4   force =     0.00000000    0.00000000    0.00000000
     atom    5 type  1   force =     0.00000000    0.00000000    0.00000000
     atom    6 type  2   force =     0.00000000    0.00000000    0.00000000
     atom    7 type  3   force =     0.00000000    0.00000000    0.00000000
     atom    8 type  4   force =     0.00000000    0.00000000    0.00000000
     atom    9 type  1   force =     0.00000000    0.00000000    0.00000000
     atom   10 type  2   force =     0.00000000    0.00000000    0.00000000
     atom   11 type  3   force =     0.00000000    0.00000000    0.00000000
     atom   12 type  4   force =     0.00000000    0.00000000    0.00000000
     atom   13 type  1   force =     0.00000000    0.00000000    0.00000000
     atom   14 type  2   force =     0.00000000    0.00000000    0.00000000
     atom   15 type  3   force =     0.00000000    0.00000000    0.00000000
     atom   16 type  4   force =     0.00000000    0.00000000    0.00000000
     The SCF correction term to forces
     atom    1 type  1   force =    -0.00004545   -0.00015041   -0.00000144
     atom    2 type  2   force =     0.00001256    0.00009486    0.00001502
     atom    3 type  3   force =    -0.00004461   -0.00008093   -0.00000623
     atom    4 type  4   force =     0.00006313    0.00015763   -0.00000619
     atom    5 type  1   force =     0.00007273    0.00013676   -0.00000282
     atom    6 type  2   force =     0.00001951   -0.00007689   -0.00000255
     atom    7 type  3   force =    -0.00002849    0.00006377   -0.00000379
     atom    8 type  4   force =    -0.00012937   -0.00014283    0.00000425
     atom    9 type  1   force =     0.00004666    0.00002614    0.00000098
     atom   10 type  2   force =    -0.00000961    0.00011277    0.00000515
     atom   11 type  3   force =     0.00004305   -0.00007278   -0.00000696
     atom   12 type  4   force =    -0.00006594    0.00002914   -0.00000584
     atom   13 type  1   force =    -0.00006890   -0.00004002    0.00000012
     atom   14 type  2   force =    -0.00001694   -0.00009546    0.00000073
     atom   15 type  3   force =     0.00002385    0.00005727   -0.00000248
     atom   16 type  4   force =     0.00012744   -0.00001569    0.00000342

     Total force =     0.000924     Total SCF correction =     0.000456
     SCF correction compared to forces is large: reduce conv_thr to get better values


     Computing stress (Cartesian axis) and pressure


     negative rho (up, down):  1.054E+00 0.000E+00
          total   stress  (Ry/bohr**3)                   (kbar)     P=     1556.19
   0.01224168  -0.00000000  -0.00000019         1800.81       -0.00       -0.03
  -0.00000000   0.01210900   0.00000078           -0.00     1781.30        0.11
  -0.00000019   0.00000078   0.00738566           -0.03        0.11     1086.47

     Energy error            =      1.9E-05 Ry
     Gradient error          =      2.3E-04 Ry/Bohr

     bfgs converged in  21 scf cycles and  18 bfgs steps
     (criteria: energy <  1.0E-04 Ry, force <  1.0E-03 Ry/Bohr)

     End of BFGS Geometry Optimization

     Final energy             =   -2069.4652131994 Ry

     File outdir/pwscf.bfgs deleted, as requested
Begin final coordinates

ATOMIC_POSITIONS (angstrom)
Hf            0.9173507110        0.9173135972        0.8943342515
Nb            0.9176900085        2.7523320100        2.6740055964
Ta            2.7538208285        0.9176860149        2.8117589864
Zr            2.7522059512        2.7526418480        0.9600262834
Hf            0.9173105916        4.5873364617        0.8943216180
Nb            0.9176950052        6.4223291151        2.6738424079
Ta            2.7538243094        4.5876680102        2.8117317565
Zr            2.7522395759        6.4227147098        0.9598930200
Hf            4.5873495791        0.9172816749        0.8940614729
Nb            4.5876207816        2.7523359852        2.6744893316
Ta            6.4210161579        0.9176597836        2.8117817305
Zr            6.4229515852        2.7526427058        0.9598553479
Hf            4.5873841500        4.5873764414        0.8940505161
Nb            4.5876157176        6.4223321265        2.6743623911
Ta            6.4210034632        4.5876595310        2.8117610448
Zr            6.4229215841        6.4226899848        0.9597242450
End final coordinates



     Writing all to output data dir outdir/pwscf.save/

     init_run     :      5.31s CPU      5.85s WALL (       1 calls)
     electrons    :   2512.06s CPU   2785.83s WALL (      21 calls)
     update_pot   :     11.72s CPU     11.95s WALL (      20 calls)
     forces       :    115.82s CPU    125.18s WALL (      21 calls)
     stress       :    348.16s CPU    376.72s WALL (      21 calls)

     Called by init_run:
     wfcinit      :      2.40s CPU      2.46s WALL (       1 calls)
     potinit      :      0.47s CPU      0.53s WALL (       1 calls)
     hinit0       :      1.01s CPU      1.07s WALL (       1 calls)

     Called by electrons:
     c_bands      :   1405.52s CPU   1424.69s WALL (     286 calls)
     sum_band     :    616.27s CPU    752.22s WALL (     286 calls)
     v_of_rho     :     28.55s CPU     29.84s WALL (     301 calls)
     newd         :    490.21s CPU    616.18s WALL (     301 calls)
     mix_rho      :      4.07s CPU      4.34s WALL (     286 calls)

     Called by c_bands:
     init_us_2    :      2.74s CPU      2.78s WALL (     573 calls)
     init_us_2:cp :      2.73s CPU      2.78s WALL (     573 calls)
     cegterg      :   1386.25s CPU   1405.33s WALL (     286 calls)

     Called by *egterg:
     cdiaghg      :     62.49s CPU     62.61s WALL (    1279 calls)
     h_psi        :    572.89s CPU    590.33s WALL (    1306 calls)
     s_psi        :    187.57s CPU    187.82s WALL (    1306 calls)
     g_psi        :      0.65s CPU      0.66s WALL (    1019 calls)

     Called by h_psi:
     h_psi:calbec :    215.15s CPU    215.88s WALL (    1306 calls)
     vloc_psi     :    168.64s CPU    185.10s WALL (    1306 calls)
     add_vuspsi   :    187.99s CPU    188.23s WALL (    1306 calls)

     General routines
     calbec       :    335.26s CPU    336.32s WALL (    1697 calls)
     fft          :     58.67s CPU     60.51s WALL (    4422 calls)
     ffts         :      1.18s CPU      1.28s WALL (     587 calls)
     fftw         :    166.60s CPU    182.82s WALL (  204982 calls)
     interpolate  :      2.19s CPU      2.38s WALL (     301 calls)

     Parallel routines

     PWSCF        :  50m26.79s CPU  55m49.50s WALL


   This run was terminated on:  15:36:36  30May2023            

=------------------------------------------------------------------------------=
   JOB DONE.
=------------------------------------------------------------------------------=
