
     Program PWSCF v.7.2 starts on 28May2023 at 15:46: 2 

     This program is part of the open-source Quantum ESPRESSO suite
     for quantum simulation of materials; please cite
         "P. Giannozzi et al., J. Phys.:Condens. Matter 21 395502 (2009);
         "P. Giannozzi et al., J. Phys.:Condens. Matter 29 465901 (2017);
         "P. Giannozzi et al., J. Chem. Phys. 152 154105 (2020);
          URL http://www.quantum-espresso.org", 
     in publications or presentations arising from this work. More details at
     http://www.quantum-espresso.org/quote

     Parallel version (MPI), running on    12 processors

     MPI processes distributed on     1 nodes
     71365 MiB available memory on the printing compute node when the environment starts

     Reading input from HfNbTaZr_random_32_relax.in
Warning: card &CELL ignored
Warning: card / ignored

     Current dimensions of program PWSCF are:
     Max number of different atomic species (ntypx) = 10
     Max number of k-points (npk) =  40000
     Max angular momentum in pseudopotentials (lmaxx) =  4

     File outdir/pwscf.update deleted, as requested

     File outdir/pwscf.bfgs deleted, as requested

     R & G space division:  proc/nbgrp/npool/nimage =      12
     Subspace diagonalization in iterative solution of the eigenvalue problem:
     one sub-group per band group will be used
     custom distributed-memory algorithm (size of sub-group:  2*  2 procs)


     Parallelization info
     --------------------
     sticks:   dense  smooth     PW     G-vecs:    dense   smooth      PW
     Min        1414    1414    353               138647   138647   17347
     Max        1415    1415    354               138649   138649   17348
     Sum       16977   16977   4237              1663771  1663771  208165

     Using Slab Decomposition



     bravais-lattice index     =            0
     lattice parameter (alat)  =      21.0810  a.u.
     unit-cell volume          =    9368.6152 (a.u.)^3
     number of atoms/cell      =           32
     number of atomic types    =            4
     number of electrons       =       400.00
     number of Kohn-Sham states=          240
     kinetic-energy cutoff     =     120.0000  Ry
     charge density cutoff     =     480.0000  Ry
     scf convergence threshold =      1.0E-06
     mixing beta               =       0.7000
     number of iterations used =            8  plain     mixing
     energy convergence thresh.=      1.0E-04
     force convergence thresh. =      1.0E-03
     Exchange-correlation= SLA  PW   PBE  PBE
                           (   1   4   3   4   0   0   0)
     nstep                     =           50


     celldm(1)=  21.081029  celldm(2)=   0.000000  celldm(3)=   0.000000
     celldm(4)=   0.000000  celldm(5)=   0.000000  celldm(6)=   0.000000

     crystal axes: (cart. coord. in units of alat)
               a(1) = (   1.000000   0.000000   0.000000 )  
               a(2) = (   0.000000   1.000000   0.000000 )  
               a(3) = (   0.000000   0.000000   1.000000 )  

     reciprocal axes: (cart. coord. in units 2 pi/alat)
               b(1) = (  1.000000  0.000000  0.000000 )  
               b(2) = (  0.000000  1.000000  0.000000 )  
               b(3) = (  0.000000  0.000000  1.000000 )  


     PseudoPot. # 1 for Hf read from file:
     q-e/pseudo/hf_pbe_v1.uspp.F.UPF
     MD5 check sum: 8ee9378dfe14276e333edf04c5e4aa26
     Pseudo is Ultrasoft + core correction, Zval = 12.0
     Generated by new atomic code, or converted to UPF format
     Using radial grid of  921 points,  8 beta functions with: 
                l(1) =   0
                l(2) =   0
                l(3) =   0
                l(4) =   1
                l(5) =   1
                l(6) =   2
                l(7) =   2
                l(8) =   3
     Q(r) pseudized with  6 coefficients,  rinner =    1.200   1.200   1.200
                                                       1.200   1.200   1.200
                                                       1.200

     PseudoPot. # 2 for Nb read from file:
     q-e/pseudo/nb_pbe_v1.uspp.F.UPF
     MD5 check sum: 573aab8a2fa660278ed4a62cd769473f
     Pseudo is Ultrasoft + core correction, Zval = 13.0
     Generated by new atomic code, or converted to UPF format
     Using radial grid of  887 points,  6 beta functions with: 
                l(1) =   0
                l(2) =   0
                l(3) =   1
                l(4) =   1
                l(5) =   2
                l(6) =   2
     Q(r) pseudized with  6 coefficients,  rinner =    1.000   1.000   1.000
                                                       1.000   1.000

     PseudoPot. # 3 for Ta read from file:
     q-e/pseudo/ta_pbe_v1.uspp.F.UPF
     MD5 check sum: f8bbe9446314a3b8ea5d9f3e3836c939
     Pseudo is Ultrasoft + core correction, Zval = 13.0
     Generated by new atomic code, or converted to UPF format
     Using radial grid of  921 points,  7 beta functions with: 
                l(1) =   0
                l(2) =   0
                l(3) =   1
                l(4) =   1
                l(5) =   2
                l(6) =   2
                l(7) =   3
     Q(r) pseudized with  6 coefficients,  rinner =    1.300   1.300   1.300
                                                       1.300   1.300   1.300
                                                       1.300

     PseudoPot. # 4 for Zr read from file:
     q-e/pseudo/zr_pbe_v1.uspp.F.UPF
     MD5 check sum: 5db81b1e868ab7776c4564c113de050b
     Pseudo is Ultrasoft + core correction, Zval = 12.0
     Generated by new atomic code, or converted to UPF format
     Using radial grid of  887 points,  6 beta functions with: 
                l(1) =   0
                l(2) =   0
                l(3) =   1
                l(4) =   1
                l(5) =   2
                l(6) =   2
     Q(r) pseudized with  6 coefficients,  rinner =    1.200   1.200   1.200
                                                       1.200   1.200

     atomic species   valence    mass     pseudopotential
        Hf            12.00   178.49000     Hf( 1.00)
        Nb            13.00    92.90637     Nb( 1.00)
        Ta            13.00   180.94788     Ta( 1.00)
        Zr            12.00    91.22400     Zr( 1.00)

     No symmetry found



   Cartesian axes

     site n.     atom                  positions (alat units)
         1           Hf  tau(   1) = (   0.6021841   0.7401496   0.5987659  )
         2           Hf  tau(   2) = (   0.3457312   0.7602467   0.7269909  )
         3           Hf  tau(   3) = (   0.7102504   0.6359687   0.4625493  )
         4           Hf  tau(   4) = (   0.3819752   0.2774294   0.6446932  )
         5           Hf  tau(   5) = (   0.6121656   0.6643797   0.5215232  )
         6           Hf  tau(   6) = (   0.3079383   0.4588335   0.4737406  )
         7           Hf  tau(   7) = (   0.3181249   0.4847011   0.7811467  )
         8           Hf  tau(   8) = (   0.1068564   0.4388044   0.3911479  )
         9           Nb  tau(   9) = (   0.5328144   0.4295765   0.4112228  )
        10           Nb  tau(  10) = (   0.5431869   0.5229166   0.3581047  )
        11           Nb  tau(  11) = (   0.2545975   0.4127686   0.6903333  )
        12           Nb  tau(  12) = (   0.5916990   0.4122541   0.7493320  )
        13           Nb  tau(  13) = (   0.7519389   0.4801576   0.7431143  )
        14           Nb  tau(  14) = (   0.6447371   0.7616473   0.4628178  )
        15           Nb  tau(  15) = (   0.6535658   0.4106833   0.4105944  )
        16           Nb  tau(  16) = (   0.3725202   0.1830512   0.2296083  )
        17           Ta  tau(  17) = (   0.4647573   0.4122518   0.1465935  )
        18           Ta  tau(  18) = (   0.3823538   0.5855813   0.7402336  )
        19           Ta  tau(  19) = (   0.6860250   0.8169488   0.6646291  )
        20           Ta  tau(  20) = (   0.5030217   0.4034359   0.8340777  )
        21           Ta  tau(  21) = (   0.3759150   0.7302880   0.5424825  )
        22           Ta  tau(  22) = (   0.3227716   0.5131749   0.3367459  )
        23           Ta  tau(  23) = (   0.6673051   0.5138872   0.4722841  )
        24           Ta  tau(  24) = (   0.7244559   0.5951280   0.4039179  )
        25           Zr  tau(  25) = (   0.6369992   0.7557793   0.6253791  )
        26           Zr  tau(  26) = (   0.8931436   0.4524145   0.4383010  )
        27           Zr  tau(  27) = (   0.2651719   0.5903265   0.8534065  )
        28           Zr  tau(  28) = (   0.5256515   0.3333210   0.3871773  )
        29           Zr  tau(  29) = (   0.6611305   0.6366362   0.5011795  )
        30           Zr  tau(  30) = (   0.5374898   0.4006501   0.7430359  )
        31           Zr  tau(  31) = (   0.3818596   0.7598388   0.6131218  )
        32           Zr  tau(  32) = (   0.2765233   0.6933055   0.6291954  )

     number of k points=     1  Gaussian smearing, width (Ry)=  0.0220
                       cart. coord. in units 2pi/alat
        k(    1) = (   0.0000000   0.0000000   0.0000000), wk =   2.0000000

     Dense  grid:  1663771 G-vectors     FFT dimensions: ( 150, 150, 150)

     Estimated max dynamical RAM per process >       1.18 GB

     Estimated total dynamical RAM >      14.20 GB

     Check: negative core charge=   -0.000003

     Initial potential from superposition of free atoms

     starting charge     383.9520, renormalised to     400.0000

     negative rho (up, down):  1.384E+00 0.000E+00
     Starting wfcs are  416 randomized atomic wfcs

     total cpu time spent up to now is       91.3 secs

     Self-consistent Calculation

     iteration #  1     ecut=   120.00 Ry     beta= 0.70
     Davidson diagonalization with overlap
     ethr =  1.00E-02,  avg # of iterations =  6.0

     negative rho (up, down):  1.229E+00 0.000E+00

     total cpu time spent up to now is      399.5 secs

     total energy              =   -3417.93234594 Ry
     estimated scf accuracy    <     284.46815464 Ry

     iteration #  2     ecut=   120.00 Ry     beta= 0.70
     Davidson diagonalization with overlap
     ethr =  1.00E-02,  avg # of iterations = 12.0

     negative rho (up, down):  1.180E+00 0.000E+00

     total cpu time spent up to now is      953.8 secs

     total energy              =   -2993.25009128 Ry
     estimated scf accuracy    <    7865.64004080 Ry

     iteration #  3     ecut=   120.00 Ry     beta= 0.70
     Davidson diagonalization with overlap
     ethr =  1.00E-02,  avg # of iterations = 11.0

     negative rho (up, down):  1.193E+00 0.000E+00

     total cpu time spent up to now is     1463.7 secs

     total energy              =   -3583.13877265 Ry
     estimated scf accuracy    <     504.01875672 Ry

     iteration #  4     ecut=   120.00 Ry     beta= 0.70
     Davidson diagonalization with overlap
     ethr =  1.00E-02,  avg # of iterations =  6.0

     negative rho (up, down):  1.207E+00 0.000E+00

     total cpu time spent up to now is     1667.0 secs

     total energy              =   -3614.59410690 Ry
     estimated scf accuracy    <     148.84599732 Ry

     iteration #  5     ecut=   120.00 Ry     beta= 0.70
     Davidson diagonalization with overlap
     ethr =  1.00E-02,  avg # of iterations =  5.0

     negative rho (up, down):  1.217E+00 0.000E+00

     total cpu time spent up to now is     1815.2 secs

     total energy              =   -3623.96174008 Ry
     estimated scf accuracy    <      31.58467967 Ry

     iteration #  6     ecut=   120.00 Ry     beta= 0.70
     Davidson diagonalization with overlap
     ethr =  7.90E-03,  avg # of iterations =  2.0

     negative rho (up, down):  1.231E+00 0.000E+00

     total cpu time spent up to now is     1943.6 secs

     total energy              =   -3625.27403780 Ry
     estimated scf accuracy    <      24.32483866 Ry

     iteration #  7     ecut=   120.00 Ry     beta= 0.70
     Davidson diagonalization with overlap
     ethr =  6.08E-03,  avg # of iterations =  2.0

     negative rho (up, down):  1.239E+00 0.000E+00

     total cpu time spent up to now is     2067.3 secs

     total energy              =   -3626.46458180 Ry
     estimated scf accuracy    <       8.31293063 Ry

     iteration #  8     ecut=   120.00 Ry     beta= 0.70
     Davidson diagonalization with overlap
     ethr =  2.08E-03,  avg # of iterations =  6.0

     negative rho (up, down):  1.243E+00 0.000E+00

     total cpu time spent up to now is     2196.3 secs

     total energy              =   -3626.25326055 Ry
     estimated scf accuracy    <       9.85807328 Ry

     iteration #  9     ecut=   120.00 Ry     beta= 0.70
     Davidson diagonalization with overlap
     ethr =  2.08E-03,  avg # of iterations =  2.0

     negative rho (up, down):  1.254E+00 0.000E+00

     total cpu time spent up to now is     2315.2 secs

     total energy              =   -3626.74959093 Ry
     estimated scf accuracy    <       6.61999647 Ry

     iteration # 10     ecut=   120.00 Ry     beta= 0.70
     Davidson diagonalization with overlap
     ethr =  1.65E-03,  avg # of iterations =  2.0

     negative rho (up, down):  1.266E+00 0.000E+00

     total cpu time spent up to now is     2433.7 secs

     total energy              =   -3626.81606568 Ry
     estimated scf accuracy    <       2.89172331 Ry

     iteration # 11     ecut=   120.00 Ry     beta= 0.70
     Davidson diagonalization with overlap
     ethr =  7.23E-04,  avg # of iterations =  2.0

     negative rho (up, down):  1.268E+00 0.000E+00

     total cpu time spent up to now is     2557.8 secs

     total energy              =   -3626.93385464 Ry
     estimated scf accuracy    <       1.37814430 Ry

     iteration # 12     ecut=   120.00 Ry     beta= 0.70
     Davidson diagonalization with overlap
     ethr =  3.45E-04,  avg # of iterations =  2.0

     negative rho (up, down):  1.269E+00 0.000E+00

     total cpu time spent up to now is     2684.8 secs

     total energy              =   -3626.90262821 Ry
     estimated scf accuracy    <       2.58645077 Ry

     iteration # 13     ecut=   120.00 Ry     beta= 0.70
     Davidson diagonalization with overlap
     ethr =  3.45E-04,  avg # of iterations =  2.0

     negative rho (up, down):  1.270E+00 0.000E+00

     total cpu time spent up to now is     2801.6 secs

     total energy              =   -3627.02558422 Ry
     estimated scf accuracy    <       0.88627633 Ry

     iteration # 14     ecut=   120.00 Ry     beta= 0.70
     Davidson diagonalization with overlap
     ethr =  2.22E-04,  avg # of iterations =  2.0

     negative rho (up, down):  1.270E+00 0.000E+00

     total cpu time spent up to now is     2923.7 secs

     total energy              =   -3627.02991671 Ry
     estimated scf accuracy    <       0.70951887 Ry

     iteration # 15     ecut=   120.00 Ry     beta= 0.70
     Davidson diagonalization with overlap
     ethr =  1.77E-04,  avg # of iterations =  1.0

     negative rho (up, down):  1.270E+00 0.000E+00

     total cpu time spent up to now is     3025.9 secs

     total energy              =   -3627.06408598 Ry
     estimated scf accuracy    <       0.30631036 Ry

     iteration # 16     ecut=   120.00 Ry     beta= 0.70
     Davidson diagonalization with overlap
     ethr =  7.66E-05,  avg # of iterations =  9.0

     negative rho (up, down):  1.270E+00 0.000E+00

     total cpu time spent up to now is     3144.6 secs

     total energy              =   -3627.07648154 Ry
     estimated scf accuracy    <       0.17610139 Ry

     iteration # 17     ecut=   120.00 Ry     beta= 0.70
     Davidson diagonalization with overlap
     ethr =  4.40E-05,  avg # of iterations =  3.0

     negative rho (up, down):  1.271E+00 0.000E+00

     total cpu time spent up to now is     3263.1 secs

     total energy              =   -3627.07660221 Ry
     estimated scf accuracy    <       0.20077489 Ry

     iteration # 18     ecut=   120.00 Ry     beta= 0.70
     Davidson diagonalization with overlap
     ethr =  4.40E-05,  avg # of iterations =  2.0

     negative rho (up, down):  1.271E+00 0.000E+00

     total cpu time spent up to now is     3384.3 secs

     total energy              =   -3627.07886442 Ry
     estimated scf accuracy    <       0.17291281 Ry

     iteration # 19     ecut=   120.00 Ry     beta= 0.70
     Davidson diagonalization with overlap
     ethr =  4.32E-05,  avg # of iterations =  3.0

     negative rho (up, down):  1.271E+00 0.000E+00

     total cpu time spent up to now is     3524.0 secs

     total energy              =   -3627.07833124 Ry
     estimated scf accuracy    <       0.19515697 Ry

     iteration # 20     ecut=   120.00 Ry     beta= 0.70
     Davidson diagonalization with overlap
     ethr =  4.32E-05,  avg # of iterations =  1.0

     negative rho (up, down):  1.271E+00 0.000E+00

     total cpu time spent up to now is     3664.2 secs

     total energy              =   -3627.08693249 Ry
     estimated scf accuracy    <       0.00981140 Ry

     iteration # 21     ecut=   120.00 Ry     beta= 0.70
     Davidson diagonalization with overlap
     ethr =  2.45E-06,  avg # of iterations = 15.0

     negative rho (up, down):  1.271E+00 0.000E+00

     total cpu time spent up to now is     3824.3 secs

     total energy              =   -3627.08584964 Ry
     estimated scf accuracy    <       0.03215495 Ry

     iteration # 22     ecut=   120.00 Ry     beta= 0.70
     Davidson diagonalization with overlap
     ethr =  2.45E-06,  avg # of iterations =  3.0

     negative rho (up, down):  1.271E+00 0.000E+00

     total cpu time spent up to now is     3957.5 secs

     total energy              =   -3627.08635740 Ry
     estimated scf accuracy    <       0.02704578 Ry

     iteration # 23     ecut=   120.00 Ry     beta= 0.70
     Davidson diagonalization with overlap
     ethr =  2.45E-06,  avg # of iterations =  2.0

     negative rho (up, down):  1.271E+00 0.000E+00

     total cpu time spent up to now is     4075.1 secs

     total energy              =   -3627.08765871 Ry
     estimated scf accuracy    <       0.00289318 Ry

     iteration # 24     ecut=   120.00 Ry     beta= 0.70
     Davidson diagonalization with overlap
     ethr =  7.23E-07,  avg # of iterations =  2.0

     negative rho (up, down):  1.271E+00 0.000E+00

     total cpu time spent up to now is     4204.3 secs

     total energy              =   -3627.08739322 Ry
     estimated scf accuracy    <       0.01110070 Ry

     iteration # 25     ecut=   120.00 Ry     beta= 0.70
     Davidson diagonalization with overlap
     ethr =  7.23E-07,  avg # of iterations =  2.0

     negative rho (up, down):  1.271E+00 0.000E+00

     total cpu time spent up to now is     4327.5 secs

     total energy              =   -3627.08800544 Ry
     estimated scf accuracy    <       0.00035632 Ry

     iteration # 26     ecut=   120.00 Ry     beta= 0.70
     Davidson diagonalization with overlap
     ethr =  8.91E-08,  avg # of iterations =  2.0

     negative rho (up, down):  1.271E+00 0.000E+00

     total cpu time spent up to now is     4456.3 secs

     total energy              =   -3627.08801006 Ry
     estimated scf accuracy    <       0.00083466 Ry

     iteration # 27     ecut=   120.00 Ry     beta= 0.70
     Davidson diagonalization with overlap
     ethr =  8.91E-08,  avg # of iterations =  2.0

     negative rho (up, down):  1.271E+00 0.000E+00

     total cpu time spent up to now is     4577.0 secs

     total energy              =   -3627.08800730 Ry
     estimated scf accuracy    <       0.00138578 Ry

     iteration # 28     ecut=   120.00 Ry     beta= 0.70
     Davidson diagonalization with overlap
     ethr =  8.91E-08,  avg # of iterations =  2.0

     negative rho (up, down):  1.271E+00 0.000E+00

     total cpu time spent up to now is     4701.0 secs

     total energy              =   -3627.08800189 Ry
     estimated scf accuracy    <       0.00148465 Ry

     iteration # 29     ecut=   120.00 Ry     beta= 0.70
     Davidson diagonalization with overlap
     ethr =  8.91E-08,  avg # of iterations =  2.0

     negative rho (up, down):  1.271E+00 0.000E+00

     total cpu time spent up to now is     4819.0 secs

     total energy              =   -3627.08804549 Ry
     estimated scf accuracy    <       0.00046011 Ry

     iteration # 30     ecut=   120.00 Ry     beta= 0.70
     Davidson diagonalization with overlap
     ethr =  8.91E-08,  avg # of iterations =  1.0

     negative rho (up, down):  1.271E+00 0.000E+00

     total cpu time spent up to now is     4925.3 secs

     total energy              =   -3627.08806104 Ry
     estimated scf accuracy    <       0.00015297 Ry

     iteration # 31     ecut=   120.00 Ry     beta= 0.70
     Davidson diagonalization with overlap
     ethr =  3.82E-08,  avg # of iterations =  1.0

     negative rho (up, down):  1.271E+00 0.000E+00

     total cpu time spent up to now is     5027.9 secs

     total energy              =   -3627.08806594 Ry
     estimated scf accuracy    <       0.00011809 Ry

     iteration # 32     ecut=   120.00 Ry     beta= 0.70
     Davidson diagonalization with overlap
     ethr =  2.95E-08,  avg # of iterations =  1.0

     negative rho (up, down):  1.271E+00 0.000E+00

     total cpu time spent up to now is     5130.5 secs

     total energy              =   -3627.08806737 Ry
     estimated scf accuracy    <       0.00008261 Ry

     iteration # 33     ecut=   120.00 Ry     beta= 0.70
     Davidson diagonalization with overlap
     ethr =  2.07E-08,  avg # of iterations =  2.0

     negative rho (up, down):  1.271E+00 0.000E+00

     total cpu time spent up to now is     5248.0 secs

     total energy              =   -3627.08806819 Ry
     estimated scf accuracy    <       0.00005213 Ry

     iteration # 34     ecut=   120.00 Ry     beta= 0.70
     Davidson diagonalization with overlap
     ethr =  1.30E-08,  avg # of iterations =  2.0

     negative rho (up, down):  1.271E+00 0.000E+00

     total cpu time spent up to now is     5371.2 secs

     total energy              =   -3627.08806685 Ry
     estimated scf accuracy    <       0.00012365 Ry

     iteration # 35     ecut=   120.00 Ry     beta= 0.70
     Davidson diagonalization with overlap
     ethr =  1.30E-08,  avg # of iterations =  1.0

     negative rho (up, down):  1.271E+00 0.000E+00

     total cpu time spent up to now is     5472.7 secs

     total energy              =   -3627.08807270 Ry
     estimated scf accuracy    <       0.00000247 Ry

     iteration # 36     ecut=   120.00 Ry     beta= 0.70
     Davidson diagonalization with overlap
     ethr =  6.18E-10,  avg # of iterations =  3.0

     negative rho (up, down):  1.271E+00 0.000E+00

     total cpu time spent up to now is     5604.7 secs

     total energy              =   -3627.08807297 Ry
     estimated scf accuracy    <       0.00000293 Ry

     iteration # 37     ecut=   120.00 Ry     beta= 0.70
     Davidson diagonalization with overlap
     ethr =  6.18E-10,  avg # of iterations =  2.0

     negative rho (up, down):  1.271E+00 0.000E+00

     total cpu time spent up to now is     5724.9 secs

     total energy              =   -3627.08807315 Ry
     estimated scf accuracy    <       0.00000145 Ry

     iteration # 38     ecut=   120.00 Ry     beta= 0.70
     Davidson diagonalization with overlap
     ethr =  3.62E-10,  avg # of iterations =  2.0

     negative rho (up, down):  1.271E+00 0.000E+00

     total cpu time spent up to now is     5845.9 secs

     total energy              =   -3627.08807315 Ry
     estimated scf accuracy    <       0.00000204 Ry

     iteration # 39     ecut=   120.00 Ry     beta= 0.70
     Davidson diagonalization with overlap
     ethr =  3.62E-10,  avg # of iterations =  2.0

     negative rho (up, down):  1.271E+00 0.000E+00

     total cpu time spent up to now is     5963.4 secs

     total energy              =   -3627.08807318 Ry
     estimated scf accuracy    <       0.00000140 Ry

     iteration # 40     ecut=   120.00 Ry     beta= 0.70
     Davidson diagonalization with overlap
     ethr =  3.51E-10,  avg # of iterations =  2.0

     negative rho (up, down):  1.271E+00 0.000E+00

     total cpu time spent up to now is     6083.2 secs

     total energy              =   -3627.08807316 Ry
     estimated scf accuracy    <       0.00000254 Ry

     iteration # 41     ecut=   120.00 Ry     beta= 0.70
     Davidson diagonalization with overlap
     ethr =  3.51E-10,  avg # of iterations =  1.0

     negative rho (up, down):  1.271E+00 0.000E+00

     total cpu time spent up to now is     6187.1 secs

     End of self-consistent calculation

          k = 0.0000 0.0000 0.0000 (208165 PWs)   bands (ev):

  -160.1911-143.9288-123.5985-102.6570 -99.5356 -94.9860 -94.4253 -83.7857
   -81.7864 -79.0088 -73.4219 -73.0111 -72.3277 -72.2841 -69.2868 -68.1428
   -67.8029 -67.5050 -65.1609 -64.4815 -63.5729 -63.2139 -62.3469 -61.3195
   -60.6667 -59.9716 -59.6018 -57.3197 -56.8468 -56.7983 -55.2949 -53.2021
   -52.8473 -52.6121 -52.5921 -51.3807 -50.8527 -50.4004 -50.1222 -49.0000
   -47.9518 -46.7391 -45.6056 -45.0419 -44.6320 -43.5830 -42.6478 -42.0443
   -41.3791 -40.5869 -40.3333 -39.4762 -39.3543 -39.3363 -37.9582 -37.0406
   -35.7938 -35.6581 -35.4039 -35.2283 -35.1153 -34.2699 -33.6003 -33.4201
   -32.1952 -32.1825 -31.4754 -30.7462 -30.7051 -30.0408 -29.7368 -29.6885
   -29.5416 -29.5083 -29.2465 -29.1761 -28.8612 -28.2459 -27.6950 -27.5036
   -26.8640 -26.8165 -26.4332 -26.4211 -26.3665 -26.3110 -26.2505 -26.1487
   -25.9883 -25.9284 -25.9252 -25.7944 -25.6897 -25.6108 -25.4595 -24.7027
   -24.6149 -23.7854 -23.6314 -23.1083 -22.8499 -22.4399 -22.4201 -22.0611
   -22.0190 -21.8096 -21.6281 -21.5431 -21.4577 -20.9650 -20.1891 -19.6510
   -19.5955 -19.0600 -18.6019 -18.3309 -18.1041 -17.5017 -17.4648 -16.7888
   -15.4950 -15.0374 -14.8323 -14.3947 -13.6451 -13.3209 -12.2594 -12.1051
   -11.1258 -10.3147  -9.7842  -9.3939  -8.9898  -8.4268  -7.9147  -7.2757
    -7.0190  -6.0597  -5.8254  -5.6483  -5.1445  -4.7961  -4.7346  -4.2071
    -3.8921  -3.6702  -3.1462  -2.9742  -2.6438  -2.2210  -2.1854  -1.8598
    -1.5799  -1.3533  -1.0389  -0.9351  -0.6498  -0.4415   0.1979   0.3466
     0.7260   0.8188   0.9027   1.2378   1.3615   1.4658   1.8210   1.8868
     1.9451   2.0737   2.2838   2.3761   2.5975   2.7166   2.8586   2.9559
     3.0959   3.2738   3.3910   3.4335   3.6947   3.7417   3.8036   3.9481
     4.0204   4.0733   4.2721   4.3790   4.4513   4.4716   4.6351   4.6916
     4.7853   4.8456   4.9346   4.9550   5.0158   5.0456   5.1555   5.1866
     5.2191   5.2435   5.3842   5.4369   5.5030   5.5345   5.5665   5.6051
     5.7455   5.8040   5.9142   5.9516   6.0975   6.1880   6.2388   6.3435
     6.3702   6.4289   6.4569   6.5508   6.6063   6.6381   6.6731   6.7941
     6.8067   6.9084   6.9445   7.0823   7.1701   7.1977   7.3548   7.4483
     7.5061   7.6484   7.7239   7.7961   7.8799   7.9740   8.0641   8.1082

     the Fermi energy is     5.2123 ev

!    total energy              =   -3627.08807267 Ry
     estimated scf accuracy    <       0.00000071 Ry
     smearing contrib. (-TS)   =      -0.11351855 Ry
     internal energy E=F+TS    =   -3626.97455411 Ry

     The total energy is F=E-TS. E is the sum of the following terms:
     one-electron contribution =  -13260.12791324 Ry
     hartree contribution      =    6592.03032024 Ry
     xc contribution           =   -1337.26478399 Ry
     ewald contribution        =    4378.38782289 Ry

     convergence has been achieved in  41 iterations

     negative rho (up, down):  1.271E+00 0.000E+00

     Forces acting on atoms (cartesian axes, Ry/au):

     atom    1 type  1   force =  -206.57167970  -83.52855255 -142.44241308
     atom    2 type  1   force =    -0.90859316    2.88095052   11.78562439
     atom    3 type  1   force =    90.04012739   36.84278585  -25.45463549
     atom    4 type  1   force =     0.13325462   -0.29955097   -0.11404774
     atom    5 type  1   force =  -117.63242056   43.92731644   42.98511064
     atom    6 type  1   force =    -0.21379804   -0.94655588    2.41528615
     atom    7 type  1   force =    -0.24790088   -6.23736537    4.18614122
     atom    8 type  1   force =    -0.10743513   -0.01942573   -0.04089369
     atom    9 type  2   force =    -7.67853562    7.69901603   11.33365966
     atom   10 type  2   force =    -0.55113512   12.99524369   -8.34505707
     atom   11 type  2   force =    -2.87534137   -2.78018748   -3.48089149
     atom   12 type  2   force =   169.66688438   35.46294019   12.25556265
     atom   13 type  2   force =     0.41406393    0.17505854   -0.08480917
     atom   14 type  2   force =     1.41020667   16.82176226  -10.51925634
     atom   15 type  2   force =     8.02207224   -9.75211276   -4.37432178
     atom   16 type  2   force =     0.02521818    0.14453672   -0.01423132
     atom   17 type  3   force =    -0.06042658   -0.10944771   -0.04345373
     atom   18 type  3   force =     5.41924741    5.18586358   -2.97431387
     atom   19 type  3   force =    28.48918155   34.35475381   23.10307981
     atom   20 type  3   force =   -16.69600177   -0.06825242   32.91146595
     atom   21 type  3   force =    -2.32263042  -26.03788191  -68.31793979
     atom   22 type  3   force =     0.09808695    1.00009977   -2.55018368
     atom   23 type  3   force =    -4.92437854  -15.74603678   11.32452025
     atom   24 type  3   force =    24.90556322  -31.28633635  -66.94723554
     atom   25 type  4   force =   176.05364771   62.82050205  138.19989165
     atom   26 type  4   force =     0.21241560   -0.16332524    0.04544507
     atom   27 type  4   force =    -2.48955048    2.86773371    3.05607169
     atom   28 type  4   force =    -3.02033667  -20.69111122   -5.04157665
     atom   29 type  4   force =    11.96872401  -54.36696609   36.20909369
     atom   30 type  4   force =  -152.93257273  -35.74293699  -44.94030125
     atom   31 type  4   force =    13.27294284   30.67563694   55.47601143
     atom   32 type  4   force =   -10.89889993   -6.07815466    0.39859743
     The non-local contrib.  to forces
     atom    1 type  1   force =     3.44312175   -4.20061086   -5.57165838
     atom    2 type  1   force =     0.36388631   -1.59078533   -5.63408744
     atom    3 type  1   force =   -12.99326504  -14.30551423  -10.09618914
     atom    4 type  1   force =    -0.14575190    0.00110839    0.10080318
     atom    5 type  1   force =    18.51293304   -0.29464701   -4.12678314
     atom    6 type  1   force =     0.17290581    0.52733721   -1.40930326
     atom    7 type  1   force =    -0.57157335    2.52005966   -1.73324714
     atom    8 type  1   force =    -0.10262457   -0.09257490   -0.04608098
     atom    9 type  2   force =    -0.87459045   -0.89168227   -0.19952476
     atom   10 type  2   force =    -0.21382101    1.01922728   -0.70720162
     atom   11 type  2   force =     0.02625671   -0.48569036   -0.29300435
     atom   12 type  2   force =     1.44883630    0.33731505   -0.49049235
     atom   13 type  2   force =     0.06036530    0.06660591   -0.06716298
     atom   14 type  2   force =     0.23504426    2.99689179   -1.93151808
     atom   15 type  2   force =     1.05015166   -1.41921325   -0.56697146
     atom   16 type  2   force =     0.04097611    0.15271989   -0.01645759
     atom   17 type  3   force =     0.15919567    0.13207409   -0.29289294
     atom   18 type  3   force =    -2.68760568   -1.94692004    1.37945932
     atom   19 type  3   force =    -7.20542552   -8.32217205   -5.74254383
     atom   20 type  3   force =     3.67433819    0.02773421   -8.21934660
     atom   21 type  3   force =    -0.88451752    3.77906056   12.77634527
     atom   22 type  3   force =    -0.11577714   -0.51623261    1.56521673
     atom   23 type  3   force =     0.29384068    2.72705711   -4.14946385
     atom   24 type  3   force =    -8.67895039   14.51700799   27.24426344
     atom   25 type  4   force =     6.57905347    1.44296658    5.60436709
     atom   26 type  4   force =     0.16682117    0.03911749   -0.04402543
     atom   27 type  4   force =    -0.30739167    0.44508374    0.39205171
     atom   28 type  4   force =    -0.46353110   -1.32554256   -0.35170257
     atom   29 type  4   force =    -1.68112745    1.78618476    1.83708985
     atom   30 type  4   force =    -3.09874694   -1.17452890   -3.72851676
     atom   31 type  4   force =     1.79430865    3.13788979    4.48724177
     atom   32 type  4   force =    -1.71976261   -0.94671594    0.20230062
     The ionic contribution  to forces
     atom    1 type  1   force =  -239.70581951  -14.76364699  -84.63572517
     atom    2 type  1   force =   -33.44130666   82.85975871  100.47072930
     atom    3 type  1   force =   220.68582439   93.79760808  -54.66925436
     atom    4 type  1   force =   -21.11852980  -74.73752711    3.52605382
     atom    5 type  1   force =  -183.00145389   61.13819572   55.00785524
     atom    6 type  1   force =   -51.16152232  -28.62180048   -1.88173618
     atom    7 type  1   force =   -42.29715699  -45.30958070   62.26806223
     atom    8 type  1   force =   -25.22547736  -17.24176829  -24.66461844
     atom    9 type  2   force =   -58.63226109  -42.93527640    4.20154716
     atom   10 type  2   force =   -35.16543482   58.38769934 -119.86452963
     atom   11 type  2   force =   -82.26705365  -58.58115144   -0.69109539
     atom   12 type  2   force =   265.87002360    1.56398100   42.50945399
     atom   13 type  2   force =    75.35572166  -12.94055699   50.50769161
     atom   14 type  2   force =    25.09794162  176.86916722 -115.46816290
     atom   15 type  2   force =    96.72403591 -120.58185291  -48.44076505
     atom   16 type  2   force =   -19.95731847  -40.40943425  -22.23084224
     atom   17 type  3   force =    -5.84827035  -15.26224065  -41.81945482
     atom   18 type  3   force =    11.07297830   25.51920094   36.76617696
     atom   19 type  3   force =   113.10664598  148.75368628  110.85977747
     atom   20 type  3   force =   -34.90888288  -41.56357152  147.23730971
     atom   21 type  3   force =   -43.31623550   19.44156079 -157.91943952
     atom   22 type  3   force =   -52.33874895   18.15506739  -69.42481977
     atom   23 type  3   force =    46.19929780  -95.83811077   35.99191883
     atom   24 type  3   force =   146.04816417  -38.63190129 -222.93686627
     atom   25 type  4   force =   206.74555938  124.69313761  217.56737625
     atom   26 type  4   force =    48.76950420  -30.79072941  -13.78101708
     atom   27 type  4   force =   -64.87699828   31.77942946   81.33279073
     atom   28 type  4   force =   -21.10898488 -147.19916449  -42.61251334
     atom   29 type  4   force =    49.34517493  -55.08511283   57.75054336
     atom   30 type  4   force =  -170.04436155  -92.72678416  -48.23700579
     atom   31 type  4   force =     2.71579638  122.61409156   65.72557541
     atom   32 type  4   force =  -123.32085137    7.64762656   -2.44501613
     The local contribution  to forces
     atom    1 type  1   force =    26.96183541  -65.13552181  -53.32911960
     atom    2 type  1   force =    32.14475130  -78.15132971  -82.33563430
     atom    3 type  1   force =  -115.24171356  -40.02764594   40.69694410
     atom    4 type  1   force =    21.40825216   74.45466013   -3.74763154
     atom    5 type  1   force =    43.41425438  -16.32200255   -6.90889418
     atom    6 type  1   force =    50.74725800   27.08855474    5.84424736
     atom    7 type  1   force =    42.65110379   36.17123574  -56.09921927
     atom    8 type  1   force =    25.21040892   17.31878284   24.68200567
     atom    9 type  2   force =    51.75092352   51.61929428    7.45529245
     atom   10 type  2   force =    34.81822747  -46.28976705  112.14960015
     atom   11 type  2   force =    79.36997816   56.26677591   -2.51293311
     atom   12 type  2   force =   -96.45261621   33.81415003  -29.65327935
     atom   13 type  2   force =   -75.00837958   13.05009219  -50.53433648
     atom   14 type  2   force =   -23.92189139 -162.90047581  106.77991067
     atom   15 type  2   force =   -89.67466265  112.19055418   44.61754177
     atom   16 type  2   force =    19.94685345   40.41678752   22.23323365
     atom   17 type  3   force =     5.60884110   14.99798601   42.09713843
     atom   18 type  3   force =    -2.76119442  -18.23316733  -41.22012250
     atom   19 type  3   force =   -76.46992088 -104.94765400  -81.24327453
     atom   20 type  3   force =    13.96371806   41.46017041 -104.99783569
     atom   21 type  3   force =    41.86508279  -49.90138984   75.02134402
     atom   22 type  3   force =    52.54853768  -16.60641452   65.22371641
     atom   23 type  3   force =   -51.53931278   76.89755099  -20.13651530
     atom   24 type  3   force =  -111.34988185   -9.28562441  125.05884420
     atom   25 type  4   force =   -34.80449781  -62.36721817  -83.06001212
     atom   26 type  4   force =   -48.71594996   30.59388118   13.86819856
     atom   27 type  4   force =    62.67996219  -29.33404075  -78.65130681
     atom   28 type  4   force =    18.50715430  127.55554795   37.84931157
     atom   29 type  4   force =   -35.44533767   -2.02698837  -22.84433829
     atom   30 type  4   force =    18.76180355   57.81756621    6.60830534
     atom   31 type  4   force =     8.91616117  -94.69022565  -14.00905035
     atom   32 type  4   force =   114.04066154  -12.83821665    2.65210761
     The core correction contribution to forces
     atom    1 type  1   force =     2.72920951    0.57122684    1.09407173
     atom    2 type  1   force =     0.02415152   -0.23661361   -0.71578261
     atom    3 type  1   force =    -2.41071473   -2.62145392   -1.38566647
     atom    4 type  1   force =    -0.01050194   -0.01801339    0.00656754
     atom    5 type  1   force =     3.44208348   -0.59409370   -0.98680308
     atom    6 type  1   force =     0.02735660    0.05936812   -0.13783398
     atom    7 type  1   force =    -0.03003300    0.38120811   -0.24957704
     atom    8 type  1   force =     0.01040635   -0.00399634   -0.01210681
     atom    9 type  2   force =     0.07752734   -0.09377737   -0.12282808
     atom   10 type  2   force =     0.01020883   -0.12161656    0.07802068
     atom   11 type  2   force =    -0.00460357    0.02012869    0.01599683
     atom   12 type  2   force =    -1.19921621   -0.25237314   -0.11029132
     atom   13 type  2   force =     0.00632502   -0.00094864    0.00877572
     atom   14 type  2   force =    -0.00079561   -0.14376470    0.10087698
     atom   15 type  2   force =    -0.07722860    0.05820186    0.01648899
     atom   16 type  2   force =    -0.00557354   -0.01637787    0.00013917
     atom   17 type  3   force =     0.01956780    0.02182924   -0.02821043
     atom   18 type  3   force =    -0.20472112   -0.15280081    0.09977192
     atom   19 type  3   force =    -0.94216532   -1.12915861   -0.77102701
     atom   20 type  3   force =     0.57508334    0.00743458   -1.10906440
     atom   21 type  3   force =     0.01298739    0.64315554    1.80417555
     atom   22 type  3   force =     0.00343763   -0.03230452    0.08635598
     atom   23 type  3   force =     0.12203069    0.46782184   -0.38076474
     atom   24 type  3   force =    -1.11367316    2.11460654    3.68724929
     atom   25 type  4   force =    -2.46646976   -0.94839861   -1.91193178
     atom   26 type  4   force =    -0.00787903   -0.00556598    0.00254687
     atom   27 type  4   force =     0.01487806   -0.02239860   -0.01775199
     atom   28 type  4   force =     0.04487787    0.27719231    0.07363182
     atom   29 type  4   force =    -0.24980196    0.95918281   -0.53382072
     atom   30 type  4   force =     1.44899051    0.34096140    0.41683067
     atom   31 type  4   force =    -0.15336241   -0.38604933   -0.72779756
     atom   32 type  4   force =     0.10128957    0.05946413   -0.01091513
     The Hubbard contrib.    to forces
     atom    1 type  1   force =     0.00000000    0.00000000    0.00000000
     atom    2 type  1   force =     0.00000000    0.00000000    0.00000000
     atom    3 type  1   force =     0.00000000    0.00000000    0.00000000
     atom    4 type  1   force =     0.00000000    0.00000000    0.00000000
     atom    5 type  1   force =     0.00000000    0.00000000    0.00000000
     atom    6 type  1   force =     0.00000000    0.00000000    0.00000000
     atom    7 type  1   force =     0.00000000    0.00000000    0.00000000
     atom    8 type  1   force =     0.00000000    0.00000000    0.00000000
     atom    9 type  2   force =     0.00000000    0.00000000    0.00000000
     atom   10 type  2   force =     0.00000000    0.00000000    0.00000000
     atom   11 type  2   force =     0.00000000    0.00000000    0.00000000
     atom   12 type  2   force =     0.00000000    0.00000000    0.00000000
     atom   13 type  2   force =     0.00000000    0.00000000    0.00000000
     atom   14 type  2   force =     0.00000000    0.00000000    0.00000000
     atom   15 type  2   force =     0.00000000    0.00000000    0.00000000
     atom   16 type  2   force =     0.00000000    0.00000000    0.00000000
     atom   17 type  3   force =     0.00000000    0.00000000    0.00000000
     atom   18 type  3   force =     0.00000000    0.00000000    0.00000000
     atom   19 type  3   force =     0.00000000    0.00000000    0.00000000
     atom   20 type  3   force =     0.00000000    0.00000000    0.00000000
     atom   21 type  3   force =     0.00000000    0.00000000    0.00000000
     atom   22 type  3   force =     0.00000000    0.00000000    0.00000000
     atom   23 type  3   force =     0.00000000    0.00000000    0.00000000
     atom   24 type  3   force =     0.00000000    0.00000000    0.00000000
     atom   25 type  4   force =     0.00000000    0.00000000    0.00000000
     atom   26 type  4   force =     0.00000000    0.00000000    0.00000000
     atom   27 type  4   force =     0.00000000    0.00000000    0.00000000
     atom   28 type  4   force =     0.00000000    0.00000000    0.00000000
     atom   29 type  4   force =     0.00000000    0.00000000    0.00000000
     atom   30 type  4   force =     0.00000000    0.00000000    0.00000000
     atom   31 type  4   force =     0.00000000    0.00000000    0.00000000
     atom   32 type  4   force =     0.00000000    0.00000000    0.00000000
     The SCF correction term to forces
     atom    1 type  1   force =    -0.00000655    0.00000857    0.00003555
     atom    2 type  1   force =    -0.00005532   -0.00007123    0.00041665
     atom    3 type  1   force =     0.00001663   -0.00019983   -0.00045240
     atom    4 type  1   force =    -0.00019359    0.00022932    0.00017646
     atom    5 type  1   force =    -0.00021725   -0.00012772   -0.00024699
     atom    6 type  1   force =     0.00022418   -0.00000715   -0.00007059
     atom    7 type  1   force =    -0.00022103   -0.00027987    0.00013966
     atom    8 type  1   force =    -0.00012816    0.00013927   -0.00007592
     atom    9 type  2   force =    -0.00011462    0.00046609   -0.00080990
     atom   10 type  2   force =    -0.00029527   -0.00029100   -0.00092945
     atom   11 type  2   force =     0.00010130   -0.00024198    0.00016175
     atom   12 type  2   force =    -0.00012279   -0.00012445    0.00018889
     atom   13 type  2   force =     0.00005184   -0.00012563    0.00024018
     atom   14 type  2   force =    -0.00007189   -0.00004794   -0.00034580
     atom   15 type  2   force =    -0.00020377    0.00020566   -0.00059881
     atom   16 type  2   force =     0.00030093    0.00084974   -0.00028709
     atom   17 type  3   force =     0.00025951    0.00091190   -0.00001676
     atom   18 type  3   force =    -0.00018937   -0.00044088    0.00041765
     atom   19 type  3   force =     0.00006759    0.00006048    0.00016493
     atom   20 type  3   force =    -0.00023817   -0.00001180    0.00042014
     atom   21 type  3   force =     0.00007274   -0.00026065   -0.00034790
     atom   22 type  3   force =     0.00065804   -0.00000766   -0.00063582
     atom   23 type  3   force =    -0.00021461   -0.00034764   -0.00063748
     atom   24 type  3   force =    -0.00007525   -0.00041687   -0.00070898
     atom   25 type  4   force =     0.00002274    0.00002294    0.00010942
     atom   26 type  4   force =    -0.00006047   -0.00002022   -0.00024064
     atom   27 type  4   force =     0.00001953   -0.00033183    0.00030526
     atom   28 type  4   force =     0.00016745    0.00086387   -0.00028691
     atom   29 type  4   force =    -0.00016354   -0.00022416   -0.00036329
     atom   30 type  4   force =    -0.00023798   -0.00014323    0.00010249
     atom   31 type  4   force =     0.00005936   -0.00006113    0.00005938
     atom   32 type  4   force =    -0.00021675   -0.00030446    0.00013768

     Total force =   484.691513     Total SCF correction =     0.003163


     Computing stress (Cartesian axis) and pressure


     negative rho (up, down):  1.271E+00 0.000E+00
          total   stress  (Ry/bohr**3)                   (kbar)     P=     8937.97
   0.07621403   0.01108910  -0.00490991        11211.47     1631.26     -722.27
   0.01108910   0.04523770   0.02361803         1631.26     6654.70     3474.33
  -0.00490991   0.02361803   0.06082560         -722.27     3474.33     8947.75


     BFGS Geometry Optimization
     Energy error            =      0.0E+00 Ry
     Gradient error          =      2.1E+02 Ry/Bohr

     number of scf cycles    =   1
     number of bfgs steps    =   0

     energy             new  =   -3627.0880726677 Ry

     new trust radius        =       0.5000000000 bohr
     new conv_thr            =       0.0000010000 Ry


ATOMIC_POSITIONS (angstrom)
Hf            6.5110521118        8.1732438665        6.5370812900
Hf            3.8559295107        8.4838900218        8.1218115563
Hf            8.0133538391        7.1314734133        5.1345481897
Hf            4.2612961560        3.0945921176        7.1918250069
Hf            6.7113847901        7.4555026982        5.8609104486
Hf            3.4350223044        5.1176164374        5.2872776507
Hf            3.5486261639        5.4008910399        8.7183480309
Hf            1.1919393651        4.8951065472        4.3634482408
Nb            5.9361823617        4.7998860707        4.5987765194
Nb            6.0590248242        5.8464504930        3.9865241133
Nb            2.8373116013        4.6019001841        7.6975998132
Nb            6.7705075485        4.6344219599        8.3715090661
Nb            8.3887434854        5.3566208159        8.2898013925
Nb            7.1938406334        8.5134631327        5.1524857003
Nb            7.2989443404        4.5716616984        4.5760509111
Nb            4.1557112979        2.0421906615        2.5614046633
Ta            5.1845863088        4.5988064940        1.6352945039
Ta            4.2708082394        6.5376993413        8.2547738561
Ta            7.6815238020        9.1479254978        7.4374504854
Ta            5.5948049828        4.5005012425        9.3375642642
Ta            4.1912331593        8.1207499931        5.9833666973
Ta            3.6008089100        5.7257744699        3.7540508297
Ta            7.4392624628        5.7169660967        5.2799425642
Ta            8.1066583763        6.6077084486        4.4389664276
Zr            7.2822481976        8.4940229138        7.1147467103
Zr            9.9637656667        5.0467916797        4.8895564527
Zr            2.9556604596        6.5883155780        9.5233195871
Zr            5.8609357958        3.6976945508        4.3141510492
Zr            7.3872821503        7.0476655034        5.6271853297
Zr            5.8430136917        4.4337322390        8.2440495016
Zr            4.2731527461        8.5071488009        6.8952450767
Zr            3.0738787455        7.7281579037        7.0194513477



     Writing config-only to output data dir outdir/pwscf.save/
     NEW-OLD atomic charge density approx. for the potential

     Check: negative core charge=   -0.000003

     negative rho (up, down):  1.230E+00 0.000E+00

     total cpu time spent up to now is     6419.1 secs

     Self-consistent Calculation

     iteration #  1     ecut=   120.00 Ry     beta= 0.70
     Davidson diagonalization with overlap
     c_bands:  3 eigenvalues not converged
     ethr =  1.00E-06,  avg # of iterations = 20.0

     negative rho (up, down):  1.285E+00 0.000E+00

     total cpu time spent up to now is     7001.7 secs

     total energy              =   -3836.62441125 Ry
     estimated scf accuracy    <      12.04926280 Ry

     iteration #  2     ecut=   120.00 Ry     beta= 0.70
     Davidson diagonalization with overlap
     ethr =  3.01E-03,  avg # of iterations =  6.0

     negative rho (up, down):  1.286E+00 0.000E+00

     total cpu time spent up to now is     7298.7 secs

     total energy              =   -3817.32900088 Ry
     estimated scf accuracy    <     304.70986290 Ry

     iteration #  3     ecut=   120.00 Ry     beta= 0.70
     Davidson diagonalization with overlap
     ethr =  3.01E-03,  avg # of iterations =  7.0

     negative rho (up, down):  1.286E+00 0.000E+00

     total cpu time spent up to now is     7501.8 secs

     total energy              =   -3839.64718852 Ry
     estimated scf accuracy    <      54.75387445 Ry

     iteration #  4     ecut=   120.00 Ry     beta= 0.70
     Davidson diagonalization with overlap
     ethr =  3.01E-03,  avg # of iterations =  5.0

     negative rho (up, down):  1.288E+00 0.000E+00

     total cpu time spent up to now is     7631.4 secs

     total energy              =   -3842.21849882 Ry
     estimated scf accuracy    <      24.06276724 Ry

     iteration #  5     ecut=   120.00 Ry     beta= 0.70
     Davidson diagonalization with overlap
     ethr =  3.01E-03,  avg # of iterations =  3.0

     negative rho (up, down):  1.289E+00 0.000E+00

     total cpu time spent up to now is     7745.2 secs

     total energy              =   -3843.56828883 Ry
     estimated scf accuracy    <      13.86819927 Ry

     iteration #  6     ecut=   120.00 Ry     beta= 0.70
     Davidson diagonalization with overlap
     ethr =  3.01E-03,  avg # of iterations =  2.0

     negative rho (up, down):  1.292E+00 0.000E+00

     total cpu time spent up to now is     7855.5 secs

     total energy              =   -3843.58609243 Ry
     estimated scf accuracy    <      12.10576508 Ry

     iteration #  7     ecut=   120.00 Ry     beta= 0.70
     Davidson diagonalization with overlap
     ethr =  3.01E-03,  avg # of iterations =  1.0

     negative rho (up, down):  1.296E+00 0.000E+00

     total cpu time spent up to now is     7953.4 secs

     total energy              =   -3844.19802743 Ry
     estimated scf accuracy    <       2.24114762 Ry

     iteration #  8     ecut=   120.00 Ry     beta= 0.70
     Davidson diagonalization with overlap
     ethr =  5.60E-04,  avg # of iterations =  2.0

     negative rho (up, down):  1.297E+00 0.000E+00

     total cpu time spent up to now is     8068.5 secs

     total energy              =   -3844.30062112 Ry
     estimated scf accuracy    <       0.90573253 Ry

     iteration #  9     ecut=   120.00 Ry     beta= 0.70
     Davidson diagonalization with overlap
     ethr =  2.26E-04,  avg # of iterations =  2.0

     negative rho (up, down):  1.299E+00 0.000E+00

     total cpu time spent up to now is     8177.1 secs

     total energy              =   -3844.37028795 Ry
     estimated scf accuracy    <       0.17579672 Ry

     iteration # 10     ecut=   120.00 Ry     beta= 0.70
     Davidson diagonalization with overlap
     ethr =  4.39E-05,  avg # of iterations = 11.0

     negative rho (up, down):  1.300E+00 0.000E+00

     total cpu time spent up to now is     8304.8 secs

     total energy              =   -3844.36250223 Ry
     estimated scf accuracy    <       0.36196672 Ry

     iteration # 11     ecut=   120.00 Ry     beta= 0.70
     Davidson diagonalization with overlap
     ethr =  4.39E-05,  avg # of iterations =  3.0

     negative rho (up, down):  1.301E+00 0.000E+00

     total cpu time spent up to now is     8417.4 secs

     total energy              =   -3844.37071228 Ry
     estimated scf accuracy    <       0.45027499 Ry

     iteration # 12     ecut=   120.00 Ry     beta= 0.70
     Davidson diagonalization with overlap
     ethr =  4.39E-05,  avg # of iterations =  2.0

     negative rho (up, down):  1.302E+00 0.000E+00

     total cpu time spent up to now is     8533.1 secs

     total energy              =   -3844.38856316 Ry
     estimated scf accuracy    <       0.04605337 Ry

     iteration # 13     ecut=   120.00 Ry     beta= 0.70
     Davidson diagonalization with overlap
     ethr =  1.15E-05,  avg # of iterations =  2.0

     negative rho (up, down):  1.302E+00 0.000E+00

     total cpu time spent up to now is     8654.7 secs

     total energy              =   -3844.38993865 Ry
     estimated scf accuracy    <       0.04872075 Ry

     iteration # 14     ecut=   120.00 Ry     beta= 0.70
     Davidson diagonalization with overlap
     ethr =  1.15E-05,  avg # of iterations =  2.0

     negative rho (up, down):  1.302E+00 0.000E+00

     total cpu time spent up to now is     8762.6 secs

     total energy              =   -3844.39290465 Ry
     estimated scf accuracy    <       0.02991439 Ry

     iteration # 15     ecut=   120.00 Ry     beta= 0.70
     Davidson diagonalization with overlap
     ethr =  7.48E-06,  avg # of iterations =  2.0

     negative rho (up, down):  1.302E+00 0.000E+00

     total cpu time spent up to now is     8871.9 secs

     total energy              =   -3844.39332991 Ry
     estimated scf accuracy    <       0.01918729 Ry

     iteration # 16     ecut=   120.00 Ry     beta= 0.70
     Davidson diagonalization with overlap
     ethr =  4.80E-06,  avg # of iterations =  2.0

     negative rho (up, down):  1.302E+00 0.000E+00

     total cpu time spent up to now is     8984.6 secs

     total energy              =   -3844.39226256 Ry
     estimated scf accuracy    <       0.06638392 Ry

     iteration # 17     ecut=   120.00 Ry     beta= 0.70
     Davidson diagonalization with overlap
     ethr =  4.80E-06,  avg # of iterations =  3.0

     negative rho (up, down):  1.302E+00 0.000E+00

     total cpu time spent up to now is     9095.3 secs

     total energy              =   -3844.39263391 Ry
     estimated scf accuracy    <       0.05506735 Ry

     iteration # 18     ecut=   120.00 Ry     beta= 0.70
     Davidson diagonalization with overlap
     ethr =  4.80E-06,  avg # of iterations =  1.0

     negative rho (up, down):  1.302E+00 0.000E+00

     total cpu time spent up to now is     9192.6 secs

     total energy              =   -3844.39453884 Ry
     estimated scf accuracy    <       0.00926865 Ry

     iteration # 19     ecut=   120.00 Ry     beta= 0.70
     Davidson diagonalization with overlap
     ethr =  2.32E-06,  avg # of iterations =  2.0

     negative rho (up, down):  1.302E+00 0.000E+00

     total cpu time spent up to now is     9303.2 secs

     total energy              =   -3844.39487472 Ry
     estimated scf accuracy    <       0.00214573 Ry

     iteration # 20     ecut=   120.00 Ry     beta= 0.70
     Davidson diagonalization with overlap
     ethr =  5.36E-07,  avg # of iterations =  2.0

     negative rho (up, down):  1.302E+00 0.000E+00

     total cpu time spent up to now is     9419.6 secs

     total energy              =   -3844.39499428 Ry
     estimated scf accuracy    <       0.00200192 Ry

     iteration # 21     ecut=   120.00 Ry     beta= 0.70
     Davidson diagonalization with overlap
     ethr =  5.00E-07,  avg # of iterations =  1.0

     negative rho (up, down):  1.302E+00 0.000E+00

     total cpu time spent up to now is     9516.0 secs

     total energy              =   -3844.39511846 Ry
     estimated scf accuracy    <       0.00007659 Ry

     iteration # 22     ecut=   120.00 Ry     beta= 0.70
     Davidson diagonalization with overlap
     ethr =  1.91E-08,  avg # of iterations =  4.0

     negative rho (up, down):  1.302E+00 0.000E+00

     total cpu time spent up to now is     9642.0 secs

     total energy              =   -3844.39510743 Ry
     estimated scf accuracy    <       0.00054055 Ry

     iteration # 23     ecut=   120.00 Ry     beta= 0.70
     Davidson diagonalization with overlap
     ethr =  1.91E-08,  avg # of iterations =  3.0

     negative rho (up, down):  1.302E+00 0.000E+00

     total cpu time spent up to now is     9763.5 secs

     total energy              =   -3844.39512360 Ry
     estimated scf accuracy    <       0.00014707 Ry

     iteration # 24     ecut=   120.00 Ry     beta= 0.70
     Davidson diagonalization with overlap
     ethr =  1.91E-08,  avg # of iterations =  2.0

     negative rho (up, down):  1.302E+00 0.000E+00

     total cpu time spent up to now is     9882.9 secs

     total energy              =   -3844.39513424 Ry
     estimated scf accuracy    <       0.00003122 Ry

     iteration # 25     ecut=   120.00 Ry     beta= 0.70
     Davidson diagonalization with overlap
     ethr =  7.80E-09,  avg # of iterations =  2.0

     negative rho (up, down):  1.302E+00 0.000E+00

     total cpu time spent up to now is     9999.0 secs

     total energy              =   -3844.39513263 Ry
     estimated scf accuracy    <       0.00009048 Ry

     iteration # 26     ecut=   120.00 Ry     beta= 0.70
     Davidson diagonalization with overlap
     ethr =  7.80E-09,  avg # of iterations =  2.0

     negative rho (up, down):  1.302E+00 0.000E+00

     total cpu time spent up to now is    10110.4 secs

     total energy              =   -3844.39513613 Ry
     estimated scf accuracy    <       0.00002715 Ry

     iteration # 27     ecut=   120.00 Ry     beta= 0.70
     Davidson diagonalization with overlap
     ethr =  6.79E-09,  avg # of iterations =  2.0

     negative rho (up, down):  1.302E+00 0.000E+00

     total cpu time spent up to now is    10220.5 secs

     total energy              =   -3844.39513622 Ry
     estimated scf accuracy    <       0.00004237 Ry

     iteration # 28     ecut=   120.00 Ry     beta= 0.70
     Davidson diagonalization with overlap
     ethr =  6.79E-09,  avg # of iterations =  1.0

     negative rho (up, down):  1.302E+00 0.000E+00

     total cpu time spent up to now is    10315.0 secs

     total energy              =   -3844.39513756 Ry
     estimated scf accuracy    <       0.00001914 Ry

     iteration # 29     ecut=   120.00 Ry     beta= 0.70
     Davidson diagonalization with overlap
     ethr =  4.79E-09,  avg # of iterations =  1.0

     negative rho (up, down):  1.302E+00 0.000E+00

     total cpu time spent up to now is    10411.2 secs

     total energy              =   -3844.39513776 Ry
     estimated scf accuracy    <       0.00001882 Ry

     iteration # 30     ecut=   120.00 Ry     beta= 0.70
     Davidson diagonalization with overlap
     ethr =  4.71E-09,  avg # of iterations =  1.0

     negative rho (up, down):  1.302E+00 0.000E+00

     total cpu time spent up to now is    10509.8 secs

     total energy              =   -3844.39513817 Ry
     estimated scf accuracy    <       0.00000477 Ry

     iteration # 31     ecut=   120.00 Ry     beta= 0.70
     Davidson diagonalization with overlap
     ethr =  1.19E-09,  avg # of iterations =  2.0

     negative rho (up, down):  1.302E+00 0.000E+00

     total cpu time spent up to now is    10622.0 secs

     End of self-consistent calculation

          k = 0.0000 0.0000 0.0000 (208165 PWs)   bands (ev):

  -135.2755-120.8154-108.9061 -98.8821 -94.3718 -92.0747 -88.5898 -80.3373
   -79.1393 -75.4258 -74.6480 -72.7429 -72.7378 -72.1894 -71.9132 -68.6798
   -67.5404 -63.4768 -63.1246 -62.5806 -61.2474 -58.5526 -58.2830 -57.0498
   -57.0202 -56.8113 -55.2915 -54.5542 -52.7601 -52.2653 -50.8826 -50.5991
   -50.0793 -50.0146 -49.7526 -49.5067 -49.3152 -47.8008 -47.7029 -46.5353
   -46.3040 -45.5722 -44.5498 -43.9038 -43.8072 -43.6087 -42.1750 -41.6417
   -40.9269 -40.5191 -39.9651 -39.7913 -39.3128 -38.1162 -35.8752 -35.7469
   -35.2218 -35.1142 -34.6726 -34.4857 -33.7031 -33.5161 -33.3045 -32.0865
   -32.0273 -30.9678 -30.0451 -29.9705 -29.8518 -29.6519 -29.5883 -29.4868
   -29.4226 -29.1756 -29.0614 -28.8657 -28.1474 -27.7854 -27.7708 -27.3986
   -26.7800 -26.3177 -26.2104 -26.1492 -26.0823 -26.0203 -25.9072 -25.8811
   -25.7088 -25.6826 -25.6505 -25.5887 -25.5748 -25.3342 -25.2327 -24.7398
   -24.4520 -23.8398 -23.6308 -23.1188 -23.0329 -22.5412 -22.4135 -22.0435
   -21.7086 -21.6561 -21.4868 -20.2946 -19.7747 -19.6688 -19.2799 -19.2373
   -19.0960 -18.5498 -18.4953 -17.9396 -17.6716 -17.3446 -15.9186 -15.4854
   -14.8760 -14.4783 -13.4848 -12.5104 -11.5322 -10.8255  -9.9453  -9.1179
    -8.8193  -8.5188  -8.3127  -8.1723  -7.6944  -7.5602  -7.4176  -6.7908
    -6.3711  -6.1451  -5.4000  -5.3241  -5.1594  -4.8800  -4.5634  -4.2237
    -3.6798  -3.5854  -3.3715  -2.8968  -2.7268  -2.2177  -1.9541  -1.9036
    -1.6389  -1.5701  -1.0790  -0.8510  -0.7474  -0.4525  -0.2788   0.2349
     0.4961   0.6852   1.1688   1.2720   1.4527   1.5550   1.7533   1.9767
     2.0186   2.0980   2.2904   2.5491   2.6778   2.7196   2.8982   3.0687
     3.1218   3.2554   3.3327   3.4805   3.6943   3.7832   3.8719   3.9529
     4.0404   4.1256   4.3212   4.3612   4.4779   4.5868   4.6459   4.6602
     4.7934   4.8343   4.9347   4.9382   5.0089   5.0710   5.1165   5.2393
     5.3294   5.3369   5.4002   5.4695   5.5418   5.5608   5.6767   5.7594
     5.8173   5.8563   5.9537   6.0465   6.0964   6.2134   6.2985   6.3613
     6.4256   6.4724   6.5631   6.6146   6.7230   6.7986   6.8349   6.8940
     7.0125   7.0413   7.0515   7.2142   7.2282   7.2782   7.4030   7.5106
     7.6661   7.7560   7.7848   7.8509   7.9747   8.0848   8.1271   8.1891

     the Fermi energy is     5.2487 ev

!    total energy              =   -3844.39513807 Ry
     estimated scf accuracy    <       0.00000072 Ry
     smearing contrib. (-TS)   =      -0.10142887 Ry
     internal energy E=F+TS    =   -3844.29370920 Ry

     The total energy is F=E-TS. E is the sum of the following terms:
     one-electron contribution =  -12881.04607752 Ry
     hartree contribution      =    6413.24632228 Ry
     xc contribution           =   -1323.16329117 Ry
     ewald contribution        =    3946.66933721 Ry

     convergence has been achieved in  31 iterations

     negative rho (up, down):  1.302E+00 0.000E+00

     Forces acting on atoms (cartesian axes, Ry/au):

     atom    1 type  1   force =   -36.65456807    9.46149394    3.76167593
     atom    2 type  1   force =    -1.79183483    2.51510794   13.01243397
     atom    3 type  1   force =    63.24672511   40.53046402  -10.20426997
     atom    4 type  1   force =     0.07736865   -0.34554356   -0.14684854
     atom    5 type  1   force =   -61.08594139    8.32856717    6.44579355
     atom    6 type  1   force =    -0.20003774   -0.91853644    2.35249462
     atom    7 type  1   force =    -0.14581068   -5.83763282    4.05587946
     atom    8 type  1   force =    -0.10293776   -0.03354833   -0.04224240
     atom    9 type  2   force =    -7.49417171    6.17487435   10.73147655
     atom   10 type  2   force =    -0.49644917   12.18459420   -8.05055673
     atom   11 type  2   force =    -2.85540870   -2.70286492   -3.42939271
     atom   12 type  2   force =    39.22677338    7.85415011    2.09591721
     atom   13 type  2   force =     1.03079628    0.46706527   -0.08458533
     atom   14 type  2   force =     2.53305730   13.58121837   -9.52865791
     atom   15 type  2   force =     7.48566193   -9.59941001   -4.53589050
     atom   16 type  2   force =     0.02553157    0.14560649   -0.01384806
     atom   17 type  3   force =    -0.06957788   -0.10807961   -0.03399615
     atom   18 type  3   force =     5.14510362    4.81317640   -2.80781705
     atom   19 type  3   force =    38.93665514   62.15493519   31.66207727
     atom   20 type  3   force =    -8.82847856    0.86637157   27.14024540
     atom   21 type  3   force =    -1.12737859  -15.41321914  -41.31160552
     atom   22 type  3   force =     0.08306850    0.97665888   -2.49336371
     atom   23 type  3   force =    -3.57123902  -11.95629623   10.10266465
     atom   24 type  3   force =    14.82685770  -26.79453684  -52.97941850
     atom   25 type  4   force =   -10.12396216  -47.69256257   -7.64540934
     atom   26 type  4   force =     0.22824528   -0.14491483    0.04492842
     atom   27 type  4   force =    -2.41489276    2.79794464    2.95437552
     atom   28 type  4   force =    -2.67188392  -18.35665885   -4.63366566
     atom   29 type  4   force =    -4.17308198  -37.95839730   34.85375686
     atom   30 type  4   force =   -30.82367627   -9.38049994  -28.94642887
     atom   31 type  4   force =    11.19609810   19.69287381   27.81717844
     atom   32 type  4   force =    -9.41061138   -5.30240096   -0.14290091
     The non-local contrib.  to forces
     atom    1 type  1   force =     9.87408394   -7.54839833   -5.75552474
     atom    2 type  1   force =     0.58839847   -1.47739482   -5.88221741
     atom    3 type  1   force =   -10.23976145  -14.13235850   -9.36346922
     atom    4 type  1   force =    -0.11307082    0.02067944    0.11855025
     atom    5 type  1   force =    10.15860015    6.29918365    3.85147966
     atom    6 type  1   force =     0.18507242    0.52755894   -1.38149080
     atom    7 type  1   force =    -0.55961779    2.39654649   -1.71192459
     atom    8 type  1   force =    -0.11706926   -0.11295176   -0.04569396
     atom    9 type  2   force =    -0.92680726   -0.58330319    0.03455930
     atom   10 type  2   force =    -0.24622885    1.05841115   -0.71586149
     atom   11 type  2   force =     0.02769610   -0.46767618   -0.28882508
     atom   12 type  2   force =    -1.87921296   -0.33264401   -0.39695723
     atom   13 type  2   force =    -0.12986979   -0.06309368   -0.03546840
     atom   14 type  2   force =     0.49286835    2.06943680   -1.59052977
     atom   15 type  2   force =     0.95190586   -1.37630162   -0.62865620
     atom   16 type  2   force =     0.04692207    0.15918413   -0.01408580
     atom   17 type  3   force =     0.13469588    0.12602920   -0.32845235
     atom   18 type  3   force =    -2.54698508   -1.82392258    1.31953156
     atom   19 type  3   force =    -6.28969859  -10.18359477   -5.11635347
     atom   20 type  3   force =     2.97117843   -0.19105285   -8.65943019
     atom   21 type  3   force =    -0.66137573    3.06435291   10.41869932
     atom   22 type  3   force =    -0.10857883   -0.49892281    1.54855573
     atom   23 type  3   force =     0.15727961    2.62949883   -3.81335380
     atom   24 type  3   force =    -5.08496550   12.41660909   22.19589320
     atom   25 type  4   force =     0.64964039   -3.06061112    0.67007734
     atom   26 type  4   force =     0.17374004    0.01781573   -0.03772457
     atom   27 type  4   force =    -0.29189456    0.42449575    0.39103001
     atom   28 type  4   force =    -0.45026897   -1.48960468   -0.38020373
     atom   29 type  4   force =    -0.22708204   -0.91271297    1.98067244
     atom   30 type  4   force =     1.24459196   -0.26817990   -3.76340218
     atom   31 type  4   force =     1.80782522    2.91244593    3.69489245
     atom   32 type  4   force =    -1.37433034   -0.73415058    0.01278046
     The ionic contribution  to forces
     atom    1 type  1   force =   -84.94116605   85.79586613   55.21343493
     atom    2 type  1   force =   -34.87064527   81.46766722  101.17280461
     atom    3 type  1   force =   192.69755984  104.50317851  -37.68501676
     atom    4 type  1   force =   -21.15713102  -75.28539626    3.15659461
     atom    5 type  1   force =  -115.34471111   18.94158615    6.40714774
     atom    6 type  1   force =   -51.03019455  -28.74460127   -2.10998492
     atom    7 type  1   force =   -42.08303547  -44.23358431   62.25398982
     atom    8 type  1   force =   -25.17768537  -17.28467113  -24.65237307
     atom    9 type  2   force =   -57.84100053  -44.13086070    4.29885233
     atom   10 type  2   force =   -33.18781523   57.25620392 -118.51921821
     atom   11 type  2   force =   -82.27373381  -58.04238670   -0.59698283
     atom   12 type  2   force =   128.80651771  -26.80859247   39.20115941
     atom   13 type  2   force =    77.89285911  -10.80041509   49.74587743
     atom   14 type  2   force =    30.51467088  166.21064841 -108.32924563
     atom   15 type  2   force =    94.45360690 -119.46313646  -48.88729723
     atom   16 type  2   force =   -19.94872607  -40.41728599  -22.26013928
     atom   17 type  3   force =    -5.71467275  -15.24923782  -41.66158569
     atom   18 type  3   force =    11.14709501   24.88088641   37.14265736
     atom   19 type  3   force =   115.03612041  173.99575428  110.78035454
     atom   20 type  3   force =   -18.99238902  -39.15568626  135.92288918
     atom   21 type  3   force =   -45.93425492   30.08317033 -128.66049388
     atom   22 type  3   force =   -52.18929772   17.80063592  -69.37377256
     atom   23 type  3   force =    46.80661409  -86.42788354   36.24564248
     atom   24 type  3   force =   124.26806335  -30.52810077 -200.98050989
     atom   25 type  4   force =    37.98447137    3.49144127   71.89395139
     atom   26 type  4   force =    48.70389931  -30.90947075  -13.37896413
     atom   27 type  4   force =   -64.37262363   31.56807853   80.70970851
     atom   28 type  4   force =   -19.64796403 -142.16767369  -41.79523908
     atom   29 type  4   force =    36.59373582  -40.77052630   63.41762434
     atom   30 type  4   force =   -51.17948340  -67.88401558  -33.85791352
     atom   31 type  4   force =     0.39644692  112.63288008   39.11618889
     atom   32 type  4   force =  -119.41513075    9.67552794   -3.93014090
     The local contribution  to forces
     atom    1 type  1   force =    36.38348971  -67.77177937  -44.96862698
     atom    2 type  1   force =    32.41785076  -77.26161621  -81.50416803
     atom    3 type  1   force =  -116.77802238  -47.29882639   37.70679364
     atom    4 type  1   force =    21.35206613   74.92797667   -3.43060857
     atom    5 type  1   force =    41.65266660  -17.40360649   -4.16204670
     atom    6 type  1   force =    50.61233879   27.23839048    5.97512737
     atom    7 type  1   force =    42.52159537   35.64303702  -56.24233567
     atom    8 type  1   force =    25.18343052   17.37202679   24.66599249
     atom    9 type  2   force =    51.19532934   50.96509314    6.51289781
     atom   10 type  2   force =    32.92639162  -46.01716834  111.11157891
     atom   11 type  2   force =    79.39520387   55.78786435   -2.55959730
     atom   12 type  2   force =   -87.25168780   35.09140904  -36.66246609
     atom   13 type  2   force =   -76.74479011   11.32661215  -49.80020825
     atom   14 type  2   force =   -28.45749630 -154.58911084  100.30721653
     atom   15 type  2   force =   -87.85105705  111.18417917   44.96052244
     atom   16 type  2   force =    19.93279989   40.42057265   22.26012938
     atom   17 type  3   force =     5.49404209   14.99131007   41.98929406
     atom   18 type  3   force =    -3.26037512  -18.10388471  -41.36372617
     atom   19 type  3   force =   -68.85395034 -100.07416039  -73.20788534
     atom   20 type  3   force =     6.87426968   40.23915971  -99.18594199
     atom   21 type  3   force =    45.45843348  -49.01140081   75.63488989
     atom   22 type  3   force =    52.37668856  -16.29607233   65.24565349
     atom   23 type  3   force =   -50.63191980   71.45059936  -21.97525455
     atom   24 type  3   force =  -103.75809370  -10.35587003  123.02761539
     atom   25 type  4   force =   -48.91643973  -48.75462375  -80.32800840
     atom   26 type  4   force =   -48.64002276   30.75172843   13.45931653
     atom   27 type  4   force =    62.23569647  -29.17283302  -78.12850734
     atom   28 type  4   force =    17.38558810  125.06259587   37.47741373
     atom   29 type  4   force =   -40.62303212    3.07351651  -30.01288287
     atom   30 type  4   force =    18.61435106   58.63567182    8.38253938
     atom   31 type  4   force =     9.11264480  -95.63741089  -14.68922695
     atom   32 type  4   force =   111.29747978  -14.28966430    3.77584357
     The core correction contribution to forces
     atom    1 type  1   force =     2.02925285   -1.01417646   -0.72764558
     atom    2 type  1   force =     0.07276894   -0.21322865   -0.77385919
     atom    3 type  1   force =    -2.43342588   -2.54077946   -0.86227143
     atom    4 type  1   force =    -0.00431083   -0.00929048    0.00837087
     atom    5 type  1   force =     2.44787010    0.49188046    0.34928286
     atom    6 type  1   force =     0.03187714    0.06022284   -0.13195120
     atom    7 type  1   force =    -0.02425425    0.35723497   -0.24327261
     atom    8 type  1   force =     0.00877089   -0.00778495   -0.01069053
     atom    9 type  2   force =     0.07778565   -0.07550438   -0.11499760
     atom   10 type  2   force =     0.01106429   -0.11196015    0.07260780
     atom   11 type  2   force =    -0.00487868    0.01953835    0.01568426
     atom   12 type  2   force =    -0.44799601   -0.09534765   -0.04557991
     atom   13 type  2   force =     0.01247679    0.00443208    0.00553520
     atom   14 type  2   force =    -0.01693561   -0.10995181    0.08415223
     atom   15 type  2   force =    -0.06882512    0.05628431    0.01945367
     atom   16 type  2   force =    -0.00585112   -0.01671322    0.00005938
     atom   17 type  3   force =     0.01599650    0.02392422   -0.03347000
     atom   18 type  3   force =    -0.19401744   -0.13864974    0.09391115
     atom   19 type  3   force =    -0.95599562   -1.58339472   -0.79408035
     atom   20 type  3   force =     0.31907274   -0.02564747   -0.93672098
     atom   21 type  3   force =     0.00992160    0.45105012    1.29552701
     atom   22 type  3   force =     0.00307492   -0.02911464    0.08582413
     atom   23 type  3   force =     0.09673583    0.39292346   -0.35383080
     atom   24 type  3   force =    -0.59837495    1.67401911    2.77780889
     atom   25 type  4   force =     0.15825397    0.63104606    0.11846472
     atom   26 type  4   force =    -0.00820460   -0.00467186    0.00202736
     atom   27 type  4   force =     0.01413454   -0.02089068   -0.01742470
     atom   28 type  4   force =     0.04020747    0.23776908    0.06391656
     atom   29 type  4   force =     0.08326284    0.65220532   -0.53144435
     atom   30 type  4   force =     0.49757485    0.13647623    0.29253551
     atom   31 type  4   force =    -0.12066991   -0.21473472   -0.30430128
     atom   32 type  4   force =     0.08149231    0.04654596   -0.00129731
     The Hubbard contrib.    to forces
     atom    1 type  1   force =     0.00000000    0.00000000    0.00000000
     atom    2 type  1   force =     0.00000000    0.00000000    0.00000000
     atom    3 type  1   force =     0.00000000    0.00000000    0.00000000
     atom    4 type  1   force =     0.00000000    0.00000000    0.00000000
     atom    5 type  1   force =     0.00000000    0.00000000    0.00000000
     atom    6 type  1   force =     0.00000000    0.00000000    0.00000000
     atom    7 type  1   force =     0.00000000    0.00000000    0.00000000
     atom    8 type  1   force =     0.00000000    0.00000000    0.00000000
     atom    9 type  2   force =     0.00000000    0.00000000    0.00000000
     atom   10 type  2   force =     0.00000000    0.00000000    0.00000000
     atom   11 type  2   force =     0.00000000    0.00000000    0.00000000
     atom   12 type  2   force =     0.00000000    0.00000000    0.00000000
     atom   13 type  2   force =     0.00000000    0.00000000    0.00000000
     atom   14 type  2   force =     0.00000000    0.00000000    0.00000000
     atom   15 type  2   force =     0.00000000    0.00000000    0.00000000
     atom   16 type  2   force =     0.00000000    0.00000000    0.00000000
     atom   17 type  3   force =     0.00000000    0.00000000    0.00000000
     atom   18 type  3   force =     0.00000000    0.00000000    0.00000000
     atom   19 type  3   force =     0.00000000    0.00000000    0.00000000
     atom   20 type  3   force =     0.00000000    0.00000000    0.00000000
     atom   21 type  3   force =     0.00000000    0.00000000    0.00000000
     atom   22 type  3   force =     0.00000000    0.00000000    0.00000000
     atom   23 type  3   force =     0.00000000    0.00000000    0.00000000
     atom   24 type  3   force =     0.00000000    0.00000000    0.00000000
     atom   25 type  4   force =     0.00000000    0.00000000    0.00000000
     atom   26 type  4   force =     0.00000000    0.00000000    0.00000000
     atom   27 type  4   force =     0.00000000    0.00000000    0.00000000
     atom   28 type  4   force =     0.00000000    0.00000000    0.00000000
     atom   29 type  4   force =     0.00000000    0.00000000    0.00000000
     atom   30 type  4   force =     0.00000000    0.00000000    0.00000000
     atom   31 type  4   force =     0.00000000    0.00000000    0.00000000
     atom   32 type  4   force =     0.00000000    0.00000000    0.00000000
     The SCF correction term to forces
     atom    1 type  1   force =    -0.00020768    0.00003372    0.00005940
     atom    2 type  1   force =    -0.00018690   -0.00026786   -0.00010492
     atom    3 type  1   force =     0.00039581   -0.00069840   -0.00028510
     atom    4 type  1   force =    -0.00016398    0.00053881    0.00026539
     atom    5 type  1   force =    -0.00034631   -0.00042486   -0.00004892
     atom    6 type  1   force =     0.00088930   -0.00005568    0.00081528
     atom    7 type  1   force =    -0.00047771   -0.00081526   -0.00055640
     atom    8 type  1   force =    -0.00036371   -0.00011554    0.00054377
     atom    9 type  2   force =     0.00054192   -0.00049878    0.00018581
     atom   10 type  2   force =     0.00015983   -0.00084063    0.00035735
     atom   11 type  2   force =     0.00032466   -0.00015300    0.00034934
     atom   12 type  2   force =    -0.00082672   -0.00062307   -0.00021787
     atom   13 type  2   force =     0.00014111   -0.00041844   -0.00030021
     atom   14 type  2   force =    -0.00002919    0.00024755   -0.00023018
     atom   15 type  2   force =     0.00005217   -0.00038366    0.00010792
     atom   16 type  2   force =     0.00040763   -0.00009934    0.00020936
     atom   17 type  3   force =     0.00038122   -0.00005353    0.00023893
     atom   18 type  3   force =    -0.00059291   -0.00120125   -0.00016985
     atom   19 type  3   force =     0.00020012    0.00038254    0.00006299
     atom   20 type  3   force =    -0.00058955   -0.00034982   -0.00052953
     atom   21 type  3   force =    -0.00008218   -0.00033995   -0.00020676
     atom   22 type  3   force =     0.00120239    0.00018448    0.00039660
     atom   23 type  3   force =     0.00007208   -0.00138259   -0.00051757
     atom   24 type  3   force =     0.00024933   -0.00114249   -0.00020499
     atom   25 type  4   force =     0.00013267    0.00023671    0.00012670
     atom   26 type  4   force =    -0.00114588   -0.00026464    0.00029434
     atom   27 type  4   force =    -0.00018476   -0.00085419   -0.00040986
     atom   28 type  4   force =     0.00057433    0.00030631    0.00046796
     atom   29 type  4   force =     0.00005435   -0.00082812   -0.00019160
     atom   30 type  4   force =    -0.00068990   -0.00040077   -0.00016698
     atom   31 type  4   force =    -0.00012811   -0.00025485   -0.00035358
     atom   32 type  4   force =    -0.00010156   -0.00060824   -0.00006564

     Total force =   189.117052     Total SCF correction =     0.004664


     Computing stress (Cartesian axis) and pressure


[...]
     atom   18 type  3   force =     4.04131987    3.35952492   -2.20140646
     atom   19 type  3   force =     1.76825394    2.71509305    1.40427843
     atom   20 type  3   force =    -2.03590004    0.30984857    8.96841438
     atom   21 type  3   force =    -0.14731534   -3.08450056   -9.37020029
     atom   22 type  3   force =     0.05259201    0.85062627   -2.22761693
     atom   23 type  3   force =     0.55115681   -6.82196380    4.35207625
     atom   24 type  3   force =     1.39790940   -6.94344283  -13.71352462
     atom   25 type  4   force =    57.98831308   -3.49881630   34.14469015
     atom   26 type  4   force =     0.24597556   -0.17384640    0.07423240
     atom   27 type  4   force =    -2.07132840    2.39143032    2.48627052
     atom   28 type  4   force =    -1.57319695  -10.78360319   -3.15241952
     atom   29 type  4   force =     9.80294269   -7.23852698    9.24764721
     atom   30 type  4   force =   -10.15250195   -3.19669119  -10.42638884
     atom   31 type  4   force =     7.70174161    6.59820093   -3.75662029
     atom   32 type  4   force =    -5.33132941   -2.97766580   -0.94158927
     The non-local contrib.  to forces
     atom    1 type  1   force =     9.31035994   -8.93352141   -3.70666836
     atom    2 type  1   force =     1.20956205   -0.92912164   -5.47464256
     atom    3 type  1   force =    -5.42818327   -4.43594606   -1.04998399
     atom    4 type  1   force =    -0.05990356    0.09489423    0.20929412
     atom    5 type  1   force =     7.10351501    5.48815944    6.83501110
     atom    6 type  1   force =     0.16114947    0.48001251   -1.29655611
     atom    7 type  1   force =    -0.64940726    1.90307266   -1.56068238
     atom    8 type  1   force =    -0.10575646   -0.09775907   -0.02845777
     atom    9 type  2   force =    -0.92147428    0.06788196    0.65916807
     atom   10 type  2   force =     0.00384272    1.02065358   -0.65944881
     atom   11 type  2   force =     0.07023191   -0.42532120   -0.25441651
     atom   12 type  2   force =     0.83963802    0.29063497    0.37789673
     atom   13 type  2   force =     0.02738062   -0.00414585   -0.06576235
     atom   14 type  2   force =     0.30314444    0.73674477   -0.68423278
     atom   15 type  2   force =     0.65293247   -1.29940987   -0.63825798
     atom   16 type  2   force =     0.05783651    0.17870532   -0.01982135
     atom   17 type  3   force =     0.12304150    0.14884517   -0.25671151
     atom   18 type  3   force =    -2.08251257   -1.25627012    0.98547606
     atom   19 type  3   force =    -0.99730824   -1.57592084   -0.71216279
     atom   20 type  3   force =     1.20557209   -0.12178111   -4.61844237
     atom   21 type  3   force =    -0.19303237    1.40604193    4.71945358
     atom   22 type  3   force =    -0.09427111   -0.46869889    1.45067253
     atom   23 type  3   force =    -0.39822913    2.79816937   -2.25771759
     atom   24 type  3   force =    -0.74785816    2.86495798    5.87374664
     atom   25 type  4   force =     5.31818655   -0.01413886    3.56576447
     atom   26 type  4   force =     0.14198725    0.02168995    0.00598215
     atom   27 type  4   force =    -0.23956013    0.34015518    0.32900852
     atom   28 type  4   force =    -0.25884609   -1.68119859   -0.50354433
     atom   29 type  4   force =     1.25188604   -0.91683626    1.54239579
     atom   30 type  4   force =    -1.52876301   -0.61980768   -1.87647251
     atom   31 type  4   force =     1.35476026    1.16692246   -0.63286601
     atom   32 type  4   force =    -0.66529045   -0.30939948   -0.18324721
     The ionic contribution  to forces
     atom    1 type  1   force =   -92.71702786  111.81583775   34.05935826
     atom    2 type  1   force =   -39.38667287   75.86223658   97.48643365
     atom    3 type  1   force =   131.41975130   76.52573694  -26.97774475
     atom    4 type  1   force =   -21.40697537  -75.87032054    3.34327773
     atom    5 type  1   force =   -72.63081172    1.60737807  -43.59382338
     atom    6 type  1   force =   -50.61806455  -28.69282870   -3.00373296
     atom    7 type  1   force =   -40.47852347  -41.26488745   61.46973483
     atom    8 type  1   force =   -24.96228621  -17.29267236  -24.48891061
     atom    9 type  2   force =   -53.83888996  -46.67975586    2.81286783
     atom   10 type  2   force =   -25.99161640   51.95230450 -112.76852786
     atom   11 type  2   force =   -81.20322110  -55.65527261    0.33937210
     atom   12 type  2   force =    77.73633734  -37.20861019   46.09572945
     atom   13 type  2   force =    80.99095065   -7.38616989   48.88189756
     atom   14 type  2   force =    31.96275242  134.22894862  -90.67659553
     atom   15 type  2   force =    85.58456328 -113.28293737  -50.76059503
     atom   16 type  2   force =   -20.15471227  -40.48391054  -22.41725380
     atom   17 type  3   force =    -5.40091865  -15.11947384  -40.62050403
     atom   18 type  3   force =     9.18534588   21.40826009   38.09983931
     atom   19 type  3   force =    59.44864396   83.70129041   56.69986292
     atom   20 type  3   force =    -3.00028292  -37.23899702  104.39747636
     atom   21 type  3   force =   -51.99282000   43.70145283  -87.40387461
     atom   22 type  3   force =   -51.59900872   16.73680807  -68.66467036
     atom   23 type  3   force =    53.57328835  -64.48847398   28.19586370
     atom   24 type  3   force =    83.37313435    1.36157612 -132.34990954
     atom   25 type  4   force =   123.74175422   45.20593766  123.40590693
     atom   26 type  4   force =    47.91788745  -30.44982943  -11.68165749
     atom   27 type  4   force =   -62.49554769   30.20108838   77.57160754
     atom   28 type  4   force =   -14.47912542 -123.23707339  -38.77177965
     atom   29 type  4   force =    59.35048820  -15.87096390   43.14884728
     atom   30 type  4   force =   -20.15871253  -59.60676039  -11.06852793
     atom   31 type  4   force =    -5.38965074   99.04614837    6.36010657
     atom   32 type  4   force =  -106.38002893   16.47393308   -7.12007450
     The local contribution  to forces
     atom    1 type  1   force =    22.05095747  -79.81234374  -41.98852440
     atom    2 type  1   force =    34.23106103  -73.77162626  -77.62822591
     atom    3 type  1   force =  -112.98401702  -58.93136692   31.27150618
     atom    4 type  1   force =    21.44671893   75.35078408   -3.75921608
     atom    5 type  1   force =    41.95916948  -17.75130043   19.34911242
     atom    6 type  1   force =    50.23805808   27.35826061    6.48206022
     atom    7 type  1   force =    41.47716436   34.69013384  -56.15142105
     atom    8 type  1   force =    24.96746188   17.37095962   24.49088514
     atom    9 type  2   force =    48.59566016   48.81928014    4.71087568
     atom   10 type  2   force =    25.77280995  -44.38326026  106.97787495
     atom   11 type  2   force =    78.53803585   53.77191691   -3.20420713
     atom   12 type  2   force =   -67.49781931   38.76147817  -44.58907576
     atom   13 type  2   force =   -79.05725849    8.31621956  -48.95929216
     atom   14 type  2   force =   -30.97689625 -129.02071015   86.73965111
     atom   15 type  2   force =   -80.90723554  106.18080526   46.69480405
     atom   16 type  2   force =    20.12318773   40.45819752   22.41630539
     atom   17 type  3   force =     5.20005709   14.85529957   40.88572709
     atom   18 type  3   force =    -2.90530178  -16.68617044  -41.36140155
     atom   19 type  3   force =   -56.63499786  -79.33143194  -54.55324105
     atom   20 type  3   force =    -0.33294303   37.67496417  -90.47493349
     atom   21 type  3   force =    52.03668785  -48.30643639   72.94899419
     atom   22 type  3   force =    51.74308821  -15.39570952   64.90913667
     atom   23 type  3   force =   -52.60074280   54.60983519  -21.40280840
     atom   24 type  3   force =   -81.14621423  -11.38999888  112.27408433
     atom   25 type  4   force =   -70.16127294  -48.74078312  -92.30157082
     atom   26 type  4   force =   -47.80781038   30.25958695   11.74813534
     atom   27 type  4   force =    60.65254349  -28.13311377  -75.40006653
     atom   28 type  4   force =    13.14540938  114.01327326   36.08406457
     atom   29 type  4   force =   -50.69347499    9.45685866  -35.36379871
     atom   30 type  4   force =    11.39464961   56.98556578    2.40830384
     atom   31 type  4   force =    11.81407957  -93.54879068   -9.52546314
     atom   32 type  4   force =   101.67561340  -19.16250612    6.35190451
     The core correction contribution to forces
     atom    1 type  1   force =     2.42511433   -1.37572953   -0.02673621
     atom    2 type  1   force =     0.20716792   -0.10743531   -0.82492345
     atom    3 type  1   force =    -0.75896584   -0.69150510   -0.12376717
     atom    4 type  1   force =     0.00613633    0.00312730    0.01880186
     atom    5 type  1   force =     1.20208475    0.82578874    1.10496224
     atom    6 type  1   force =     0.02725614    0.05090411   -0.11557677
     atom    7 type  1   force =    -0.03609552    0.29219867   -0.22010460
     atom    8 type  1   force =     0.00607427   -0.01210825   -0.00797070
     atom    9 type  2   force =     0.06770358   -0.02523120   -0.07908336
     atom   10 type  2   force =     0.00102849   -0.07149265    0.05158879
     atom   11 type  2   force =    -0.00599043    0.01788320    0.01511080
     atom   12 type  2   force =    -0.10993727   -0.02473976   -0.02829364
     atom   13 type  2   force =     0.00475922    0.00163764    0.00699531
     atom   14 type  2   force =    -0.01440894   -0.04726818    0.04171505
     atom   15 type  2   force =    -0.04453315    0.05166347    0.02040364
     atom   16 type  2   force =    -0.00668000   -0.01744924    0.00008382
     atom   17 type  3   force =     0.01240283    0.02383156   -0.03068405
     atom   18 type  3   force =    -0.15597154   -0.10598721    0.07458122
     atom   19 type  3   force =    -0.04797472   -0.07866592   -0.03028379
     atom   20 type  3   force =     0.09198444   -0.00438785   -0.33496542
     atom   21 type  3   force =     0.00198380    0.11456435    0.36469108
     atom   22 type  3   force =     0.00312573   -0.02170345    0.07678661
     atom   23 type  3   force =    -0.02317554    0.25850654   -0.18405350
     atom   24 type  3   force =    -0.08129316    0.21998221    0.48826974
     atom   25 type  4   force =    -0.91000305    0.05076921   -0.52548506
     atom   26 type  4   force =    -0.00617858   -0.00515629    0.00146922
     atom   27 type  4   force =     0.01113137   -0.01651577   -0.01387610
     atom   28 type  4   force =     0.01961913    0.12193963    0.03837537
     atom   29 type  4   force =    -0.10581147    0.09254319   -0.08036459
     atom   30 type  4   force =     0.14058768    0.04426085    0.11023394
     atom   31 type  4   force =    -0.07724719   -0.06575512    0.04131112
     atom   32 type  4   force =     0.03830257    0.02059521    0.00941753
     The Hubbard contrib.    to forces
     atom    1 type  1   force =     0.00000000    0.00000000    0.00000000
     atom    2 type  1   force =     0.00000000    0.00000000    0.00000000
     atom    3 type  1   force =     0.00000000    0.00000000    0.00000000
     atom    4 type  1   force =     0.00000000    0.00000000    0.00000000
     atom    5 type  1   force =     0.00000000    0.00000000    0.00000000
     atom    6 type  1   force =     0.00000000    0.00000000    0.00000000
     atom    7 type  1   force =     0.00000000    0.00000000    0.00000000
     atom    8 type  1   force =     0.00000000    0.00000000    0.00000000
     atom    9 type  2   force =     0.00000000    0.00000000    0.00000000
     atom   10 type  2   force =     0.00000000    0.00000000    0.00000000
     atom   11 type  2   force =     0.00000000    0.00000000    0.00000000
     atom   12 type  2   force =     0.00000000    0.00000000    0.00000000
     atom   13 type  2   force =     0.00000000    0.00000000    0.00000000
     atom   14 type  2   force =     0.00000000    0.00000000    0.00000000
     atom   15 type  2   force =     0.00000000    0.00000000    0.00000000
     atom   16 type  2   force =     0.00000000    0.00000000    0.00000000
     atom   17 type  3   force =     0.00000000    0.00000000    0.00000000
     atom   18 type  3   force =     0.00000000    0.00000000    0.00000000
     atom   19 type  3   force =     0.00000000    0.00000000    0.00000000
     atom   20 type  3   force =     0.00000000    0.00000000    0.00000000
     atom   21 type  3   force =     0.00000000    0.00000000    0.00000000
     atom   22 type  3   force =     0.00000000    0.00000000    0.00000000
     atom   23 type  3   force =     0.00000000    0.00000000    0.00000000
     atom   24 type  3   force =     0.00000000    0.00000000    0.00000000
     atom   25 type  4   force =     0.00000000    0.00000000    0.00000000
     atom   26 type  4   force =     0.00000000    0.00000000    0.00000000
     atom   27 type  4   force =     0.00000000    0.00000000    0.00000000
     atom   28 type  4   force =     0.00000000    0.00000000    0.00000000
     atom   29 type  4   force =     0.00000000    0.00000000    0.00000000
     atom   30 type  4   force =     0.00000000    0.00000000    0.00000000
     atom   31 type  4   force =     0.00000000    0.00000000    0.00000000
     atom   32 type  4   force =     0.00000000    0.00000000    0.00000000
     The SCF correction term to forces
     atom    1 type  1   force =    -0.00021238   -0.00037423    0.00015266
     atom    2 type  1   force =    -0.00010412   -0.00036009    0.00004681
     atom    3 type  1   force =    -0.00002016   -0.00003036    0.00028397
     atom    4 type  1   force =    -0.00015627    0.00022751    0.00021439
     atom    5 type  1   force =    -0.00009003   -0.00012738    0.00042683
     atom    6 type  1   force =    -0.00010179   -0.00022158    0.00071667
     atom    7 type  1   force =     0.00001458    0.00001352   -0.00022218
     atom    8 type  1   force =    -0.00000329   -0.00019450    0.00023569
     atom    9 type  2   force =    -0.00012989   -0.00016034    0.00083601
     atom   10 type  2   force =     0.00008527    0.00023494    0.00052608
     atom   11 type  2   force =     0.00033216   -0.00003228    0.00016978
     atom   12 type  2   force =    -0.00012192    0.00012941   -0.00009027
     atom   13 type  2   force =    -0.00020830   -0.00012166    0.00000392
     atom   14 type  2   force =    -0.00013605   -0.00007824    0.00015010
     atom   15 type  2   force =     0.00022130   -0.00017012    0.00054011
     atom   16 type  2   force =    -0.00029114   -0.00044254    0.00011630
     atom   17 type  3   force =    -0.00019989   -0.00034840   -0.00035467
     atom   18 type  3   force =    -0.00022320   -0.00028408    0.00007895
     atom   19 type  3   force =    -0.00009229   -0.00015536    0.00008359
     atom   20 type  3   force =    -0.00021371    0.00007369   -0.00074024
     atom   21 type  3   force =    -0.00011771   -0.00009997    0.00051591
     atom   22 type  3   force =    -0.00032520   -0.00004662    0.00043808
     atom   23 type  3   force =     0.00003283    0.00002240    0.00077248
     atom   24 type  3   force =     0.00015750    0.00006306    0.00026467
     atom   25 type  4   force =    -0.00033479   -0.00057787    0.00005507
     atom   26 type  4   force =     0.00010673   -0.00011427    0.00028364
     atom   27 type  4   force =     0.00012146   -0.00016040   -0.00042246
     atom   28 type  4   force =    -0.00023704   -0.00052079    0.00044497
     atom   29 type  4   force =    -0.00012818   -0.00010535    0.00054789
     atom   30 type  4   force =    -0.00024680    0.00007356    0.00005427
     atom   31 type  4   force =    -0.00018339   -0.00030078    0.00027162
     atom   32 type  4   force =     0.00009090   -0.00026517    0.00039086

     Total force =   108.988115     Total SCF correction =     0.002825


     Computing stress (Cartesian axis) and pressure


     negative rho (up, down):  1.574E+00 0.000E+00
          total   stress  (Ry/bohr**3)                   (kbar)     P=     3638.86
   0.02655863   0.00172273   0.00186889         3906.91      253.42      274.92
   0.00172273   0.02354217   0.00676049          253.42     3463.17      994.50
   0.00186889   0.00676049   0.02410869          274.92      994.50     3546.51

     Energy error            =      1.6E+02 Ry
     Gradient error          =      5.9E+01 Ry/Bohr

     number of scf cycles    =   3
     number of bfgs steps    =   2

     energy             old  =   -3844.3951380734 Ry
     energy             new  =   -4006.2335140712 Ry

     CASE: energy            _new < energy            _old

     new trust radius        =       0.8000000000 bohr
     new conv_thr            =       0.0000010000 Ry


ATOMIC_POSITIONS (angstrom)
Hf            6.1405710172        8.5802085234        6.7321813399
Hf            3.8133379913        8.5052102378        8.3064889404
Hf            8.3960804311        7.4548661887        5.1363605899
Hf            4.2614743784        3.0891450952        7.1894129371
Hf            6.3101731700        7.3490619709        5.6881789264
Hf            3.4323857300        5.1060899759        5.3168832692
Hf            3.5507047614        5.3342181174        8.7691274891
Hf            1.1906126751        4.8946365705        4.3629366342
Nb            5.8459594763        4.8476339786        4.7220460932
Nb            6.0547338863        5.9803949412        3.8910671120
Nb            2.8004952351        4.5686042595        7.6535987794
Nb            6.8230007161        4.6389480813        8.3790690641
Nb            8.4118823484        5.3674395223        8.2882105735
Nb            7.2199110839        8.6279753238        5.0660065830
Nb            7.3816063844        4.4513719324        4.5125399831
Nb            4.1560081989        2.0440927734        2.5611595592
Ta            5.1836519977        4.5974696172        1.6349449220
Ta            4.3312511839        6.5904660074        8.2218544351
Ta            7.9188604392        9.5467299808        7.6302800958
Ta            5.5463618339        4.5093848163        9.5439110229
Ta            4.1863566134        8.0343151744        5.7396190773
Ta            3.6016579452        5.7380072220        3.7223421322
Ta            7.4278564144        5.6041342409        5.3670574568
Ta            8.1768071374        6.4178793598        4.0732925954
Zr            7.3706294140        8.0088662883        7.0901152105
Zr            9.9670632160        5.0446020037        4.8904169257
Zr            2.9257149075        6.6229709891        9.5595315792
Zr            5.8343752504        3.5153130135        4.2641359120
Zr            7.4181425660        6.8195337732        5.8843470624
Zr            5.8255643697        4.4072738738        8.0351357322
Zr            4.3926721459        8.6449018469        6.9565318240
Zr            2.9825911101        7.6768262120        7.0097334195



     Writing config-only to output data dir outdir/pwscf.save/
     NEW-OLD atomic charge density approx. for the potential

     Check: negative core charge=   -0.000003

     negative rho (up, down):  1.721E+00 0.000E+00

     total cpu time spent up to now is    17943.0 secs

     Self-consistent Calculation

     iteration #  1     ecut=   120.00 Ry     beta= 0.70
     Davidson diagonalization with overlap
     c_bands:  3 eigenvalues not converged
     ethr =  1.00E-06,  avg # of iterations = 20.0

     negative rho (up, down):  1.756E+00 0.000E+00

     total cpu time spent up to now is    18502.9 secs

     total energy              =   -4055.39346648 Ry
     estimated scf accuracy    <      15.20179882 Ry

     iteration #  2     ecut=   120.00 Ry     beta= 0.70
     Davidson diagonalization with overlap
