
     Program PWSCF v.7.2 starts on 17May2023 at 23:53:55 

     This program is part of the open-source Quantum ESPRESSO suite
     for quantum simulation of materials; please cite
         "P. Giannozzi et al., J. Phys.:Condens. Matter 21 395502 (2009);
         "P. Giannozzi et al., J. Phys.:Condens. Matter 29 465901 (2017);
         "P. Giannozzi et al., J. Chem. Phys. 152 154105 (2020);
          URL http://www.quantum-espresso.org", 
     in publications or presentations arising from this work. More details at
     http://www.quantum-espresso.org/quote

     Parallel version (MPI), running on    12 processors

     MPI processes distributed on     1 nodes
     74160 MiB available memory on the printing compute node when the environment starts

     Reading input from HfNbTaZr_1x1x1_relax.in
Warning: card &CELL ignored
Warning: card / ignored

     Current dimensions of program PWSCF are:
     Max number of different atomic species (ntypx) = 10
     Max number of k-points (npk) =  40000
     Max angular momentum in pseudopotentials (lmaxx) =  4
     Message from routine volume:
     axis vectors are left-handed
     Message from routine setup:
     using ibrav=0 with symmetry is DISCOURAGED, use correct ibrav instead

     R & G space division:  proc/nbgrp/npool/nimage =      12
     Subspace diagonalization in iterative solution of the eigenvalue problem:
     a serial algorithm will be used


     Parallelization info
     --------------------
     sticks:   dense  smooth     PW     G-vecs:    dense   smooth      PW
     Min        4546    4546   1136               798992   798992   99872
     Max        4547    4547   1137               798997   798997   99875
     Sum       54553   54553  13637              9587919  9587919 1198487

     Using Slab Decomposition



     bravais-lattice index     =            0
     lattice parameter (alat)  =      37.7945  a.u.
     unit-cell volume          =   53986.6760 (a.u.)^3
     number of atoms/cell      =            4
     number of atomic types    =            4
     number of electrons       =        50.00
     number of Kohn-Sham states=           30
     kinetic-energy cutoff     =     120.0000  Ry
     charge density cutoff     =     480.0000  Ry
     scf convergence threshold =      1.0E-08
     mixing beta               =       0.7000
     number of iterations used =            8  plain     mixing
     energy convergence thresh.=      1.0E-05
     force convergence thresh. =      1.0E-04
     Exchange-correlation= SLA  PW   PBE  PBE
                           (   1   4   3   4   0   0   0)
     nstep                     =           50


     celldm(1)=  37.794522  celldm(2)=   0.000000  celldm(3)=   0.000000
     celldm(4)=   0.000000  celldm(5)=   0.000000  celldm(6)=   0.000000

     crystal axes: (cart. coord. in units of alat)
               a(1) = (   0.000000   1.000000   0.000000 )  
               a(2) = (   1.000000   0.000000   0.000000 )  
               a(3) = (   0.000000   0.000000   1.000000 )  

     reciprocal axes: (cart. coord. in units 2 pi/alat)
               b(1) = ( -0.000000  1.000000 -0.000000 )  
               b(2) = (  1.000000 -0.000000 -0.000000 )  
               b(3) = ( -0.000000 -0.000000  1.000000 )  


     PseudoPot. # 1 for Hf read from file:
     q-e/pseudo/hf_pbe_v1.uspp.F.UPF
     MD5 check sum: 8ee9378dfe14276e333edf04c5e4aa26
     Pseudo is Ultrasoft + core correction, Zval = 12.0
     Generated by new atomic code, or converted to UPF format
     Using radial grid of  921 points,  8 beta functions with: 
                l(1) =   0
                l(2) =   0
                l(3) =   0
                l(4) =   1
                l(5) =   1
                l(6) =   2
                l(7) =   2
                l(8) =   3
     Q(r) pseudized with  6 coefficients,  rinner =    1.200   1.200   1.200
                                                       1.200   1.200   1.200
                                                       1.200

     PseudoPot. # 2 for Nb read from file:
     q-e/pseudo/nb_pbe_v1.uspp.F.UPF
     MD5 check sum: 573aab8a2fa660278ed4a62cd769473f
     Pseudo is Ultrasoft + core correction, Zval = 13.0
     Generated by new atomic code, or converted to UPF format
     Using radial grid of  887 points,  6 beta functions with: 
                l(1) =   0
                l(2) =   0
                l(3) =   1
                l(4) =   1
                l(5) =   2
                l(6) =   2
     Q(r) pseudized with  6 coefficients,  rinner =    1.000   1.000   1.000
                                                       1.000   1.000

     PseudoPot. # 3 for Ta read from file:
     q-e/pseudo/ta_pbe_v1.uspp.F.UPF
     MD5 check sum: f8bbe9446314a3b8ea5d9f3e3836c939
     Pseudo is Ultrasoft + core correction, Zval = 13.0
     Generated by new atomic code, or converted to UPF format
     Using radial grid of  921 points,  7 beta functions with: 
                l(1) =   0
                l(2) =   0
                l(3) =   1
                l(4) =   1
                l(5) =   2
                l(6) =   2
                l(7) =   3
     Q(r) pseudized with  6 coefficients,  rinner =    1.300   1.300   1.300
                                                       1.300   1.300   1.300
                                                       1.300

     PseudoPot. # 4 for Zr read from file:
     q-e/pseudo/zr_pbe_v1.uspp.F.UPF
     MD5 check sum: 5db81b1e868ab7776c4564c113de050b
     Pseudo is Ultrasoft + core correction, Zval = 12.0
     Generated by new atomic code, or converted to UPF format
     Using radial grid of  887 points,  6 beta functions with: 
                l(1) =   0
                l(2) =   0
                l(3) =   1
                l(4) =   1
                l(5) =   2
                l(6) =   2
     Q(r) pseudized with  6 coefficients,  rinner =    1.200   1.200   1.200
                                                       1.200   1.200

     atomic species   valence    mass     pseudopotential
        Hf            12.00   178.49000     Hf( 1.00)
        Nb            13.00    92.90637     Nb( 1.00)
        Ta            13.00   180.94788     Ta( 1.00)
        Zr            12.00    91.22400     Zr( 1.00)

      8 Sym. Ops., with inversion, found



   Cartesian axes

     site n.     atom                  positions (alat units)
         1           Hf  tau(   1) = (   0.5000000   0.0000000   0.0000000  )
         2           Nb  tau(   2) = (   0.0000000   0.5000000   0.0000000  )
         3           Ta  tau(   3) = (   0.5000000   0.5000000   0.0000000  )
         4           Zr  tau(   4) = (   0.0000000   0.0000000   0.0000000  )

     number of k points=     1  Gaussian smearing, width (Ry)=  0.0220
                       cart. coord. in units 2pi/alat
        k(    1) = (   0.0000000   0.0000000   0.0000000), wk =   2.0000000

     Dense  grid:  9587919 G-vectors     FFT dimensions: ( 270, 270, 270)

     Estimated max dynamical RAM per process >       5.52 GB

     Estimated total dynamical RAM >      66.25 GB

     Initial potential from superposition of free atoms

     starting charge      47.9940, renormalised to      50.0000

     negative rho (up, down):  2.797E-01 0.000E+00
     Starting wfcs are   52 randomized atomic wfcs

     total cpu time spent up to now is       45.9 secs

     Self-consistent Calculation

     iteration #  1     ecut=   120.00 Ry     beta= 0.70
     Davidson diagonalization with overlap
     ethr =  1.00E-02,  avg # of iterations =  7.0

     negative rho (up, down):  2.605E-01 0.000E+00

     total cpu time spent up to now is      127.9 secs

     total energy              =    -456.90034295 Ry
     estimated scf accuracy    <      78.57725358 Ry

     iteration #  2     ecut=   120.00 Ry     beta= 0.70
     Davidson diagonalization with overlap
     ethr =  1.00E-02,  avg # of iterations = 33.0

     negative rho (up, down):  2.380E-01 0.000E+00

     total cpu time spent up to now is      285.3 secs

     total energy              =    -511.81743945 Ry
     estimated scf accuracy    <     262.40513322 Ry

     iteration #  3     ecut=   120.00 Ry     beta= 0.70
     Davidson diagonalization with overlap
     ethr =  1.00E-02,  avg # of iterations =  9.0

     negative rho (up, down):  2.334E-01 0.000E+00

     total cpu time spent up to now is      395.4 secs

     total energy              =    -515.41857241 Ry
     estimated scf accuracy    <     118.20443980 Ry

     iteration #  4     ecut=   120.00 Ry     beta= 0.70
     Davidson diagonalization with overlap
     ethr =  1.00E-02,  avg # of iterations =  2.0

     negative rho (up, down):  2.302E-01 0.000E+00

     total cpu time spent up to now is      472.0 secs

     total energy              =    -509.23105266 Ry
     estimated scf accuracy    <      83.65021336 Ry

     iteration #  5     ecut=   120.00 Ry     beta= 0.70
     Davidson diagonalization with overlap
     ethr =  1.00E-02,  avg # of iterations =  2.0

     negative rho (up, down):  2.283E-01 0.000E+00

     total cpu time spent up to now is      547.0 secs

     total energy              =    -504.78985080 Ry
     estimated scf accuracy    <      94.23575981 Ry

     iteration #  6     ecut=   120.00 Ry     beta= 0.70
     Davidson diagonalization with overlap
     ethr =  1.00E-02,  avg # of iterations =  1.0

     negative rho (up, down):  2.247E-01 0.000E+00

     total cpu time spent up to now is      619.7 secs

     total energy              =    -478.45432422 Ry
     estimated scf accuracy    <      77.08967254 Ry

     iteration #  7     ecut=   120.00 Ry     beta= 0.70
     Davidson diagonalization with overlap
     ethr =  1.00E-02,  avg # of iterations = 14.0

     negative rho (up, down):  2.256E-01 0.000E+00

     total cpu time spent up to now is      751.2 secs

     total energy              =    -529.06047601 Ry
     estimated scf accuracy    <      74.03304239 Ry

     iteration #  8     ecut=   120.00 Ry     beta= 0.70
     Davidson diagonalization with overlap
     ethr =  1.00E-02,  avg # of iterations =  2.0

     negative rho (up, down):  2.251E-01 0.000E+00

     total cpu time spent up to now is      841.3 secs

     total energy              =    -527.44647583 Ry
     estimated scf accuracy    <      53.21517288 Ry

     iteration #  9     ecut=   120.00 Ry     beta= 0.70
     Davidson diagonalization with overlap
     ethr =  1.00E-02,  avg # of iterations =  1.0

     negative rho (up, down):  2.263E-01 0.000E+00

     total cpu time spent up to now is      914.2 secs

     total energy              =    -525.11779313 Ry
     estimated scf accuracy    <      50.00017770 Ry

     iteration # 10     ecut=   120.00 Ry     beta= 0.70
     Davidson diagonalization with overlap
     ethr =  1.00E-02,  avg # of iterations =  1.0

     negative rho (up, down):  2.349E-01 0.000E+00

     total cpu time spent up to now is      996.4 secs

     total energy              =    -509.88575477 Ry
     estimated scf accuracy    <      46.50942242 Ry

     iteration # 11     ecut=   120.00 Ry     beta= 0.70
     Davidson diagonalization with overlap
     ethr =  1.00E-02,  avg # of iterations =  7.0

     negative rho (up, down):  2.382E-01 0.000E+00

     total cpu time spent up to now is     1098.7 secs

     total energy              =    -520.69671517 Ry
     estimated scf accuracy    <      28.14912578 Ry

     iteration # 12     ecut=   120.00 Ry     beta= 0.70
     Davidson diagonalization with overlap
     ethr =  1.00E-02,  avg # of iterations = 15.0

     negative rho (up, down):  7.210E-01 0.000E+00

     total cpu time spent up to now is     1190.1 secs

     total energy              =    -526.75797708 Ry
     estimated scf accuracy    <      78.90365058 Ry

     iteration # 13     ecut=   120.00 Ry     beta= 0.70
     Davidson diagonalization with overlap
     ethr =  1.00E-02,  avg # of iterations =  6.0

     negative rho (up, down):  1.200E+00 0.000E+00

     total cpu time spent up to now is     1268.4 secs

     total energy              =    -530.27535588 Ry
     estimated scf accuracy    <      86.74953954 Ry

     iteration # 14     ecut=   120.00 Ry     beta= 0.70
     Davidson diagonalization with overlap
     ethr =  1.00E-02,  avg # of iterations =  1.0

     negative rho (up, down):  1.320E+00 0.000E+00

     total cpu time spent up to now is     1349.6 secs

     total energy              =    -532.58332976 Ry
     estimated scf accuracy    <      85.31602171 Ry

     iteration # 15     ecut=   120.00 Ry     beta= 0.70
     Davidson diagonalization with overlap
     ethr =  1.00E-02,  avg # of iterations =  5.0

     negative rho (up, down):  1.238E+00 0.000E+00

     total cpu time spent up to now is     1425.6 secs

     total energy              =    -540.79420696 Ry
     estimated scf accuracy    <      66.12874319 Ry

     iteration # 16     ecut=   120.00 Ry     beta= 0.70
     Davidson diagonalization with overlap
     ethr =  1.00E-02,  avg # of iterations =  2.0

     negative rho (up, down):  8.541E-01 0.000E+00

     total cpu time spent up to now is     1501.9 secs

     total energy              =    -533.53028082 Ry
     estimated scf accuracy    <     183.92469331 Ry

     iteration # 17     ecut=   120.00 Ry     beta= 0.70
     Davidson diagonalization with overlap
     ethr =  1.00E-02,  avg # of iterations =  1.0

     negative rho (up, down):  1.292E+00 0.000E+00

     total cpu time spent up to now is     1576.9 secs

     total energy              =    -541.91821456 Ry
     estimated scf accuracy    <      99.63819913 Ry

     iteration # 18     ecut=   120.00 Ry     beta= 0.70
     Davidson diagonalization with overlap
     ethr =  1.00E-02,  avg # of iterations =  1.0

     negative rho (up, down):  1.395E+00 0.000E+00

     total cpu time spent up to now is     1649.3 secs

     total energy              =    -526.01122904 Ry
     estimated scf accuracy    <     102.08650203 Ry

     iteration # 19     ecut=   120.00 Ry     beta= 0.70
     Davidson diagonalization with overlap
     ethr =  1.00E-02,  avg # of iterations =  3.0

     negative rho (up, down):  4.500E-01 0.000E+00

     total cpu time spent up to now is     1725.6 secs

     total energy              =    -513.46345411 Ry
     estimated scf accuracy    <      42.36577474 Ry

     iteration # 20     ecut=   120.00 Ry     beta= 0.70
     Davidson diagonalization with overlap
     ethr =  1.00E-02,  avg # of iterations =  8.0

     negative rho (up, down):  3.296E-01 0.000E+00

     total cpu time spent up to now is     1817.0 secs

     total energy              =    -510.52958327 Ry
     estimated scf accuracy    <      54.59652017 Ry

     iteration # 21     ecut=   120.00 Ry     beta= 0.70
     Davidson diagonalization with overlap
     ethr =  1.00E-02,  avg # of iterations =  8.0

     negative rho (up, down):  3.971E-01 0.000E+00

     total cpu time spent up to now is     1902.6 secs

     total energy              =    -514.00112076 Ry
     estimated scf accuracy    <      27.07715834 Ry

     iteration # 22     ecut=   120.00 Ry     beta= 0.70
     Davidson diagonalization with overlap
     ethr =  1.00E-02,  avg # of iterations =  3.0

     negative rho (up, down):  2.782E-01 0.000E+00

     total cpu time spent up to now is     1981.0 secs

     total energy              =    -515.82789871 Ry
     estimated scf accuracy    <      15.49009609 Ry

     iteration # 23     ecut=   120.00 Ry     beta= 0.70
     Davidson diagonalization with overlap
     ethr =  1.00E-02,  avg # of iterations =  6.0

     negative rho (up, down):  2.766E-01 0.000E+00

     total cpu time spent up to now is     2063.8 secs

     total energy              =    -513.36176993 Ry
     estimated scf accuracy    <      23.86682164 Ry

     iteration # 24     ecut=   120.00 Ry     beta= 0.70
     Davidson diagonalization with overlap
     ethr =  1.00E-02,  avg # of iterations =  2.0

     negative rho (up, down):  2.695E-01 0.000E+00

     total cpu time spent up to now is     2143.6 secs

     total energy              =    -512.66927523 Ry
     estimated scf accuracy    <      13.46961639 Ry

     iteration # 25     ecut=   120.00 Ry     beta= 0.70
     Davidson diagonalization with overlap
     ethr =  1.00E-02,  avg # of iterations = 19.0

     negative rho (up, down):  2.674E-01 0.000E+00

     total cpu time spent up to now is     2249.5 secs

     total energy              =    -515.22678172 Ry
     estimated scf accuracy    <      42.91082761 Ry

     iteration # 26     ecut=   120.00 Ry     beta= 0.70
     Davidson diagonalization with overlap
     ethr =  1.00E-02,  avg # of iterations =  2.0

     negative rho (up, down):  2.670E-01 0.000E+00

     total cpu time spent up to now is     2326.0 secs

     total energy              =    -515.49221370 Ry
     estimated scf accuracy    <       9.24314896 Ry

     iteration # 27     ecut=   120.00 Ry     beta= 0.70
     Davidson diagonalization with overlap
     ethr =  1.00E-02,  avg # of iterations =  1.0

     negative rho (up, down):  2.685E-01 0.000E+00

     total cpu time spent up to now is     2399.9 secs

     total energy              =    -515.99165249 Ry
     estimated scf accuracy    <      17.68888039 Ry

     iteration # 28     ecut=   120.00 Ry     beta= 0.70
     Davidson diagonalization with overlap
     ethr =  1.00E-02,  avg # of iterations =  1.0

     negative rho (up, down):  2.701E-01 0.000E+00

     total cpu time spent up to now is     2475.4 secs

     total energy              =    -516.49456227 Ry
     estimated scf accuracy    <      31.24403279 Ry

     iteration # 29     ecut=   120.00 Ry     beta= 0.70
     Davidson diagonalization with overlap
     ethr =  1.00E-02,  avg # of iterations =  1.0

     negative rho (up, down):  2.688E-01 0.000E+00

     total cpu time spent up to now is     2552.2 secs

     total energy              =    -518.29279992 Ry
     estimated scf accuracy    <      23.02268916 Ry

     iteration # 30     ecut=   120.00 Ry     beta= 0.70
     Davidson diagonalization with overlap
     ethr =  1.00E-02,  avg # of iterations =  1.0

     negative rho (up, down):  2.697E-01 0.000E+00

     total cpu time spent up to now is     2627.4 secs

     total energy              =    -517.64573562 Ry
     estimated scf accuracy    <      38.24866693 Ry

     iteration # 31     ecut=   120.00 Ry     beta= 0.70
     Davidson diagonalization with overlap
     ethr =  1.00E-02,  avg # of iterations =  1.0

     negative rho (up, down):  2.731E-01 0.000E+00

     total cpu time spent up to now is     2701.9 secs

     total energy              =    -514.07155408 Ry
     estimated scf accuracy    <      33.05840739 Ry

     iteration # 32     ecut=   120.00 Ry     beta= 0.70
     Davidson diagonalization with overlap
