
     Program PWSCF v.7.2 starts on 18May2023 at  0:43:25 

     This program is part of the open-source Quantum ESPRESSO suite
     for quantum simulation of materials; please cite
         "P. Giannozzi et al., J. Phys.:Condens. Matter 21 395502 (2009);
         "P. Giannozzi et al., J. Phys.:Condens. Matter 29 465901 (2017);
         "P. Giannozzi et al., J. Chem. Phys. 152 154105 (2020);
          URL http://www.quantum-espresso.org", 
     in publications or presentations arising from this work. More details at
     http://www.quantum-espresso.org/quote

     Parallel version (MPI), running on    12 processors

     MPI processes distributed on     1 nodes
     76930 MiB available memory on the printing compute node when the environment starts

     Reading input from HfNbTaZr_random_relax.in
Warning: card &CELL ignored
Warning: card / ignored

     Current dimensions of program PWSCF are:
     Max number of different atomic species (ntypx) = 10
     Max number of k-points (npk) =  40000
     Max angular momentum in pseudopotentials (lmaxx) =  4

     R & G space division:  proc/nbgrp/npool/nimage =      12
     Subspace diagonalization in iterative solution of the eigenvalue problem:
     a serial algorithm will be used


     Parallelization info
     --------------------
     sticks:   dense  smooth     PW     G-vecs:    dense   smooth      PW
     Min         125     125     31                 3705     3705     463
     Max         127     127     32                 3707     3707     468
     Sum        1517    1517    377                44473    44473    5575

     Using Slab Decomposition



     bravais-lattice index     =            0
     lattice parameter (alat)  =       6.3117  a.u.
     unit-cell volume          =     251.4409 (a.u.)^3
     number of atoms/cell      =           16
     number of atomic types    =            4
     number of electrons       =       200.00
     number of Kohn-Sham states=          120
     kinetic-energy cutoff     =     120.0000  Ry
     charge density cutoff     =     480.0000  Ry
     scf convergence threshold =      1.0E-06
     mixing beta               =       0.7000
     number of iterations used =            8  plain     mixing
     energy convergence thresh.=      1.0E-04
     force convergence thresh. =      1.0E-03
     Exchange-correlation= SLA  PW   PBE  PBE
                           (   1   4   3   4   0   0   0)
     nstep                     =           50


     celldm(1)=   6.311685  celldm(2)=   0.000000  celldm(3)=   0.000000
     celldm(4)=   0.000000  celldm(5)=   0.000000  celldm(6)=   0.000000

     crystal axes: (cart. coord. in units of alat)
               a(1) = (   1.000000   0.000000   0.000000 )  
               a(2) = (   0.000000   1.000000   0.000000 )  
               a(3) = (   0.000000   0.000000   1.000000 )  

     reciprocal axes: (cart. coord. in units 2 pi/alat)
               b(1) = (  1.000000  0.000000  0.000000 )  
               b(2) = (  0.000000  1.000000  0.000000 )  
               b(3) = (  0.000000  0.000000  1.000000 )  


     PseudoPot. # 1 for Hf read from file:
     q-e/pseudo/hf_pbe_v1.uspp.F.UPF
     MD5 check sum: 8ee9378dfe14276e333edf04c5e4aa26
     Pseudo is Ultrasoft + core correction, Zval = 12.0
     Generated by new atomic code, or converted to UPF format
     Using radial grid of  921 points,  8 beta functions with: 
                l(1) =   0
                l(2) =   0
                l(3) =   0
                l(4) =   1
                l(5) =   1
                l(6) =   2
                l(7) =   2
                l(8) =   3
     Q(r) pseudized with  6 coefficients,  rinner =    1.200   1.200   1.200
                                                       1.200   1.200   1.200
                                                       1.200

     PseudoPot. # 2 for Nb read from file:
     q-e/pseudo/nb_pbe_v1.uspp.F.UPF
     MD5 check sum: 573aab8a2fa660278ed4a62cd769473f
     Pseudo is Ultrasoft + core correction, Zval = 13.0
     Generated by new atomic code, or converted to UPF format
     Using radial grid of  887 points,  6 beta functions with: 
                l(1) =   0
                l(2) =   0
                l(3) =   1
                l(4) =   1
                l(5) =   2
                l(6) =   2
     Q(r) pseudized with  6 coefficients,  rinner =    1.000   1.000   1.000
                                                       1.000   1.000

     PseudoPot. # 3 for Ta read from file:
     q-e/pseudo/ta_pbe_v1.uspp.F.UPF
     MD5 check sum: f8bbe9446314a3b8ea5d9f3e3836c939
     Pseudo is Ultrasoft + core correction, Zval = 13.0
     Generated by new atomic code, or converted to UPF format
     Using radial grid of  921 points,  7 beta functions with: 
                l(1) =   0
                l(2) =   0
                l(3) =   1
                l(4) =   1
                l(5) =   2
                l(6) =   2
                l(7) =   3
     Q(r) pseudized with  6 coefficients,  rinner =    1.300   1.300   1.300
                                                       1.300   1.300   1.300
                                                       1.300

     PseudoPot. # 4 for Zr read from file:
     q-e/pseudo/zr_pbe_v1.uspp.F.UPF
     MD5 check sum: 5db81b1e868ab7776c4564c113de050b
     Pseudo is Ultrasoft + core correction, Zval = 12.0
     Generated by new atomic code, or converted to UPF format
     Using radial grid of  887 points,  6 beta functions with: 
                l(1) =   0
                l(2) =   0
                l(3) =   1
                l(4) =   1
                l(5) =   2
                l(6) =   2
     Q(r) pseudized with  6 coefficients,  rinner =    1.200   1.200   1.200
                                                       1.200   1.200

     atomic species   valence    mass     pseudopotential
        Hf            12.00   178.49000     Hf( 1.00)
        Nb            13.00    92.90637     Nb( 1.00)
        Ta            13.00   180.94788     Ta( 1.00)
        Zr            12.00    91.22400     Zr( 1.00)

     No symmetry found



   Cartesian axes

     site n.     atom                  positions (alat units)
         1           Hf  tau(   1) = (   0.0000000   0.0000000   0.0000000  )
         2           Hf  tau(   2) = (   0.5000000   0.5000000   0.5000000  )
         3           Nb  tau(   3) = (   0.1820211   0.0760631  -0.2264145  )
         4           Nb  tau(   4) = (   0.2922429   0.1853833   0.6255833  )
         5           Ta  tau(   5) = (   0.2221528   0.0079234   0.6255590  )
         6           Ta  tau(   6) = (   0.7922406   0.3580087   0.0756134  )
         7           Zr  tau(   7) = (   0.0449839   0.2839728  -0.1127611  )
         8           Zr  tau(   8) = (   0.4468255   0.2223818   0.6519152  )
         9           Hf  tau(   9) = (   0.7367675   0.1623733   0.0708571  )
        10           Hf  tau(  10) = (   0.0345390   0.5543887   0.3921034  )
        11           Nb  tau(  11) = (   0.8853026   0.4149448   0.1366278  )
        12           Nb  tau(  12) = (   0.0963780   0.1618555   0.3887069  )
        13           Ta  tau(  13) = (   0.1903646  -0.0028443   0.4098051  )
        14           Ta  tau(  14) = (   0.4615869   0.7964785   0.6035101  )
        15           Zr  tau(  15) = (   0.6850296   0.4427398  -0.0478739  )
        16           Zr  tau(  16) = (   0.0497598   0.2565042   0.5104706  )

     number of k points=     1  Gaussian smearing, width (Ry)=  0.0220
                       cart. coord. in units 2pi/alat
        k(    1) = (   0.0000000   0.0000000   0.0000000), wk =   2.0000000

     Dense  grid:    44473 G-vectors     FFT dimensions: (  45,  45,  45)

     Estimated max dynamical RAM per process >      45.53 MB

     Estimated total dynamical RAM >     546.39 MB

     Initial potential from superposition of free atoms

     starting charge     191.9760, renormalised to     200.0000

     negative rho (up, down):  1.446E-01 0.000E+00
     Starting wfcs are  208 randomized atomic wfcs

     total cpu time spent up to now is        1.6 secs

     Self-consistent Calculation

     iteration #  1     ecut=   120.00 Ry     beta= 0.70
     Davidson diagonalization with overlap
     ethr =  1.00E-02,  avg # of iterations = 10.0

     negative rho (up, down):  1.221E-01 0.000E+00

     total cpu time spent up to now is        4.0 secs

     total energy              =    -553.00003695 Ry
     estimated scf accuracy    <     195.76091057 Ry

     iteration #  2     ecut=   120.00 Ry     beta= 0.70
     Davidson diagonalization with overlap
     ethr =  1.00E-02,  avg # of iterations =  4.0

     negative rho (up, down):  8.463E-02 0.000E+00

     total cpu time spent up to now is        5.6 secs

     total energy              =    -538.92161999 Ry
     estimated scf accuracy    <     706.09418708 Ry

     iteration #  3     ecut=   120.00 Ry     beta= 0.70
     Davidson diagonalization with overlap
     ethr =  1.00E-02,  avg # of iterations =  5.0

     negative rho (up, down):  8.924E-02 0.000E+00

     total cpu time spent up to now is        7.6 secs

     total energy              =    -670.86910157 Ry
     estimated scf accuracy    <      11.50294486 Ry

     iteration #  4     ecut=   120.00 Ry     beta= 0.70
     Davidson diagonalization with overlap
     ethr =  5.75E-03,  avg # of iterations =  3.0

     negative rho (up, down):  9.502E-02 0.000E+00

     total cpu time spent up to now is        8.7 secs

     total energy              =    -672.95223064 Ry
     estimated scf accuracy    <       1.35629408 Ry

     iteration #  5     ecut=   120.00 Ry     beta= 0.70
     Davidson diagonalization with overlap
     ethr =  6.78E-04,  avg # of iterations =  3.0

     negative rho (up, down):  9.957E-02 0.000E+00

     total cpu time spent up to now is        9.7 secs

     total energy              =    -673.20733506 Ry
     estimated scf accuracy    <       0.16282387 Ry

     iteration #  6     ecut=   120.00 Ry     beta= 0.70
     Davidson diagonalization with overlap
     ethr =  8.14E-05,  avg # of iterations =  7.0

     negative rho (up, down):  1.000E-01 0.000E+00

     total cpu time spent up to now is       11.0 secs

     total energy              =    -673.22798208 Ry
     estimated scf accuracy    <       0.05320668 Ry

     iteration #  7     ecut=   120.00 Ry     beta= 0.70
     Davidson diagonalization with overlap
     ethr =  2.66E-05,  avg # of iterations =  2.0

     negative rho (up, down):  9.971E-02 0.000E+00

     total cpu time spent up to now is       12.0 secs

     total energy              =    -673.24098006 Ry
     estimated scf accuracy    <       0.00895835 Ry

     iteration #  8     ecut=   120.00 Ry     beta= 0.70
     Davidson diagonalization with overlap
     ethr =  4.48E-06,  avg # of iterations =  4.0

     negative rho (up, down):  9.966E-02 0.000E+00

     total cpu time spent up to now is       13.1 secs

     total energy              =    -673.24265366 Ry
     estimated scf accuracy    <       0.00090639 Ry

     iteration #  9     ecut=   120.00 Ry     beta= 0.70
     Davidson diagonalization with overlap
     ethr =  4.53E-07,  avg # of iterations =  2.0

     negative rho (up, down):  9.965E-02 0.000E+00

     total cpu time spent up to now is       14.1 secs

     total energy              =    -673.24286370 Ry
     estimated scf accuracy    <       0.00017292 Ry

     iteration # 10     ecut=   120.00 Ry     beta= 0.70
     Davidson diagonalization with overlap
     ethr =  8.65E-08,  avg # of iterations =  2.0

     negative rho (up, down):  9.961E-02 0.000E+00

     total cpu time spent up to now is       15.1 secs

     total energy              =    -673.24290331 Ry
     estimated scf accuracy    <       0.00001575 Ry

     iteration # 11     ecut=   120.00 Ry     beta= 0.70
     Davidson diagonalization with overlap
     ethr =  7.88E-09,  avg # of iterations =  2.0

     negative rho (up, down):  9.959E-02 0.000E+00

     total cpu time spent up to now is       16.1 secs

     total energy              =    -673.24290652 Ry
     estimated scf accuracy    <       0.00000267 Ry

     iteration # 12     ecut=   120.00 Ry     beta= 0.70
     Davidson diagonalization with overlap
     ethr =  1.33E-09,  avg # of iterations =  2.0

     negative rho (up, down):  9.958E-02 0.000E+00

     total cpu time spent up to now is       17.1 secs

     End of self-consistent calculation

          k = 0.0000 0.0000 0.0000 (  5575 PWs)   bands (ev):

   -92.2456 -83.0640 -45.5143 -34.7424 -24.5986 -20.0995 -19.3888 -10.6254
    -1.3924   0.7630   7.9741  12.0686  16.0724  19.5114  20.9484  21.9173
    23.4144  28.0980  31.2049  35.6481  37.2857  38.5793  40.8364  42.1496
    44.6844  45.9416  46.4427  49.5242  50.9515  53.3920  53.8962  56.4435
    58.3776  60.7190  62.3204  64.1027  65.0840  67.1640  69.2500  71.1116
    71.2429  72.2046  74.5097  74.8977  75.5654  78.4826  79.3526  80.1581
    81.8014  83.5501  84.2277  84.8713  85.7349  85.9208  87.6235  88.9406
    90.2815  91.5538  92.1698  93.0521  94.5549  95.5490  96.5889  97.9207
    98.3987  99.1175 101.0604 102.7759 104.3386 105.7198 106.9010 108.0772
   108.4069 109.6947 110.8730 112.0085 112.9522 113.5346 114.5355 115.5901
   116.9348 117.2341 118.2400 119.2858 120.4452 121.1265 122.1230 123.4526
   123.9362 124.9316 125.4447 126.4787 127.2511 128.0350 128.8476 130.2335
   130.8285 131.1953 131.8607 134.7363 134.8639 135.2832 136.4138 137.0593
   137.9577 138.6475 140.2717 141.2943 141.6721 141.8549 142.7678 143.0476
   144.4616 145.2870 146.7400 147.5549 147.8801 148.5602 149.3032 150.0077

     the Fermi energy is   134.7971 ev

!    total energy              =    -673.24290706 Ry
     estimated scf accuracy    <       0.00000031 Ry
     smearing contrib. (-TS)   =      -0.02460863 Ry
     internal energy E=F+TS    =    -673.21829842 Ry

     The total energy is F=E-TS. E is the sum of the following terms:
     one-electron contribution =     -22.38522279 Ry
     hartree contribution      =     796.92597484 Ry
     xc contribution           =    -811.92234999 Ry
     ewald contribution        =    -635.83670049 Ry

     convergence has been achieved in  12 iterations

     negative rho (up, down):  9.958E-02 0.000E+00

     Forces acting on atoms (cartesian axes, Ry/au):

     atom    1 type  1   force =    -6.35588874  -70.33537746   29.78410154
     atom    2 type  1   force =    15.91214538    8.48037546  -22.98157466
     atom    3 type  2   force =   -76.87561441   27.11842488  278.87237088
     atom    4 type  2   force =   -67.81027019  177.98890025  -44.75998494
     atom    5 type  3   force =     4.87381783 -317.95415984  -82.76578268
     atom    6 type  3   force =  -280.89356059 -201.69246155 -121.38495514
     atom    7 type  4   force =    23.33073338   53.20548424  -17.68088136
     atom    8 type  4   force =   272.07547027   71.64978574   51.10633180
     atom    9 type  1   force =   -82.60221356 -162.72983356   12.31744059
     atom   10 type  1   force =     7.28451868   46.63103215   13.44297735
     atom   11 type  2   force =   409.08102037  274.72282912  279.84159747
     atom   12 type  2   force =   -45.62052176   24.44816833 -249.45351065
     atom   13 type  3   force =    64.59930795 -219.42135199 -152.64090931
     atom   14 type  3   force =    37.55219393  -16.91579917   10.69080945
     atom   15 type  4   force =  -144.26653780  122.43144418 -154.44262071
     atom   16 type  4   force =  -130.28460075  182.37253921  170.05459037
     The non-local contrib.  to forces
     atom    1 type  1   force =    -1.25352760   11.61131148   -3.51794123
     atom    2 type  1   force =    -2.51660391    4.41426109    5.75314473
     atom    3 type  2   force =     3.26152905   19.49173438    3.78891476
     atom    4 type  2   force =   -14.38288465    7.99882386   15.14576834
     atom    5 type  3   force =     6.59870645    9.25740641  -17.37842326
     atom    6 type  3   force =   -14.99449090  -39.73213641  -19.25553533
     atom    7 type  4   force =     5.86043805    1.48191781   -4.11668198
     atom    8 type  4   force =     9.33395166    3.97637195    2.08433795
     atom    9 type  1   force =    19.04088824   40.44096001   -3.01469114
     atom   10 type  1   force =    -0.96876142   -7.56597837   -1.93136401
     atom   11 type  2   force =    18.95961007   20.79930450    7.93733731
     atom   12 type  2   force =    -7.23514271   14.29796109   -7.71321428
     atom   13 type  3   force =    -0.56459379    8.87919778   28.13034613
     atom   14 type  3   force =    -9.41584671   -1.00906339   -3.28771728
     atom   15 type  4   force =    -2.47858265    8.68226840   -3.61360992
     atom   16 type  4   force =     0.81241836    7.02259493    7.90680308
     The ionic contribution  to forces
     atom    1 type  1   force =   -31.20147099 -190.60012636   53.86572568
     atom    2 type  1   force =    56.45053364   69.70881913  -55.04514527
     atom    3 type  2   force =   -86.96673935  -93.95474529  417.77143720
     atom    4 type  2   force =    59.46263549  227.07634150  -43.99697968
     atom    5 type  3   force =    14.83396662 -444.97736908  -46.79429830
     atom    6 type  3   force =  -323.39369812 -108.81657667  -97.94362769
     atom    7 type  4   force =    26.81056249  133.47221302   14.25549724
     atom    8 type  4   force =   419.18981900  109.44401973   68.59524590
     atom    9 type  1   force =  -174.12044593 -279.47406669   28.58846421
     atom   10 type  1   force =    -4.64933861  140.20763275    9.57821862
     atom   11 type  2   force =   392.96413535  373.66011410  300.63575684
     atom   12 type  2   force =   -82.76290321   -7.85608894 -353.45351643
     atom   13 type  3   force =    81.00896814 -337.90415273 -272.53153557
     atom   14 type  3   force =   121.10080025  -75.71185582   18.46845408
     atom   15 type  4   force =  -226.30628584  222.64935265 -189.21371574
     atom   16 type  4   force =  -242.42053893  263.07648869  147.22001891
     The local contribution  to forces
     atom    1 type  1   force =    25.98594599  105.35843920  -19.34502302
     atom    2 type  1   force =   -37.21662985  -65.56013805   25.16580258
     atom    3 type  2   force =     6.32269591  101.51447564 -140.88618497
     atom    4 type  2   force =  -112.52097823  -55.94987911  -16.11720437
     atom    5 type  3   force =   -16.67217235  113.46616387  -16.63208669
     atom    6 type  3   force =    58.15705622  -49.24473421   -3.13152510
     atom    7 type  4   force =    -9.23058604  -81.06985373  -27.88846384
     atom    8 type  4   force =  -154.59765048  -41.32945014  -19.25410992
     atom    9 type  1   force =    68.21486579   67.37260617  -12.77722281
     atom   10 type  1   force =    13.23043854  -83.86808314    6.31112981
     atom   11 type  2   force =    -1.11264443 -118.57584320  -27.48866741
     atom   12 type  2   force =    43.89134385   18.48128989  110.64596112
     atom   13 type  3   force =   -15.35871305  106.25041902   86.94210209
     atom   14 type  3   force =   -73.02312486   59.62585712   -4.07417480
     atom   15 type  4   force =    82.94329134 -107.67699248   36.68550905
     atom   16 type  4   force =   110.27323150  -86.58602229   15.72629868
     The core correction contribution to forces
     atom    1 type  1   force =     0.11404921    3.29457730   -1.21866720
     atom    2 type  1   force =    -0.80613312   -0.08174388    1.14533960
     atom    3 type  2   force =     0.50814026    0.06664690   -1.80187439
     atom    4 type  2   force =    -0.36811955   -1.13570932    0.20828743
     atom    5 type  3   force =     0.11447421    4.29844165   -1.96133184
     atom    6 type  3   force =    -0.66370651   -3.89791993   -1.05473869
     atom    7 type  4   force =    -0.10901780   -0.67764209    0.06865116
     atom    8 type  4   force =    -1.85102774   -0.44014045   -0.31914859
     atom    9 type  1   force =     4.26093142    8.93134301   -0.47908058
     atom   10 type  1   force =    -0.32693896   -2.14219047   -0.51439818
     atom   11 type  2   force =    -1.73039119   -1.15991708   -1.24306260
     atom   12 type  2   force =     0.48748285   -0.47486262    1.06723751
     atom   13 type  3   force =    -0.48492339    3.35210357    4.81816116
     atom   14 type  3   force =    -1.11039383    0.17774730   -0.41590475
     atom   15 type  4   force =     1.57341838   -1.22242917    1.69853555
     atom   16 type  4   force =     1.05096399   -1.13971228   -0.79844777
     The Hubbard contrib.    to forces
     atom    1 type  1   force =     0.00000000    0.00000000    0.00000000
     atom    2 type  1   force =     0.00000000    0.00000000    0.00000000
     atom    3 type  2   force =     0.00000000    0.00000000    0.00000000
     atom    4 type  2   force =     0.00000000    0.00000000    0.00000000
     atom    5 type  3   force =     0.00000000    0.00000000    0.00000000
     atom    6 type  3   force =     0.00000000    0.00000000    0.00000000
     atom    7 type  4   force =     0.00000000    0.00000000    0.00000000
     atom    8 type  4   force =     0.00000000    0.00000000    0.00000000
     atom    9 type  1   force =     0.00000000    0.00000000    0.00000000
     atom   10 type  1   force =     0.00000000    0.00000000    0.00000000
     atom   11 type  2   force =     0.00000000    0.00000000    0.00000000
     atom   12 type  2   force =     0.00000000    0.00000000    0.00000000
     atom   13 type  3   force =     0.00000000    0.00000000    0.00000000
     atom   14 type  3   force =     0.00000000    0.00000000    0.00000000
     atom   15 type  4   force =     0.00000000    0.00000000    0.00000000
     atom   16 type  4   force =     0.00000000    0.00000000    0.00000000
     The SCF correction term to forces
     atom    1 type  1   force =    -0.00109742    0.00034333    0.00005081
     atom    2 type  1   force =     0.00076654   -0.00090043   -0.00067280
     atom    3 type  2   force =    -0.00145233    0.00023566    0.00012177
     atom    4 type  2   force =    -0.00113531   -0.00075428    0.00018684
     atom    5 type  3   force =    -0.00136917    0.00111971    0.00040090
     atom    6 type  3   force =     0.00106665   -0.00117194    0.00051516
     atom    7 type  4   force =    -0.00087539   -0.00122837    0.00015956
     atom    8 type  4   force =     0.00016576   -0.00109295    0.00004995
     atom    9 type  1   force =     0.00133486   -0.00075366    0.00001440
     atom   10 type  1   force =    -0.00109295   -0.00042623   -0.00056539
     atom   11 type  2   force =     0.00009851   -0.00090680    0.00027683
     atom   12 type  2   force =    -0.00151460   -0.00020870    0.00006494
     atom   13 type  3   force =    -0.00164201    0.00100277    0.00006038
     atom   14 type  3   force =     0.00054702    0.00143802    0.00019570
     atom   15 type  4   force =     0.00140890   -0.00083282    0.00070385
     atom   16 type  4   force =    -0.00088772   -0.00088743   -0.00003903

     Total force =  1046.567859     Total SCF correction =     0.005916


     Computing stress (Cartesian axis) and pressure


     negative rho (up, down):  9.958E-02 0.000E+00
          total   stress  (Ry/bohr**3)                   (kbar)     P=   854334.00
   5.27969727   0.07401309   0.82773230       776670.28    10887.70   121763.63
   0.07401309   6.49846880   0.79576795        10887.70   955957.76   117061.51
   0.82773230   0.79576795   5.64476753       121763.63   117061.51   830373.97


     BFGS Geometry Optimization
     Energy error            =      0.0E+00 Ry
     Gradient error          =      4.1E+02 Ry/Bohr

     number of scf cycles    =   1
     number of bfgs steps    =   0

     energy             new  =    -673.2429070587 Ry

     new trust radius        =       0.5000000000 bohr
     new conv_thr            =       0.0000010000 Ry


ATOMIC_POSITIONS (angstrom)
Hf           -0.0029676054       -0.0328400406        0.0139063888
Hf            1.6774294831        1.6739595419        1.6592697548
Nb            0.5720566228        0.2667126538       -0.6260170759
Nb            0.9444301912        0.7022843428        2.0685495512
Ta            0.7442659090       -0.1219907806        2.0507231502
Ta            2.5149326772        1.1015774577        0.1958733961
Zr            0.1611396284        0.9733112746       -0.3848773798
Zr            1.6194309552        0.7762090905        2.2012587993
Hf            2.4222358351        0.4663473645        0.2424139255
Hf            0.1187615344        1.8734305420        1.3159021010
Nb            3.1479132218        1.5141854112        0.5869965719
Nb            0.3006021021        0.5520125399        1.1818094944
Ta            0.6659795544       -0.1119491702        1.2974799716
Ta            1.5592335329        2.6523399285        2.0207152957
Zr            2.2206398097        1.5359148102       -0.2320091167
Zr            0.1053669831        0.9418750457        1.7843714973



     Writing config-only to output data dir outdir/pwscf.save/
     NEW-OLD atomic charge density approx. for the potential

     negative rho (up, down):  7.149E-02 0.000E+00

     total cpu time spent up to now is       19.2 secs

     Self-consistent Calculation

     iteration #  1     ecut=   120.00 Ry     beta= 0.70
     Davidson diagonalization with overlap
     ethr =  1.00E-06,  avg # of iterations = 13.0

     negative rho (up, down):  1.229E-01 0.000E+00

     total cpu time spent up to now is       22.9 secs

     total energy              =   -1200.32389717 Ry
     estimated scf accuracy    <      15.92541135 Ry

     iteration #  2     ecut=   120.00 Ry     beta= 0.70
     Davidson diagonalization with overlap
     ethr =  7.96E-03,  avg # of iterations =  3.0

     negative rho (up, down):  1.342E-01 0.000E+00

     total cpu time spent up to now is       24.3 secs

     total energy              =   -1199.86285772 Ry
     estimated scf accuracy    <      46.79404855 Ry

     iteration #  3     ecut=   120.00 Ry     beta= 0.70
     Davidson diagonalization with overlap
     ethr =  7.96E-03,  avg # of iterations =  2.0

     negative rho (up, down):  1.386E-01 0.000E+00

     total cpu time spent up to now is       25.3 secs

     total energy              =   -1208.83851605 Ry
     estimated scf accuracy    <       1.27617750 Ry

     iteration #  4     ecut=   120.00 Ry     beta= 0.70
     Davidson diagonalization with overlap
     ethr =  6.38E-04,  avg # of iterations =  2.0

     negative rho (up, down):  1.428E-01 0.000E+00

     total cpu time spent up to now is       26.3 secs

     total energy              =   -1209.13256073 Ry
     estimated scf accuracy    <       0.11018890 Ry

     iteration #  5     ecut=   120.00 Ry     beta= 0.70
     Davidson diagonalization with overlap
     ethr =  5.51E-05,  avg # of iterations =  3.0

     negative rho (up, down):  1.442E-01 0.000E+00

     total cpu time spent up to now is       27.4 secs

     total energy              =   -1209.15400169 Ry
     estimated scf accuracy    <       0.05917380 Ry

     iteration #  6     ecut=   120.00 Ry     beta= 0.70
     Davidson diagonalization with overlap
     ethr =  2.96E-05,  avg # of iterations =  2.0

     negative rho (up, down):  1.441E-01 0.000E+00

     total cpu time spent up to now is       28.3 secs

     total energy              =   -1209.16532512 Ry
     estimated scf accuracy    <       0.00556842 Ry

     iteration #  7     ecut=   120.00 Ry     beta= 0.70
     Davidson diagonalization with overlap
     ethr =  2.78E-06,  avg # of iterations =  5.0

     negative rho (up, down):  1.440E-01 0.000E+00

     total cpu time spent up to now is       29.5 secs

     total energy              =   -1209.16660798 Ry
     estimated scf accuracy    <       0.00122394 Ry

     iteration #  8     ecut=   120.00 Ry     beta= 0.70
     Davidson diagonalization with overlap
     ethr =  6.12E-07,  avg # of iterations =  2.0

     negative rho (up, down):  1.440E-01 0.000E+00

     total cpu time spent up to now is       30.6 secs

     total energy              =   -1209.16683217 Ry
     estimated scf accuracy    <       0.00021421 Ry

     iteration #  9     ecut=   120.00 Ry     beta= 0.70
     Davidson diagonalization with overlap
     ethr =  1.07E-07,  avg # of iterations =  2.0

     negative rho (up, down):  1.439E-01 0.000E+00

     total cpu time spent up to now is       31.6 secs

     total energy              =   -1209.16688051 Ry
     estimated scf accuracy    <       0.00004036 Ry

     iteration # 10     ecut=   120.00 Ry     beta= 0.70
     Davidson diagonalization with overlap
     ethr =  2.02E-08,  avg # of iterations =  2.0

     negative rho (up, down):  1.439E-01 0.000E+00

     total cpu time spent up to now is       32.6 secs

     total energy              =   -1209.16688759 Ry
     estimated scf accuracy    <       0.00000232 Ry

     iteration # 11     ecut=   120.00 Ry     beta= 0.70
     Davidson diagonalization with overlap
     ethr =  1.16E-09,  avg # of iterations =  2.0

     negative rho (up, down):  1.439E-01 0.000E+00

     total cpu time spent up to now is       33.6 secs

     End of self-consistent calculation

          k = 0.0000 0.0000 0.0000 (  5575 PWs)   bands (ev):

   -98.9508 -79.1573 -35.9328 -26.7253 -17.3754 -12.5103  -6.6554   0.2326
     3.5946  10.1415  12.4032  15.1417  17.7323  20.0766  27.1500  28.2183
    29.1175  33.9932  35.6425  39.6473  42.6526  44.4307  45.6379  47.3564
    48.0105  53.7375  54.9547  55.9194  57.5544  58.1510  59.4761  62.5666
    62.7771  63.9985  66.3074  66.9856  68.5699  70.0185  73.5012  75.4735
    75.8780  77.4813  78.6206  79.6872  81.5100  83.0020  84.4351  85.0958
    86.0243  87.0421  88.5303  89.3074  89.7607  91.4733  93.2610  93.9797
    95.7239  95.9715  96.5461  97.2055  98.6523  99.5030 100.1634 101.0465
   102.2318 104.2142 105.6441 106.7219 108.0036 108.2676 109.1067 109.4882
   110.6015 112.2556 113.6119 114.6789 115.5299 116.5359 116.9137 117.2110
   118.8936 120.8655 121.1422 121.9026 123.2184 124.4709 124.6506 125.2365
   125.6669 126.9831 127.1016 128.2293 129.2065 129.4802 130.9908 131.8965
   132.4025 132.9799 134.3103 134.8140 135.4396 135.8865 137.5129 138.0229
   140.1675 140.5730 140.8902 141.9295 142.3035 143.0339 143.8837 144.7819
   145.4256 146.1599 147.1179 147.9172 148.4092 149.0968 149.6643 150.0951

     the Fermi energy is   135.1267 ev

!    total energy              =   -1209.16688771 Ry
     estimated scf accuracy    <       0.00000092 Ry
     smearing contrib. (-TS)   =      -0.00835735 Ry
     internal energy E=F+TS    =   -1209.15853036 Ry

     The total energy is F=E-TS. E is the sum of the following terms:
     one-electron contribution =     440.76750902 Ry
     hartree contribution      =     588.72123411 Ry
     xc contribution           =    -795.66030018 Ry
     ewald contribution        =   -1442.98697331 Ry

     convergence has been achieved in  11 iterations

     negative rho (up, down):  1.439E-01 0.000E+00

     Forces acting on atoms (cartesian axes, Ry/au):

     atom    1 type  1   force =   -18.73142590  -69.12208800   33.54252497
     atom    2 type  1   force =    13.93735895   10.72264549  -28.44118988
     atom    3 type  2   force =    16.28031391   -2.42886776   77.46648050
     atom    4 type  2   force =   -22.07438032   88.81760308  -13.83037117
     atom    5 type  3   force =    -8.02928191 -138.00751598   20.34359942
     atom    6 type  3   force =   -11.48149708  -19.82630491   49.32448334
     atom    7 type  4   force =     2.83954477   64.36792095   -1.73616499
     atom    8 type  4   force =   116.77376726    1.32918407   29.54296467
     atom    9 type  1   force =   -50.54268631 -109.05499072   21.92138045
     atom   10 type  1   force =    17.99063317   60.02415101   43.02935715
     atom   11 type  2   force =    35.46637942   34.70700049   -9.61960528
     atom   12 type  2   force =   -38.47362962   46.29739038  -99.21241239
     atom   13 type  3   force =    35.45040459 -112.64960776 -106.42566627
     atom   14 type  3   force =    45.01175064  -12.64838854   13.97838345
     atom   15 type  4   force =   -69.24145893  107.51921008  -88.92087880
     atom   16 type  4   force =   -65.17579263   49.95265813   59.03711483
     The non-local contrib.  to forces
     atom    1 type  1   force =     0.06555475    9.79408798   -2.31502010
     atom    2 type  1   force =    -2.53434486    5.18174111    7.31560407
     atom    3 type  2   force =     1.64196680   19.10387994   -0.22192704
     atom    4 type  2   force =     2.55745509    6.65426192   15.33232326
     atom    5 type  3   force =     7.52064576    6.98150361  -21.73258749
     atom    6 type  3   force =    -5.04659575  -59.94810569   -6.91302242
     atom    7 type  4   force =     5.15197709   -0.40422677   -3.88429891
     atom    8 type  4   force =    -5.91924718   -1.72032754   -0.07468515
     atom    9 type  1   force =    19.52471016   76.06909961   -7.80346152
     atom   10 type  1   force =    -0.07617299   -7.46897070   -1.71491386
     atom   11 type  2   force =     4.88237605    3.78617641   -1.98534290
     atom   12 type  2   force =   -10.06414413   15.25257003    4.90161364
     atom   13 type  3   force =    -0.52335549    6.71070266   30.16634598
     atom   14 type  3   force =   -12.61477991   -0.91867725   -4.00251641
     atom   15 type  4   force =    -2.72293033    6.38599229   -3.30337632
     atom   16 type  4   force =     7.09993330   -4.07565329   -3.39323424
     The ionic contribution  to forces
     atom    1 type  1   force =   -44.95391567 -175.64149394   48.57519637
     atom    2 type  1   force =    51.95530390   60.49545556  -64.93887085
     atom    3 type  2   force =    25.37651214 -107.02933459  182.15203463
     atom    4 type  2   force =    60.14199374  137.22199465  -26.22060041
     atom    5 type  3   force =    -3.74050143 -252.63420060   55.42640431
     atom    6 type  3   force =   -66.92259747   75.93172192   65.28518116
     atom    7 type  4   force =     0.36567942  146.49315179   28.51583941
     atom    8 type  4   force =   235.68833263   14.75747559   37.34453738
     atom    9 type  1   force =  -133.76081290 -259.58476185   46.51309842
     atom   10 type  1   force =     1.14818227  139.46878335   39.99056250
     atom   11 type  2   force =    34.05144914  148.05701603  -10.68126098
     atom   12 type  2   force =   -51.16139180    4.60533105 -182.74748538
     atom   13 type  3   force =    58.05111592 -208.44119621 -209.05381577
     atom   14 type  3   force =   125.72259579  -52.78382641   23.98815627
     atom   15 type  4   force =  -121.92671219  206.74097947 -100.45995656
     atom   16 type  4   force =  -170.03523349  122.34290421   66.31097950
     The local contribution  to forces
     atom    1 type  1   force =    25.52950679   93.66334748  -11.30094352
     atom    2 type  1   force =   -34.87639018  -54.82012124   27.77546182
     atom    3 type  2   force =   -10.61745514   85.24524698 -103.82542901
     atom    4 type  2   force =   -84.78721440  -54.55783543   -3.13407465
     atom    5 type  3   force =   -12.19261898  104.84449119  -11.28067784
     atom    6 type  3   force =    60.40496850  -30.71215665   -8.85849051
     atom    7 type  4   force =    -2.83389743  -80.85682228  -26.24520095
     atom    8 type  4   force =  -111.50775820  -11.68816605   -7.41031177
     atom    9 type  1   force =    60.73317412   65.79996824  -15.58193869
     atom   10 type  1   force =    17.58274920  -69.31885188    6.40183122
     atom   11 type  2   force =    -3.23581756 -116.90531259    2.88808569
     atom   12 type  2   force =    22.52996698   26.61479515   77.81605825
     atom   13 type  3   force =   -21.55655044   86.92952269   68.44872410
     atom   14 type  3   force =   -66.67666907   40.93938796   -5.50134652
     atom   15 type  4   force =    54.56293785 -104.31007835   13.70824806
     atom   16 type  4   force =    96.83789383  -67.61627580   -3.16958154
     The core correction contribution to forces
     atom    1 type  1   force =     0.62722148    3.06184542   -1.41745443
     atom    2 type  1   force =    -0.60624804   -0.13527663    1.40732406
     atom    3 type  2   force =    -0.12188450    0.25200863   -0.64167896
     atom    4 type  2   force =     0.01173795   -0.49936176    0.18954309
     atom    5 type  3   force =     0.38195370    2.80052896   -2.07104696
     atom    6 type  3   force =     0.08366306   -5.09629439   -0.18850159
     atom    7 type  4   force =     0.15469515   -0.86272005   -0.12504352
     atom    8 type  4   force =    -1.48680429   -0.01845215   -0.31873634
     atom    9 type  1   force =     2.96063044    8.66203655   -1.20535772
     atom   10 type  1   force =    -0.66492436   -2.65906211   -1.64546265
     atom   11 type  2   force =    -0.23176170   -0.23144746    0.16194950
     atom   12 type  2   force =     0.22109277   -0.17290338    0.82107786
     atom   13 type  3   force =    -0.52144004    2.15180465    4.01567465
     atom   14 type  3   force =    -1.41895580    0.11291101   -0.50665819
     atom   15 type  4   force =     0.84652151   -1.29750855    1.13259848
     atom   16 type  4   force =     0.92065105   -0.69695333   -0.71120346
     The Hubbard contrib.    to forces
     atom    1 type  1   force =     0.00000000    0.00000000    0.00000000
     atom    2 type  1   force =     0.00000000    0.00000000    0.00000000
     atom    3 type  2   force =     0.00000000    0.00000000    0.00000000
     atom    4 type  2   force =     0.00000000    0.00000000    0.00000000
     atom    5 type  3   force =     0.00000000    0.00000000    0.00000000
     atom    6 type  3   force =     0.00000000    0.00000000    0.00000000
     atom    7 type  4   force =     0.00000000    0.00000000    0.00000000
     atom    8 type  4   force =     0.00000000    0.00000000    0.00000000
     atom    9 type  1   force =     0.00000000    0.00000000    0.00000000
     atom   10 type  1   force =     0.00000000    0.00000000    0.00000000
     atom   11 type  2   force =     0.00000000    0.00000000    0.00000000
     atom   12 type  2   force =     0.00000000    0.00000000    0.00000000
     atom   13 type  3   force =     0.00000000    0.00000000    0.00000000
     atom   14 type  3   force =     0.00000000    0.00000000    0.00000000
     atom   15 type  4   force =     0.00000000    0.00000000    0.00000000
     atom   16 type  4   force =     0.00000000    0.00000000    0.00000000
     The SCF correction term to forces
     atom    1 type  1   force =     0.00030702   -0.00014601    0.00085207
     atom    2 type  1   force =    -0.00086159    0.00057562   -0.00060358
     atom    3 type  2   force =     0.00127489   -0.00093980    0.00358630
     atom    4 type  2   force =     0.00174756   -0.00172737    0.00254297
     atom    5 type  3   force =     0.00133931   -0.00011021    0.00161281
     atom    6 type  3   force =    -0.00083514   -0.00174117   -0.00057789
     atom    7 type  4   force =     0.00119081   -0.00173282    0.00264440
     atom    8 type  4   force =    -0.00065543   -0.00161685    0.00226596
     atom    9 type  1   force =    -0.00028787   -0.00160433   -0.00085463
     atom   10 type  1   force =     0.00089931    0.00198127   -0.00255465
     atom   11 type  2   force =     0.00023376    0.00029702   -0.00293118
     atom   12 type  2   force =     0.00094682   -0.00267353   -0.00357134
     atom   13 type  3   force =     0.00073490   -0.00071263   -0.00248981
     atom   14 type  3   force =    -0.00034010    0.00154509    0.00085372
     atom   15 type  4   force =    -0.00117549   -0.00044585    0.00171295
     atom   16 type  4   force =     0.00106295   -0.00163474    0.00025997

     Total force =   402.779033     Total SCF correction =     0.011012


     Computing stress (Cartesian axis) and pressure


     negative rho (up, down):  1.439E-01 0.000E+00
          total   stress  (Ry/bohr**3)                   (kbar)     P=   627786.16
   3.48901219  -0.49418587   0.41056758       513251.41   -72697.25    60396.58
  -0.49418587   5.06621239   0.07010695       -72697.25   745265.57    10313.09
   0.41056758   0.07010695   4.24758612        60396.58    10313.09   624841.49

     Energy error            =      5.4E+02 Ry
     Gradient error          =      1.4E+02 Ry/Bohr

     number of scf cycles    =   2
     number of bfgs steps    =   1

     energy             old  =    -673.2429070587 Ry
     energy             new  =   -1209.1668877078 Ry

     CASE: energy            _new < energy            _old

     new trust radius        =       0.8000000000 bohr
     new conv_thr            =       0.0000010000 Ry


ATOMIC_POSITIONS (angstrom)
Hf           -0.0693524304       -0.2444712749        0.1196951424
Hf            1.7188711159        1.7085175438        1.5679536324
Nb            0.6883538806        0.2382330782       -0.5311021637
Nb            0.9090949002        0.9119112088        2.0480282696
Ta            0.7104062725       -0.4182809361        2.1865901749
Ta            2.6712309196        1.1699632651        0.4689073210
Zr            0.1552964456        1.1791284146       -0.3788754627
Zr            1.8679710840        0.7302862046        2.2767443767
Hf            2.2896576579        0.1692634486        0.3166342174
Hf            0.1816818027        2.0674804973        1.4692228824
Nb            2.9912444666        1.4501920204        0.3515715392
Nb            0.1874096215        0.7098775196        0.9836573279
Ta            0.7542311808       -0.3823233285        1.0031741325
Ta            1.7029128957        2.6164912466        2.0660254139
Zr            2.0611334359        1.8558437836       -0.4587720366
Zr           -0.0486928142        1.0012673202        1.8869115581



     Writing config-only to output data dir outdir/pwscf.save/
     NEW-OLD atomic charge density approx. for the potential

     negative rho (up, down):  1.513E-01 0.000E+00

     total cpu time spent up to now is       35.8 secs

     Self-consistent Calculation

     iteration #  1     ecut=   120.00 Ry     beta= 0.70
     Davidson diagonalization with overlap
     ethr =  1.00E-06,  avg # of iterations = 15.0

     negative rho (up, down):  1.818E-01 0.000E+00

     total cpu time spent up to now is       39.6 secs

     total energy              =   -1415.54167408 Ry
     estimated scf accuracy    <      45.95395226 Ry

     iteration #  2     ecut=   120.00 Ry     beta= 0.70
     Davidson diagonalization with overlap
     ethr =  1.00E-02,  avg # of iterations =  4.0

     negative rho (up, down):  2.037E-01 0.000E+00

     total cpu time spent up to now is       41.1 secs

     total energy              =   -1414.14746030 Ry
     estimated scf accuracy    <     151.78186239 Ry

     iteration #  3     ecut=   120.00 Ry     beta= 0.70
     Davidson diagonalization with overlap
     ethr =  1.00E-02,  avg # of iterations =  3.0

     negative rho (up, down):  2.205E-01 0.000E+00

     total cpu time spent up to now is       42.3 secs

     total energy              =   -1441.81723435 Ry
     estimated scf accuracy    <       1.63051848 Ry

     iteration #  4     ecut=   120.00 Ry     beta= 0.70
     Davidson diagonalization with overlap
     ethr =  8.15E-04,  avg # of iterations =  3.0

     negative rho (up, down):  2.322E-01 0.000E+00

     total cpu time spent up to now is       43.4 secs

     total energy              =   -1442.16048533 Ry
     estimated scf accuracy    <       0.44026455 Ry

     iteration #  5     ecut=   120.00 Ry     beta= 0.70
     Davidson diagonalization with overlap
     ethr =  2.20E-04,  avg # of iterations =  3.0

     negative rho (up, down):  2.370E-01 0.000E+00

     total cpu time spent up to now is       44.5 secs

     total energy              =   -1442.24941915 Ry
     estimated scf accuracy    <       0.13019649 Ry

     iteration #  6     ecut=   120.00 Ry     beta= 0.70
     Davidson diagonalization with overlap
     ethr =  6.51E-05,  avg # of iterations =  9.0

     negative rho (up, down):  2.383E-01 0.000E+00

     total cpu time spent up to now is       45.8 secs

     total energy              =   -1442.27359756 Ry
     estimated scf accuracy    <       0.02814591 Ry

     iteration #  7     ecut=   120.00 Ry     beta= 0.70
     Davidson diagonalization with overlap
     ethr =  1.41E-05,  avg # of iterations =  6.0

     negative rho (up, down):  2.384E-01 0.000E+00

     total cpu time spent up to now is       46.9 secs

     total energy              =   -1442.27996124 Ry
     estimated scf accuracy    <       0.00248647 Ry

     iteration #  8     ecut=   120.00 Ry     beta= 0.70
     Davidson diagonalization with overlap
     ethr =  1.24E-06,  avg # of iterations = 13.0

     negative rho (up, down):  2.384E-01 0.000E+00

     total cpu time spent up to now is       48.3 secs

     total energy              =   -1442.28043615 Ry
     estimated scf accuracy    <       0.00012156 Ry

     iteration #  9     ecut=   120.00 Ry     beta= 0.70
     Davidson diagonalization with overlap
     ethr =  6.08E-08,  avg # of iterations =  2.0

     negative rho (up, down):  2.384E-01 0.000E+00

     total cpu time spent up to now is       49.3 secs

     total energy              =   -1442.28046814 Ry
     estimated scf accuracy    <       0.00002117 Ry

     iteration # 10     ecut=   120.00 Ry     beta= 0.70
     Davidson diagonalization with overlap
     ethr =  1.06E-08,  avg # of iterations =  2.0

     negative rho (up, down):  2.384E-01 0.000E+00

     total cpu time spent up to now is       50.4 secs

     total energy              =   -1442.28047309 Ry
     estimated scf accuracy    <       0.00000188 Ry

     iteration # 11     ecut=   120.00 Ry     beta= 0.70
     Davidson diagonalization with overlap
     ethr =  9.38E-10,  avg # of iterations =  2.0

     negative rho (up, down):  2.383E-01 0.000E+00

     total cpu time spent up to now is       51.5 secs

     End of self-consistent calculation

          k = 0.0000 0.0000 0.0000 (  5575 PWs)   bands (ev):

   -23.6833 -12.2489  -0.3988   3.6619   6.8554   8.0033  14.0601  18.0903
    22.0509  25.3385  25.8720  29.6289  32.4062  36.6060  40.8605  41.8324
    42.7566  46.4550  48.3132  49.8812  52.5678  53.8346  56.5433  58.4751
    59.3078  61.1222  62.3074  64.5774  65.9615  68.2259  69.2748  70.3362
    70.9283  72.7299  73.6976  76.9354  77.5032  78.2861  79.3161  81.3231
    81.6333  83.4028  84.6270  85.4724  85.9669  87.8326  88.7088  89.0472
    89.9909  91.4387  92.7163  93.6723  94.6944  95.4091  96.3014  97.3849
    98.1456  99.9880 100.8521 101.2971 102.1745 103.7389 105.0127 106.2365
   106.7930 107.2805 107.9557 109.5245 110.9715 111.4027 111.9284 113.6540
   115.2116 116.2066 116.6466 118.2072 119.3685 119.7450 121.0309 121.3972
   122.7622 123.3424 124.1303 124.7183 126.2070 126.8030 128.0564 128.7920
   129.3493 130.1266 131.9729 132.1820 133.0619 133.4261 134.4738 135.0237
   136.2286 136.8138 137.3117 137.6443 138.7524 139.3018 139.5361 140.8104
   141.6154 143.6718 144.1235 144.6057 145.4204 145.9684 146.9160 147.0756
   148.2905 148.9385 149.9558 151.0390 151.3253 152.2593 153.0871 153.4309

     the Fermi energy is   138.1985 ev

!    total energy              =   -1442.28047338 Ry
     estimated scf accuracy    <       0.00000030 Ry
     smearing contrib. (-TS)   =      -0.00080921 Ry
     internal energy E=F+TS    =   -1442.27966416 Ry

     The total energy is F=E-TS. E is the sum of the following terms:
     one-electron contribution =    1206.88842652 Ry
     hartree contribution      =     257.60026189 Ry
     xc contribution           =    -767.50734432 Ry
     ewald contribution        =   -2139.26100825 Ry

     convergence has been achieved in  11 iterations

     negative rho (up, down):  2.383E-01 0.000E+00

     Forces acting on atoms (cartesian axes, Ry/au):

     atom    1 type  1   force =    -8.56438210  -29.90418262   -5.09218945
     atom    2 type  1   force =     8.48680746   -7.81399617  -33.17486798
     atom    3 type  2   force =    14.65557733   24.31695480   46.24549382
     atom    4 type  2   force =    10.59784312   12.67797124  -13.24802338
     atom    5 type  3   force =   -22.06116266  -38.54773640  -12.40632433
     atom    6 type  3   force =  -348.77342468 -254.94525774  122.65042554
     atom    7 type  4   force =    23.96638132   13.08398585  -20.21429185
     atom    8 type  4   force =    28.35449591  -15.20917147    6.93675565
     atom    9 type  1   force =   -36.02603797  -21.10098837    3.04802669
     atom   10 type  1   force =   -14.63946917    4.22199424    0.28070165
     atom   11 type  2   force =   299.57172585  306.30656629 -101.51839766
     atom   12 type  2   force =    31.11417605  -15.20433373    0.16502468
     atom   13 type  3   force =    22.55752031    0.04247238  -22.43732009
     atom   14 type  3   force =    32.90066847   21.00249188    1.03455895
     atom   15 type  4   force =    -3.09010872    4.01901629   13.62658491
     atom   16 type  4   force =   -39.05061052   -2.94578646   14.10384285
     The non-local contrib.  to forces
     atom    1 type  1   force =    -0.34630711    6.98142527    2.41765794
     atom    2 type  1   force =    -1.54125030    5.21564620   10.31190408
     atom    3 type  2   force =     0.10671366    8.48876893    2.87535196
     atom    4 type  2   force =    -1.21998190   -2.08556780    2.92773411
     atom    5 type  3   force =    10.25278587    0.92071435   -4.66294776
     atom    6 type  3   force =     6.28863703   -8.39140450   -6.45321251
     atom    7 type  4   force =    -0.98678804    2.42989620    0.74305428
     atom    8 type  4   force =    -0.70140598   -0.08129720   -0.08428897
     atom    9 type  1   force =    12.21177125    7.31348630   -1.09279895
     atom   10 type  1   force =     3.80087705    1.26432122   -0.07739406
     atom   11 type  2   force =    12.97977601    7.18130466   -9.68018656
     atom   12 type  2   force =     1.00421508    1.66408448    7.24708811
     atom   13 type  3   force =    -8.95682374   -1.55861732    5.94483430
     atom   14 type  3   force =   -10.68143615  -10.02452271   -0.30796603
     atom   15 type  4   force =    -0.86743610    0.89282736    1.66520146
     atom   16 type  4   force =     3.64368789   -1.50223002    0.01311671
     The ionic contribution  to forces
     atom    1 type  1   force =   -29.53720126  -88.40897187   -7.92769221
     atom    2 type  1   force =    24.84856082    9.46483715  -77.41326000
     atom    3 type  2   force =    47.29709642  -31.00576031   96.82780982
     atom    4 type  2   force =    62.60135318   39.92709286  -36.22518080
     atom    5 type  3   force =   -36.22930479  -80.27554206    1.24713234
     atom    6 type  3   force =  -415.55632993 -230.56128978  139.15537509
     atom    7 type  4   force =    45.92091401   64.35173458  -20.16157733
     atom    8 type  4   force =    72.94074939  -41.94915280    5.23547284
     atom    9 type  1   force =   -94.05231427  -76.92947205   15.51005568
     atom   10 type  1   force =   -33.58594702   39.33883296   -4.03977408
     atom   11 type  2   force =   273.46816794  381.76873461  -93.71705666
     atom   12 type  2   force =    60.30271614  -47.23118806   -9.21025532
     atom   13 type  3   force =    65.51409082  -27.17851236  -59.21468788
     atom   14 type  3   force =    85.81907424   34.22751001   -3.24968363
     atom   15 type  4   force =   -24.98595242   48.62049225   36.10615177
     atom   16 type  4   force =  -104.76567326    5.84065488   17.07717039
     The local contribution  to forces
     atom    1 type  1   force =    21.13874974   50.04134410    0.17195125
     atom    2 type  1   force =   -14.45508080  -23.08522674   32.31242463
     atom    3 type  2   force =   -32.66167426   46.82892246  -53.08210284
     atom    4 type  2   force =   -50.61269782  -25.00776228   19.89716768
     atom    5 type  3   force =     3.14176055   39.89181869   -9.27776307
     atom    6 type  3   force =    58.40916676  -16.25455124   -9.37538782
     atom    7 type  4   force =   -20.68574694  -53.47314162   -1.02843297
     atom    8 type  4   force =   -43.46578886   26.66478767    1.85362180
     atom    9 type  1   force =    43.89572029   47.42765806  -11.17552477
     atom   10 type  1   force =    14.63158158  -36.09110482    4.42918114
     atom   11 type  2   force =    14.39556673  -81.14215267    1.47645142
     atom   12 type  2   force =   -29.96124465   30.16375944    2.03440711
     atom   13 type  3   force =   -33.24882627   28.77817504   30.23073302
     atom   14 type  3   force =   -41.19604685   -2.23768595    4.76975992
     atom   15 type  4   force =    22.69669740  -45.39539887  -24.03415003
     atom   16 type  4   force =    61.47303254   -7.21078171   -2.80086535
     The core correction contribution to forces
     atom    1 type  1   force =     0.18155935    1.48224718    0.24587553
     atom    2 type  1   force =    -0.36585675    0.59182579    1.61344432
     atom    3 type  2   force =    -0.08671409    0.00327484   -0.37453302
     atom    4 type  2   force =    -0.17090758   -0.15715457    0.15244464
     atom    5 type  3   force =     0.77347677    0.91595140    0.28782125
     atom    6 type  3   force =     2.08497870    0.26137342   -0.67619962
     atom    7 type  4   force =    -0.28131912   -0.22533714    0.23309495
     atom    8 type  4   force =    -0.41966276    0.15550357   -0.06803194
     atom    9 type  1   force =     1.91863121    1.08625001   -0.19351797
     atom   10 type  1   force =     0.51465525   -0.28814786   -0.03156618
     atom   11 type  2   force =    -1.27159408   -1.50103948    0.40236107
     atom   12 type  2   force =    -0.23086717    0.19681741    0.09301246
     atom   13 type  3   force =    -0.75084966    0.00208929    0.60092342
     atom   14 type  3   force =    -1.04174653   -0.96185319   -0.17767900
     atom   15 type  4   force =     0.06612758   -0.09748492   -0.11016114
     atom   16 type  4   force =     0.59868617   -0.07455142   -0.18572285
     The Hubbard contrib.    to forces
     atom    1 type  1   force =     0.00000000    0.00000000    0.00000000
     atom    2 type  1   force =     0.00000000    0.00000000    0.00000000
     atom    3 type  2   force =     0.00000000    0.00000000    0.00000000
     atom    4 type  2   force =     0.00000000    0.00000000    0.00000000
     atom    5 type  3   force =     0.00000000    0.00000000    0.00000000
     atom    6 type  3   force =     0.00000000    0.00000000    0.00000000
     atom    7 type  4   force =     0.00000000    0.00000000    0.00000000
     atom    8 type  4   force =     0.00000000    0.00000000    0.00000000
     atom    9 type  1   force =     0.00000000    0.00000000    0.00000000
     atom   10 type  1   force =     0.00000000    0.00000000    0.00000000
     atom   11 type  2   force =     0.00000000    0.00000000    0.00000000
     atom   12 type  2   force =     0.00000000    0.00000000    0.00000000
     atom   13 type  3   force =     0.00000000    0.00000000    0.00000000
     atom   14 type  3   force =     0.00000000    0.00000000    0.00000000
     atom   15 type  4   force =     0.00000000    0.00000000    0.00000000
     atom   16 type  4   force =     0.00000000    0.00000000    0.00000000
     The SCF correction term to forces
     atom    1 type  1   force =    -0.00120823   -0.00008697   -0.00000226
     atom    2 type  1   force =     0.00040907   -0.00093824    0.00059868
     atom    3 type  2   force =     0.00013019    0.00188922   -0.00105240
     atom    4 type  2   force =     0.00005183    0.00150337   -0.00020932
     atom    5 type  3   force =     0.00009353   -0.00053844   -0.00058739
     atom    6 type  3   force =     0.00009735    0.00075470   -0.00016990
     atom    7 type  4   force =    -0.00070400    0.00097416   -0.00045108
     atom    8 type  4   force =     0.00057871    0.00112763   -0.00003839
     atom    9 type  1   force =     0.00012815    0.00122964   -0.00020761
     atom   10 type  1   force =    -0.00066144   -0.00176692    0.00023451
     atom   11 type  2   force =    -0.00021616   -0.00014049    0.00001275
     atom   12 type  2   force =    -0.00066875    0.00233335    0.00075202
     atom   13 type  3   force =    -0.00009626   -0.00052193    0.00085675
     atom   14 type  3   force =     0.00079836   -0.00081594    0.00010738
     atom   15 type  4   force =     0.00042941   -0.00127919   -0.00047746
     atom   16 type  4   force =    -0.00036928    0.00126215    0.00012365

     Total force =   642.810579     Total SCF correction =     0.005676


     Computing stress (Cartesian axis) and pressure


     negative rho (up, down):  2.383E-01 0.000E+00
          total   stress  (Ry/bohr**3)                   (kbar)     P=   472698.14
   3.25458093   0.39721015  -0.22064400       478765.38    58431.63   -32457.85
   0.39721015   3.44405272  -0.14806294        58431.63   506637.65   -21780.81
  -0.22064400  -0.14806294   2.94137624       -32457.85   -21780.81   432691.38

     Energy error            =      2.3E+02 Ry
     Gradient error          =      3.5E+02 Ry/Bohr

     number of scf cycles    =   3
     number of bfgs steps    =   2

     energy             old  =   -1209.1668877078 Ry
     energy             new  =   -1442.2804733775 Ry

     CASE: energy            _new < energy            _old

     new trust radius        =       0.8000000000 bohr
     new conv_thr            =       0.0000010000 Ry


ATOMIC_POSITIONS (angstrom)
Hf           -0.1279597958       -0.4145584704        0.1867707753
Hf            1.7539797273        1.7247666076        1.4714622585
Nb            0.8246869062        0.2295244789       -0.5175853333
Nb            0.9179385283        1.0216026294        2.0358565439
Ta            0.6596998611       -0.5682804216        2.3136391556
Ta            2.5549220459        1.0472637757        0.8543105492
Zr            0.1656052155        1.3344305669       -0.3874930186
Zr            1.9877469940        0.6510812717        2.3236313665
Hf            2.1807201615       -0.0239133160        0.3736237168
Hf            0.2140062034        2.2071616325        1.5855762098
Nb            3.0085672446        1.5994626169       -0.0442017084
Nb            0.1465971193        0.8101007461        0.9234887183
Ta            0.8216087531       -0.5113425174        0.8069609538
Ta            1.8349161349        2.6156580576        2.0987655395
Zr            1.9876330301        2.0655942896       -0.5648337932
Zr           -0.1592176941        0.9748280644        1.9163943918



     Writing config-only to output data dir outdir/pwscf.save/
     NEW-OLD atomic charge density approx. for the potential

     negative rho (up, down):  1.852E-01 0.000E+00

     total cpu time spent up to now is       53.6 secs

     Self-consistent Calculation

     iteration #  1     ecut=   120.00 Ry     beta= 0.70
     Davidson diagonalization with overlap
     ethr =  1.00E-06,  avg # of iterations = 20.0

     negative rho (up, down):  1.624E-01 0.000E+00

     total cpu time spent up to now is       58.5 secs

     total energy              =   -1619.48907883 Ry
     estimated scf accuracy    <      18.41550012 Ry

     iteration #  2     ecut=   120.00 Ry     beta= 0.70
     Davidson diagonalization with overlap
     ethr =  9.21E-03,  avg # of iterations =  3.0

     negative rho (up, down):  1.691E-01 0.000E+00

     total cpu time spent up to now is       60.1 secs

     total energy              =   -1619.18088948 Ry
     estimated scf accuracy    <      54.87756926 Ry

     iteration #  3     ecut=   120.00 Ry     beta= 0.70
     Davidson diagonalization with overlap
     ethr =  9.21E-03,  avg # of iterations =  2.0

     negative rho (up, down):  1.715E-01 0.000E+00

     total cpu time spent up to now is       61.3 secs

     total energy              =   -1629.44152332 Ry
     estimated scf accuracy    <       0.92536014 Ry

     iteration #  4     ecut=   120.00 Ry     beta= 0.70
     Davidson diagonalization with overlap
     ethr =  4.63E-04,  avg # of iterations =  5.0

     negative rho (up, down):  1.750E-01 0.000E+00

     total cpu time spent up to now is       62.4 secs

     total energy              =   -1629.61104149 Ry
     estimated scf accuracy    <       0.74193895 Ry

     iteration #  5     ecut=   120.00 Ry     beta= 0.70
     Davidson diagonalization with overlap
     ethr =  3.71E-04,  avg # of iterations =  2.0

     negative rho (up, down):  1.753E-01 0.000E+00

     total cpu time spent up to now is       63.4 secs

     total energy              =   -1629.73970954 Ry
     estimated scf accuracy    <       0.08084675 Ry

     iteration #  6     ecut=   120.00 Ry     beta= 0.70
     Davidson diagonalization with overlap
     ethr =  4.04E-05,  avg # of iterations =  2.0

     negative rho (up, down):  1.756E-01 0.000E+00

     total cpu time spent up to now is       64.5 secs

     total energy              =   -1629.75275552 Ry
     estimated scf accuracy    <       0.01784456 Ry

     iteration #  7     ecut=   120.00 Ry     beta= 0.70
     Davidson diagonalization with overlap
     ethr =  8.92E-06,  avg # of iterations =  7.0

     negative rho (up, down):  1.754E-01 0.000E+00

     total cpu time spent up to now is       65.6 secs

     total energy              =   -1629.75643702 Ry
     estimated scf accuracy    <       0.00139101 Ry

     iteration #  8     ecut=   120.00 Ry     beta= 0.70
     Davidson diagonalization with overlap
     ethr =  6.96E-07,  avg # of iterations =  2.0

     negative rho (up, down):  1.753E-01 0.000E+00

     total cpu time spent up to now is       66.7 secs

     total energy              =   -1629.75670698 Ry
     estimated scf accuracy    <       0.00022329 Ry

     iteration #  9     ecut=   120.00 Ry     beta= 0.70
     Davidson diagonalization with overlap
     ethr =  1.12E-07,  avg # of iterations =  2.0

     negative rho (up, down):  1.753E-01 0.000E+00

     total cpu time spent up to now is       67.8 secs

     total energy              =   -1629.75675971 Ry
     estimated scf accuracy    <       0.00005593 Ry

     iteration # 10     ecut=   120.00 Ry     beta= 0.70
     Davidson diagonalization with overlap
     ethr =  2.80E-08,  avg # of iterations =  2.0

     negative rho (up, down):  1.753E-01 0.000E+00

     total cpu time spent up to now is       68.8 secs

     total energy              =   -1629.75677005 Ry
     estimated scf accuracy    <       0.00000621 Ry

     iteration # 11     ecut=   120.00 Ry     beta= 0.70
     Davidson diagonalization with overlap
     ethr =  3.10E-09,  avg # of iterations =  2.0

     negative rho (up, down):  1.753E-01 0.000E+00

     total cpu time spent up to now is       69.8 secs

     total energy              =   -1629.75677152 Ry
     estimated scf accuracy    <       0.00000179 Ry

     iteration # 12     ecut=   120.00 Ry     beta= 0.70
     Davidson diagonalization with overlap
     ethr =  8.94E-10,  avg # of iterations =  2.0

     negative rho (up, down):  1.753E-01 0.000E+00

     total cpu time spent up to now is       70.7 secs

     End of self-consistent calculation

          k = 0.0000 0.0000 0.0000 (  5575 PWs)   bands (ev):

    -3.9572   3.4876   7.7790  15.1908  16.3928  19.8194  27.1988  29.0405
    30.2833  31.3369  35.6835  38.0010  39.4850  40.8993  45.4993  46.4505
    47.6043  49.8029  51.1668  51.5701  53.1688  56.9820  58.3762  60.9524
    62.7806  65.4479  66.9309  67.5893  68.3743  70.4536  71.0081  73.2963
    74.7147  76.1379  76.6791  78.7948  79.7796  81.3663  81.6335  83.5422
    83.8195  85.1241  85.9558  86.9299  88.5852  89.2154  89.5524  90.4320
    91.8066  92.6214  94.0599  94.6992  96.8094  96.9303  97.1537  98.6427
    99.1591 100.1568 101.1937 102.4378 102.8434 104.0017 104.6831 104.9346
   106.4987 108.3006 108.7215 109.8957 110.3751 110.5032 112.2405 113.2910
   114.0715 116.0092 116.9165 117.6519 118.5512 119.5167 120.1708 121.9377
   123.9428 124.6033 125.9649 126.8643 127.7906 129.0806 130.2335 131.1699
   131.9381 132.8828 133.3131 133.5467 134.0813 134.2951 136.0634 136.6460
   137.8990 138.3887 139.2521 140.2342 140.7768 141.1118 141.3352 142.5095
   143.5608 143.6004 144.1767 144.7121 145.2961 146.6840 146.9935 148.2013
   148.9847 149.1568 150.1001 150.7586 151.5718 152.2918 152.4876 153.1043

     the Fermi energy is   140.5042 ev

!    total energy              =   -1629.75677170 Ry
     estimated scf accuracy    <       0.00000031 Ry
     smearing contrib. (-TS)   =      -0.01112483 Ry
     internal energy E=F+TS    =   -1629.74564688 Ry

     The total energy is F=E-TS. E is the sum of the following terms:
     one-electron contribution =    1462.37888652 Ry
     hartree contribution      =     146.58414347 Ry
     xc contribution           =    -758.97896134 Ry
     ewald contribution        =   -2479.72971553 Ry

     convergence has been achieved in  12 iterations

     negative rho (up, down):  1.753E-01 0.000E+00

     Forces acting on atoms (cartesian axes, Ry/au):

     atom    1 type  1   force =    -6.47871157   -4.30753311   -7.58582796
     atom    2 type  1   force =    -1.04727634   -4.16884851  -25.38640641
     atom    3 type  2   force =     9.57696055   30.28141310   33.23630477
     atom    4 type  2   force =     8.49094369    2.71980867   -8.60457966
     atom    5 type  3   force =   -13.90928866  -20.78164896   -2.72065279
     atom    6 type  3   force =   -52.73161633    6.64792505   -0.59102997
     atom    7 type  4   force =    97.03645167  -44.08336879  -53.25800137
     atom    8 type  4   force =    11.39269580   -5.28506678    5.78060343
     atom    9 type  1   force =   -19.48706886   -3.62760066    1.46475553
     atom   10 type  1   force =   -24.34858945  -10.88967282  -10.30768994
     atom   11 type  2   force =   -87.35735264   57.12624043   52.71936472
     atom   12 type  2   force =    54.44580962  -13.98620546  -10.79681418
     atom   13 type  3   force =    22.54186973    3.94898074   -6.09156028
     atom   14 type  3   force =    12.80915173   47.24246482  -35.95431172
     atom   15 type  4   force =     6.16883456  -32.73812205   50.61691650
     atom   16 type  4   force =   -17.10281351   -8.09876568   17.47892933
     The non-local contrib.  to forces
     atom    1 type  1   force =     0.56152090    2.01490502    3.61508299
     atom    2 type  1   force =     1.33901949    2.09755416    6.74468914
     atom    3 type  2   force =     1.11424394    5.54761255    2.09300362
     atom    4 type  2   force =    -1.01646011   -2.01235913    1.03206868
     atom    5 type  3   force =     1.03145014   -2.15960635   -5.90323560
     atom    6 type  3   force =     5.64202719   -0.69429808    1.43278205
     atom    7 type  4   force =    -2.25925659    0.10340403    0.85572319
     atom    8 type  4   force =     1.29435110   -0.54750045    1.38837032
     atom    9 type  1   force =     7.35165069    0.84877554   -0.82320557
     atom   10 type  1   force =     7.15277547    5.18270515    5.07847432
     atom   11 type  2   force =     3.93010322   -0.97470694   -5.17876797
     atom   12 type  2   force =     6.18832813   -1.75556221    3.74682734
     atom   13 type  3   force =    -9.71405917   -1.82099616   -0.34065593
     atom   14 type  3   force =    -5.26939496  -11.68899243    4.77582380
     atom   15 type  4   force =     0.81516983   -2.55637423    5.29797869
     atom   16 type  4   force =     1.34349789   -1.26940925    1.36793636
     The ionic contribution  to forces
     atom    1 type  1   force =   -23.29430721  -11.90340100   -0.88330213
     atom    2 type  1   force =    -0.08491912    4.40205495  -71.82522733
     atom    3 type  2   force =    31.53248566   11.29620059   75.24301234
     atom    4 type  2   force =    48.37944148    6.43349877  -35.94030074
     atom    5 type  3   force =   -22.14399102  -20.56459032    2.25194545
     atom    6 type  3   force =  -105.10250192    1.92393472   -5.76541527
     atom    7 type  4   force =   130.34287913  -32.55880086  -34.80569676
     atom    8 type  4   force =    27.20755960  -28.52897256   11.66996143
     atom    9 type  1   force =   -47.39919146  -17.07785850   15.89162785
     atom   10 type  1   force =   -46.45502292    9.06309270  -35.07449918
     atom   11 type  2   force =  -120.82326679   92.89953788   79.65072737
     atom   12 type  2   force =    87.85426977  -36.19496143  -27.13385062
     atom   13 type  3   force =    59.25767048    1.20273949  -13.55783467
     atom   14 type  3   force =    43.03219380   74.29363720  -56.75954516
     atom   15 type  4   force =    -8.20402998  -25.14402605   86.21044945
     atom   16 type  4   force =   -54.09926949  -29.54208557   10.82794797
     The local contribution  to forces
     atom    1 type  1   force =    16.11671256    5.27742173  -10.75759771
     atom    2 type  1   force =    -2.29716615  -10.91804356   38.46014143
     atom    3 type  2   force =   -23.03248823   13.53638323  -43.86002864
     atom    4 type  2   force =   -38.71935003   -1.62422953   26.19226255
     atom    5 type  3   force =     7.01654702    1.67408564    1.21336953
     atom    6 type  3   force =    45.35497752    5.56475534    3.68024882
     atom    7 type  4   force =   -29.99485314  -12.05717445  -19.78435223
     atom    8 type  4   force =   -16.96057291   23.70577507   -7.17712835
     atom    9 type  1   force =    19.42759370   12.58458387  -13.45368491
     atom   10 type  1   force =    13.74767806  -25.65658760   18.98965837
     atom   11 type  2   force =    28.81765423  -34.37201614  -21.27193533
     atom   12 type  2   force =   -39.22638161   23.83493721   12.46532774
     atom   13 type  3   force =   -26.17960027    4.64584213    7.63634773
     atom   14 type  3   force =   -24.59894641  -13.93642913   15.22047350
     atom   15 type  4   force =    13.58934047   -5.39977670  -40.32966976
     atom   16 type  4   force =    35.35230341   22.63194519    5.42578066
     The core correction contribution to forces
     atom    1 type  1   force =     0.13729418    0.30267708    0.43911300
     atom    2 type  1   force =    -0.00466066    0.25105496    1.23466363
     atom    3 type  2   force =    -0.03713504   -0.09974194   -0.23917866
     atom    4 type  2   force =    -0.15251379   -0.07671034    0.11351924
     atom    5 type  3   force =     0.18685202    0.26794357   -0.28158013
     atom    6 type  3   force =     1.37348334   -0.14608512    0.05976088
     atom    7 type  4   force =    -1.05274824    0.43009185    0.47662042
     atom    8 type  4   force =    -0.14862904    0.08515581   -0.09880787
     atom    9 type  1   force =     1.13261787    0.01589834   -0.15135050
     atom   10 type  1   force =     1.20627869    0.52222408    0.69933445
     atom   11 type  2   force =     0.71793552   -0.42551371   -0.48199967
     atom   12 type  2   force =    -0.37028568    0.12906903    0.12354412
     atom   13 type  3   force =    -0.82221096   -0.07943233    0.16985916
     atom   14 type  3   force =    -0.35497863   -1.42581753    0.81052169
     atom   15 type  4   force =    -0.03162237    0.36258730   -0.56122411
     atom   16 type  4   force =     0.30034974    0.08087715   -0.14062108
     The Hubbard contrib.    to forces
     atom    1 type  1   force =     0.00000000    0.00000000    0.00000000
     atom    2 type  1   force =     0.00000000    0.00000000    0.00000000
     atom    3 type  2   force =     0.00000000    0.00000000    0.00000000
     atom    4 type  2   force =     0.00000000    0.00000000    0.00000000
     atom    5 type  3   force =     0.00000000    0.00000000    0.00000000
     atom    6 type  3   force =     0.00000000    0.00000000    0.00000000
     atom    7 type  4   force =     0.00000000    0.00000000    0.00000000
     atom    8 type  4   force =     0.00000000    0.00000000    0.00000000
     atom    9 type  1   force =     0.00000000    0.00000000    0.00000000
     atom   10 type  1   force =     0.00000000    0.00000000    0.00000000
     atom   11 type  2   force =     0.00000000    0.00000000    0.00000000
     atom   12 type  2   force =     0.00000000    0.00000000    0.00000000
     atom   13 type  3   force =     0.00000000    0.00000000    0.00000000
     atom   14 type  3   force =     0.00000000    0.00000000    0.00000000
     atom   15 type  4   force =     0.00000000    0.00000000    0.00000000
     atom   16 type  4   force =     0.00000000    0.00000000    0.00000000
     The SCF correction term to forces
     atom    1 type  1   force =    -0.00003552    0.00088012    0.00099086
     atom    2 type  1   force =     0.00034659   -0.00145298   -0.00055832
     atom    3 type  2   force =    -0.00024930    0.00097472   -0.00038893
     atom    4 type  2   force =    -0.00027739   -0.00037505   -0.00201445
     atom    5 type  3   force =    -0.00025034    0.00053454   -0.00103709
     atom    6 type  3   force =     0.00029402   -0.00036576    0.00170851
     atom    7 type  4   force =     0.00032699   -0.00087332   -0.00018104
     atom    8 type  4   force =    -0.00011646    0.00049139   -0.00167715
     atom    9 type  1   force =     0.00015683    0.00101614    0.00148360
     atom   10 type  1   force =    -0.00040226   -0.00109111   -0.00054294
     atom   11 type  2   force =     0.00011767   -0.00104462    0.00145527
     atom   12 type  2   force =    -0.00022450    0.00032799    0.00145218
     atom   13 type  3   force =    -0.00003387    0.00084368    0.00083838
     atom   14 type  3   force =     0.00017441    0.00008277   -0.00147059
     atom   15 type  4   force =    -0.00012690   -0.00051632   -0.00050280
     atom   16 type  4   force =     0.00020141   -0.00007714   -0.00199962

     Total force =   218.268373     Total SCF correction =     0.006072


     Computing stress (Cartesian axis) and pressure


     negative rho (up, down):  1.753E-01 0.000E+00
          total   stress  (Ry/bohr**3)                   (kbar)     P=   394370.90
   2.82933185  -0.25210428  -0.17523703       416209.08   -37085.82   -25778.26
  -0.25210428   2.46694977   0.12395807       -37085.82   362900.84    18234.86
  -0.17523703   0.12395807   2.74635514       -25778.26    18234.86   404002.79

     Energy error            =      1.9E+02 Ry
     Gradient error          =      9.7E+01 Ry/Bohr

     number of scf cycles    =   4
     number of bfgs steps    =   3

     energy             old  =   -1442.2804733775 Ry
     energy             new  =   -1629.7567717040 Ry

     CASE: energy            _new < energy            _old

     new trust radius        =       0.8000000000 bohr
     new conv_thr            =       0.0000010000 Ry


ATOMIC_POSITIONS (angstrom)
Hf           -0.1881391716       -0.5386317575        0.2082263445
Hf            1.7727142473        1.7234859625        1.3279079513
Nb            0.9507579010        0.3177712142       -0.4171303529
Nb            0.9524232710        1.0980616172        2.0031184350
Ta            0.5826771896       -0.7224655168        2.3980733813
Ta            2.3765788723        1.0396778476        1.1006385312
Zr            0.4874088568        1.2924519877       -0.5646512736
Zr            2.0935380860        0.5790927592        2.3721255430
Hf            2.0506087207       -0.1602213653        0.4169876992
Hf            0.1586684538        2.2657372985        1.6317932570
Nb            2.6611120179        1.8234804073       -0.1353562375
Nb            0.2935044199        0.8355612662        0.8547981315
Ta            0.9361526492       -0.5801982149        0.6603226048
Ta            1.9611748407        2.7674752788        2.0023335357
Zr            1.9625979571        2.0981271969       -0.4687012336
Zr           -0.2803278765        0.9239740303        1.9858800086



     Writing config-only to output data dir outdir/pwscf.save/
     NEW-OLD atomic charge density approx. for the potential

     negative rho (up, down):  1.620E-01 0.000E+00

     total cpu time spent up to now is       72.9 secs

     Self-consistent Calculation

     iteration #  1     ecut=   120.00 Ry     beta= 0.70
     Davidson diagonalization with overlap
     ethr =  1.00E-06,  avg # of iterations = 15.0

     negative rho (up, down):  1.831E-01 0.000E+00

     total cpu time spent up to now is       76.6 secs

     total energy              =   -1686.55837839 Ry
     estimated scf accuracy    <      19.53524682 Ry

     iteration #  2     ecut=   120.00 Ry     beta= 0.70
     Davidson diagonalization with overlap
     ethr =  9.77E-03,  avg # of iterations =  3.0

     negative rho (up, down):  1.932E-01 0.000E+00

     total cpu time spent up to now is       77.9 secs

     total energy              =   -1684.57896038 Ry
     estimated scf accuracy    <      67.50295482 Ry

     iteration #  3     ecut=   120.00 Ry     beta= 0.70
     Davidson diagonalization with overlap
     ethr =  9.77E-03,  avg # of iterations =  2.0

     negative rho (up, down):  2.028E-01 0.000E+00

     total cpu time spent up to now is       78.9 secs

     total energy              =   -1696.98362499 Ry
     estimated scf accuracy    <       1.52049255 Ry

     iteration #  4     ecut=   120.00 Ry     beta= 0.70
     Davidson diagonalization with overlap
     ethr =  7.60E-04,  avg # of iterations =  2.0

     negative rho (up, down):  2.091E-01 0.000E+00

     total cpu time spent up to now is       80.0 secs

     total energy              =   -1697.25271376 Ry
     estimated scf accuracy    <       0.48282227 Ry

     iteration #  5     ecut=   120.00 Ry     beta= 0.70
     Davidson diagonalization with overlap
     ethr =  2.41E-04,  avg # of iterations =  3.0

     negative rho (up, down):  2.134E-01 0.000E+00

     total cpu time spent up to now is       81.0 secs

     total energy              =   -1697.34776837 Ry
     estimated scf accuracy    <       0.07778662 Ry

     iteration #  6     ecut=   120.00 Ry     beta= 0.70
     Davidson diagonalization with overlap
     ethr =  3.89E-05,  avg # of iterations =  7.0

     negative rho (up, down):  2.147E-01 0.000E+00

     total cpu time spent up to now is       82.2 secs

     total energy              =   -1697.36045466 Ry
     estimated scf accuracy    <       0.01113115 Ry

     iteration #  7     ecut=   120.00 Ry     beta= 0.70
     Davidson diagonalization with overlap
     ethr =  5.57E-06,  avg # of iterations =  6.0

     negative rho (up, down):  2.150E-01 0.000E+00

     total cpu time spent up to now is       83.4 secs

     total energy              =   -1697.36295796 Ry
     estimated scf accuracy    <       0.00389377 Ry

     iteration #  8     ecut=   120.00 Ry     beta= 0.70
     Davidson diagonalization with overlap
     ethr =  1.95E-06,  avg # of iterations =  2.0

     negative rho (up, down):  2.150E-01 0.000E+00

     total cpu time spent up to now is       84.4 secs

     total energy              =   -1697.36364491 Ry
     estimated scf accuracy    <       0.00049999 Ry

     iteration #  9     ecut=   120.00 Ry     beta= 0.70
     Davidson diagonalization with overlap
     ethr =  2.50E-07,  avg # of iterations =  2.0

     negative rho (up, down):  2.150E-01 0.000E+00

     total cpu time spent up to now is       85.3 secs

     total energy              =   -1697.36375306 Ry
     estimated scf accuracy    <       0.00006840 Ry

     iteration # 10     ecut=   120.00 Ry     beta= 0.70
     Davidson diagonalization with overlap
     ethr =  3.42E-08,  avg # of iterations =  2.0

[...]
Ta            0.0709744107       -0.7820475991        2.3582024975
Ta            1.9524714937        0.9993933557        0.6322576847
Zr            0.9976274959        1.7451739843       -0.3718000464
Zr            2.5198328619        0.2094691683        2.9898971605
Hf            1.9380429646       -0.7197681019        0.5209224280
Hf           -0.6483186390        1.7040463621        1.4254533592
Nb            2.4216282335        1.6043757567       -0.5716719741
Nb            0.1475903912        0.9184995235        0.5312315719
Ta            0.9013084356        0.1211212120        1.3830127687
Ta            2.6415926642        3.3452418198        1.4319513781
Zr            1.8442847182        2.6188909264       -1.0275982338
Zr            0.1866550429        0.8943516698        2.3552653646



     Writing config-only to output data dir outdir/pwscf.save/
     NEW-OLD atomic charge density approx. for the potential

     negative rho (up, down):  2.651E-01 0.000E+00

     total cpu time spent up to now is      839.3 secs

     Self-consistent Calculation

     iteration #  1     ecut=   120.00 Ry     beta= 0.70
     Davidson diagonalization with overlap
     ethr =  1.00E-06,  avg # of iterations = 13.0

     negative rho (up, down):  2.790E-01 0.000E+00

     total cpu time spent up to now is      843.7 secs

     total energy              =   -1808.24016413 Ry
     estimated scf accuracy    <       2.77662336 Ry

     iteration #  2     ecut=   120.00 Ry     beta= 0.70
     Davidson diagonalization with overlap
     ethr =  1.39E-03,  avg # of iterations =  8.0

     negative rho (up, down):  2.787E-01 0.000E+00

     total cpu time spent up to now is      845.7 secs

     total energy              =   -1808.18697534 Ry
     estimated scf accuracy    <       8.58350501 Ry

     iteration #  3     ecut=   120.00 Ry     beta= 0.70
     Davidson diagonalization with overlap
     ethr =  1.39E-03,  avg # of iterations =  3.0

     negative rho (up, down):  2.811E-01 0.000E+00

     total cpu time spent up to now is      847.5 secs

     total energy              =   -1809.74848563 Ry
     estimated scf accuracy    <       0.08954325 Ry

     iteration #  4     ecut=   120.00 Ry     beta= 0.70
     Davidson diagonalization with overlap
     ethr =  4.48E-05,  avg # of iterations = 11.0

     negative rho (up, down):  2.834E-01 0.000E+00

     total cpu time spent up to now is      849.9 secs

     total energy              =   -1809.76803145 Ry
     estimated scf accuracy    <       0.05703713 Ry

     iteration #  5     ecut=   120.00 Ry     beta= 0.70
     Davidson diagonalization with overlap
     ethr =  2.85E-05,  avg # of iterations =  3.0

     negative rho (up, down):  2.837E-01 0.000E+00

     total cpu time spent up to now is      851.4 secs

     total energy              =   -1809.77938547 Ry
     estimated scf accuracy    <       0.01088671 Ry

     iteration #  6     ecut=   120.00 Ry     beta= 0.70
     Davidson diagonalization with overlap
     ethr =  5.44E-06,  avg # of iterations =  2.0

     negative rho (up, down):  2.838E-01 0.000E+00

     total cpu time spent up to now is      853.0 secs

     total energy              =   -1809.78144526 Ry
     estimated scf accuracy    <       0.00069099 Ry

     iteration #  7     ecut=   120.00 Ry     beta= 0.70
     Davidson diagonalization with overlap
     ethr =  3.45E-07,  avg # of iterations =  8.0

     negative rho (up, down):  2.838E-01 0.000E+00

     total cpu time spent up to now is      855.1 secs

     total energy              =   -1809.78158407 Ry
     estimated scf accuracy    <       0.00020852 Ry

     iteration #  8     ecut=   120.00 Ry     beta= 0.70
     Davidson diagonalization with overlap
     ethr =  1.04E-07,  avg # of iterations =  2.0

     negative rho (up, down):  2.838E-01 0.000E+00

     total cpu time spent up to now is      856.7 secs

     total energy              =   -1809.78162898 Ry
     estimated scf accuracy    <       0.00002007 Ry

     iteration #  9     ecut=   120.00 Ry     beta= 0.70
     Davidson diagonalization with overlap
     ethr =  1.00E-08,  avg # of iterations =  2.0

     negative rho (up, down):  2.838E-01 0.000E+00

     total cpu time spent up to now is      857.9 secs

     total energy              =   -1809.78163304 Ry
     estimated scf accuracy    <       0.00000232 Ry

     iteration # 10     ecut=   120.00 Ry     beta= 0.70
     Davidson diagonalization with overlap
     ethr =  1.16E-09,  avg # of iterations =  2.0

     negative rho (up, down):  2.838E-01 0.000E+00

     total cpu time spent up to now is      859.2 secs

     End of self-consistent calculation

          k = 0.0000 0.0000 0.0000 (  5575 PWs)   bands (ev):

    18.3253  29.7980  31.7654  32.3677  34.3961  34.7806  37.7965  43.1229
    46.6113  46.9714  47.5127  48.3279  48.7436  50.1642  50.8350  51.0765
    51.7391  53.1964  55.1712  60.8289  62.5747  63.4204  63.8912  65.3807
    66.2798  68.3527  71.2424  75.5154  76.4835  76.9160  80.2773  81.1233
    83.9181  84.8375  85.6523  86.5044  87.1428  87.4182  88.0963  88.8764
    89.1160  89.4152  90.3030  90.5190  91.6548  94.4934  94.9581  95.8868
    96.8692  97.8095  98.3457  98.5266  99.1937  99.4838 100.2378 100.5353
   101.4790 101.6357 102.2076 103.3531 103.5127 103.9766 105.2624 105.7869
   106.0860 106.3997 106.4789 107.4553 109.0562 109.1961 110.2513 111.8144
   111.9099 113.0892 114.7754 115.2947 116.3903 117.6043 118.5131 118.8872
   120.3374 126.2677 126.8808 127.1982 127.9956 128.1140 130.6999 135.8991
   136.0607 136.4904 137.4516 138.4865 139.8286 140.3683 141.5954 141.8343
   142.0567 142.4075 142.6238 142.8801 143.1784 144.0448 144.5149 144.8163
   145.6805 146.3036 146.4395 146.9151 147.3833 147.5496 147.8570 148.4519
   149.1981 150.1510 150.3614 151.3525 152.6866 154.6044 154.6620 155.1510

     the Fermi energy is   143.0383 ev

!    total energy              =   -1809.78163315 Ry
     estimated scf accuracy    <       0.00000062 Ry
     smearing contrib. (-TS)   =      -0.02132737 Ry
     internal energy E=F+TS    =   -1809.76030578 Ry

     The total energy is F=E-TS. E is the sum of the following terms:
     one-electron contribution =    1759.87748469 Ry
     hartree contribution      =      26.03311150 Ry
     xc contribution           =    -742.23578704 Ry
     ewald contribution        =   -2853.43511492 Ry

     convergence has been achieved in  10 iterations

     negative rho (up, down):  2.838E-01 0.000E+00

     Forces acting on atoms (cartesian axes, Ry/au):

     atom    1 type  1   force =     1.25149736    0.34331009    0.53238562
     atom    2 type  1   force =    -1.40441217   -2.84478724    1.61400576
     atom    3 type  2   force =    -4.13615107   -0.73536176   -0.99416088
     atom    4 type  2   force =     0.17858990    0.61774000    0.24850981
     atom    5 type  3   force =     4.43650867    2.53856513   -1.42551689
     atom    6 type  3   force =    -6.61868504   -0.34212650   -3.24276663
     atom    7 type  4   force =     1.02014039   -0.85535941    3.80986446
     atom    8 type  4   force =     4.61787748   -0.17098939    0.09402139
     atom    9 type  1   force =    -4.06964346   -3.21706100   -1.98493157
     atom   10 type  1   force =     3.07753334    0.97384657   -0.07585037
     atom   11 type  2   force =     5.57754428    0.51634265    8.60701110
     atom   12 type  2   force =     0.55246616    1.53928365   -4.05726884
     atom   13 type  3   force =    -0.22608122   -3.94845956   -1.70814612
     atom   14 type  3   force =     2.74635182    4.08202081    0.81415190
     atom   15 type  4   force =    -6.01883989    1.49990724   -1.72542892
     atom   16 type  4   force =    -0.98469654    0.00312873   -0.50587982
     The non-local contrib.  to forces
     atom    1 type  1   force =     1.54650404   -0.00760187   -0.23607465
     atom    2 type  1   force =     0.29912527   -0.54680621    0.25570720
     atom    3 type  2   force =    -1.27134592    0.19580464   -1.58190834
     atom    4 type  2   force =     1.33433886    0.73298708    2.32348822
     atom    5 type  3   force =    -0.21478512   -1.13563530    1.01874323
     atom    6 type  3   force =     2.12873951    0.13353996   -0.98078113
     atom    7 type  4   force =    -0.11277593   -0.35948841    0.48931091
     atom    8 type  4   force =     0.69321993   -0.92471069    0.19064835
     atom    9 type  1   force =    -0.11554329    1.68804537   -0.84303413
     atom   10 type  1   force =    -1.61708209   -1.76466276    0.07251027
     atom   11 type  2   force =     0.36174187    0.23556738    1.58109902
     atom   12 type  2   force =     0.38922604    0.36676751   -0.59022086
     atom   13 type  3   force =     0.64201399    2.70376916    1.37019833
     atom   14 type  3   force =    -1.75255562   -0.79061260    0.56490259
     atom   15 type  4   force =    -1.14211838    0.08737531   -0.22998953
     atom   16 type  4   force =    -0.24065247    0.02821616   -0.04925760
     The ionic contribution  to forces
     atom    1 type  1   force =     2.37741956   -2.43673279    9.32519519
     atom    2 type  1   force =    -8.04936945    4.60150283   -7.80496596
     atom    3 type  2   force =   -17.78446899  -15.79843345   16.09172736
     atom    4 type  2   force =    -7.37457658   -0.88445582  -25.79770307
     atom    5 type  3   force =    12.76172639    4.67088432   -8.11772232
     atom    6 type  3   force =   -12.15641197    5.00461596    6.96648355
     atom    7 type  4   force =    -9.81544233   13.02091033   20.14036635
     atom    8 type  4   force =    20.33299687  -12.58313316   12.85659422
     atom    9 type  1   force =    -5.95355367   -9.90834029    9.21984050
     atom   10 type  1   force =    13.02738845    9.62774941  -13.24274057
     atom   11 type  2   force =    21.80051887   14.31225207   25.08658858
     atom   12 type  2   force =     2.35300802    7.68635309    8.43562980
     atom   13 type  3   force =    -7.25497722  -16.71560683  -11.64753472
     atom   14 type  3   force =    12.05331986   -1.69859908   -9.91782042
     atom   15 type  4   force =   -14.47061033    1.95272202  -16.69161393
     atom   16 type  4   force =    -1.84696748   -0.85168861  -14.90232457
     The local contribution  to forces
     atom    1 type  1   force =    -2.57037138    2.80595048   -8.48252094
     atom    2 type  1   force =     6.28428297   -7.09589799    9.23162321
     atom    3 type  2   force =    14.86451659   14.85660792  -15.53076487
     atom    4 type  2   force =     6.23001802    0.75161313   23.71702308
     atom    5 type  3   force =    -7.98789625   -0.90048337    5.59162665
     atom    6 type  3   force =     3.18799115   -5.50691531   -9.33617081
     atom    7 type  4   force =    10.92907072  -13.50323484  -16.76177452
     atom    8 type  4   force =   -16.35393719   13.28702071  -12.90688319
     atom    9 type  1   force =     1.80918354    4.86221307  -10.37050987
     atom   10 type  1   force =    -8.28681803   -6.82070467   12.98609383
     atom   11 type  2   force =   -16.50453831  -14.01085956  -17.94400596
     atom   12 type  2   force =    -2.17523207   -6.49626431  -11.91180967
     atom   13 type  3   force =     6.39038377    9.94866815    8.54684467
     atom   14 type  3   force =    -7.47864334    6.75813890   10.18159657
     atom   15 type  4   force =     9.52001676   -0.50536930   15.13345976
     atom   16 type  4   force =     1.08175238    0.80940697   14.40608099
     The core correction contribution to forces
     atom    1 type  1   force =    -0.10286015   -0.01701781   -0.07434398
     atom    2 type  1   force =     0.06144643    0.19512533   -0.06648082
     atom    3 type  2   force =     0.05567830    0.01272078    0.02443542
     atom    4 type  2   force =    -0.01095071    0.01649282    0.00608257
     atom    5 type  3   force =    -0.12281542   -0.09468527    0.08133270
     atom    6 type  3   force =     0.22187347    0.02502632    0.10762617
     atom    7 type  4   force =     0.01962117   -0.01530292   -0.05996211
     atom    8 type  4   force =    -0.05438319    0.05138672   -0.04769999
     atom    9 type  1   force =     0.19119202    0.14240601    0.00852643
     atom   10 type  1   force =    -0.04593860   -0.07027450    0.10942274
     atom   11 type  2   force =    -0.08049278   -0.02327729   -0.11753400
     atom   12 type  2   force =    -0.01560542   -0.01903834    0.00926342
     atom   13 type  3   force =    -0.00375182    0.11658865    0.02455323
     atom   14 type  3   force =    -0.07552403   -0.18472049   -0.01306509
     atom   15 type  4   force =     0.07423962   -0.03331888    0.06265256
     atom   16 type  4   force =     0.02106236    0.01604499    0.03909080
     The Hubbard contrib.    to forces
     atom    1 type  1   force =     0.00000000    0.00000000    0.00000000
     atom    2 type  1   force =     0.00000000    0.00000000    0.00000000
     atom    3 type  2   force =     0.00000000    0.00000000    0.00000000
     atom    4 type  2   force =     0.00000000    0.00000000    0.00000000
     atom    5 type  3   force =     0.00000000    0.00000000    0.00000000
     atom    6 type  3   force =     0.00000000    0.00000000    0.00000000
     atom    7 type  4   force =     0.00000000    0.00000000    0.00000000
     atom    8 type  4   force =     0.00000000    0.00000000    0.00000000
     atom    9 type  1   force =     0.00000000    0.00000000    0.00000000
     atom   10 type  1   force =     0.00000000    0.00000000    0.00000000
     atom   11 type  2   force =     0.00000000    0.00000000    0.00000000
     atom   12 type  2   force =     0.00000000    0.00000000    0.00000000
     atom   13 type  3   force =     0.00000000    0.00000000    0.00000000
     atom   14 type  3   force =     0.00000000    0.00000000    0.00000000
     atom   15 type  4   force =     0.00000000    0.00000000    0.00000000
     atom   16 type  4   force =     0.00000000    0.00000000    0.00000000
     The SCF correction term to forces
     atom    1 type  1   force =     0.00082397   -0.00122258    0.00013681
     atom    2 type  1   force =     0.00012128    0.00135412   -0.00187106
     atom    3 type  2   force =    -0.00051236   -0.00199633    0.00235636
     atom    4 type  2   force =    -0.00022101    0.00116813   -0.00037418
     atom    5 type  3   force =     0.00029775   -0.00144992    0.00050966
     atom    6 type  3   force =    -0.00085853    0.00167190    0.00008241
     atom    7 type  4   force =    -0.00031456    0.00182177    0.00193064
     atom    8 type  4   force =    -0.00000026   -0.00148764    0.00136882
     atom    9 type  1   force =    -0.00090338   -0.00131983    0.00025232
     atom   10 type  1   force =     0.00000229    0.00180443   -0.00112984
     atom   11 type  2   force =     0.00033331    0.00272539    0.00087027
     atom   12 type  2   force =     0.00108826    0.00153104   -0.00012472
     atom   13 type  3   force =     0.00026873   -0.00181336   -0.00220082
     atom   14 type  3   force =    -0.00022636   -0.00212058   -0.00145493
     atom   15 type  4   force =    -0.00034889   -0.00143659    0.00006903
     atom   16 type  4   force =     0.00012734    0.00121455    0.00053737

     Total force =    20.148796     Total SCF correction =     0.008599


     Computing stress (Cartesian axis) and pressure


     negative rho (up, down):  2.838E-01 0.000E+00
          total   stress  (Ry/bohr**3)                   (kbar)     P=   296433.05
   2.01261991   0.00202906   0.04030914       296066.61      298.48     5929.68
   0.00202906   2.00479236   0.00849674          298.48   294915.14     1249.91
   0.04030914   0.00849674   2.02792052         5929.68     1249.91   298317.41

     Energy error            =      7.4E-01 Ry
     Gradient error          =      8.6E+00 Ry/Bohr

     number of scf cycles    =  50
     number of bfgs steps    =  29

     energy             old  =   -1809.0459184703 Ry
     energy             new  =   -1809.7816331509 Ry

     CASE: energy            _new < energy            _old

     new trust radius        =       0.2890982125 bohr

     The maximum number of steps has been reached.

     End of BFGS Geometry Optimization

ATOMIC_POSITIONS (angstrom)
Hf            0.1788362485       -0.7113444211        0.4273176140
Hf            0.9251002792        1.8853151082        1.3604556196
Nb            1.0866352168        0.2024801305       -0.2815189831
Nb            1.6553906113        0.8677726847        2.1776409377
Ta            0.0623245091       -0.7769941252        2.4038789976
Ta            1.8531508126        1.0520274449        0.6999208109
Zr            0.9154934771        1.7303732143       -0.3427197133
Zr            2.5415747948        0.2639387475        2.9673194988
Hf            1.9207422149       -0.7848896698        0.3835760536
Hf           -0.5922073796        1.7612168588        1.4983458616
Nb            2.4062135865        1.5820543355       -0.4846134034
Nb            0.1272914661        0.9009224535        0.5179771879
Ta            0.9276600191        0.0150530864        1.3711330259
Ta            2.6584262129        3.3670380056        1.4351710611
Zr            1.8402691410        2.5561228778       -1.0344706470
Zr            0.2645492247        0.8522932802        2.2769524035



     Writing config-only to output data dir outdir/pwscf.save/
     NEW-OLD atomic charge density approx. for the potential

     negative rho (up, down):  2.875E-01 0.000E+00

     Writing all to output data dir outdir/pwscf.save/

     init_run     :      0.85s CPU      0.88s WALL (       1 calls)
     electrons    :    739.67s CPU    747.11s WALL (      50 calls)
     update_pot   :      3.18s CPU      3.20s WALL (      50 calls)
     forces       :     22.96s CPU     23.14s WALL (      50 calls)
     stress       :     80.87s CPU     81.06s WALL (      50 calls)

     Called by init_run:
     wfcinit      :      0.43s CPU      0.43s WALL (       1 calls)
     potinit      :      0.03s CPU      0.03s WALL (       1 calls)
     hinit0       :      0.27s CPU      0.29s WALL (       1 calls)

     Called by electrons:
     c_bands      :    598.32s CPU    604.03s WALL (     530 calls)
     sum_band     :     85.93s CPU     86.95s WALL (     530 calls)
     v_of_rho     :      3.71s CPU      3.93s WALL (     581 calls)
     newd         :     55.89s CPU     56.25s WALL (     581 calls)
     mix_rho      :      0.66s CPU      0.68s WALL (     530 calls)

     Called by c_bands:
     init_us_2    :      1.13s CPU      1.15s WALL (    1061 calls)
     init_us_2:cp :      1.11s CPU      1.15s WALL (    1061 calls)
     cegterg      :    591.70s CPU    597.33s WALL (     530 calls)

     Called by *egterg:
     cdiaghg      :    130.44s CPU    130.68s WALL (    2581 calls)
     h_psi        :    203.80s CPU    207.86s WALL (    2631 calls)
     s_psi        :     58.87s CPU     59.05s WALL (    2631 calls)
     g_psi        :      0.30s CPU      0.30s WALL (    2100 calls)

     Called by h_psi:
     h_psi:calbec :     77.95s CPU     78.94s WALL (    2631 calls)
     vloc_psi     :     65.99s CPU     68.93s WALL (    2631 calls)
     add_vuspsi   :     59.49s CPU     59.64s WALL (    2631 calls)

     General routines
     calbec       :    115.80s CPU    117.20s WALL (    3411 calls)
     fft          :      8.13s CPU      8.34s WALL (    7692 calls)
     ffts         :      0.37s CPU      0.38s WALL (     530 calls)
     fftw         :     71.28s CPU     74.50s WALL (  451042 calls)

     Parallel routines

     PWSCF        :  14m14.05s CPU  14m22.10s WALL


   This run was terminated on:   0:57:47  18May2023            

=------------------------------------------------------------------------------=
   JOB DONE.
=------------------------------------------------------------------------------=
