
     Program PWSCF v.7.2 starts on 30May2023 at 14:21:43 

     This program is part of the open-source Quantum ESPRESSO suite
     for quantum simulation of materials; please cite
         "P. Giannozzi et al., J. Phys.:Condens. Matter 21 395502 (2009);
         "P. Giannozzi et al., J. Phys.:Condens. Matter 29 465901 (2017);
         "P. Giannozzi et al., J. Chem. Phys. 152 154105 (2020);
          URL http://www.quantum-espresso.org", 
     in publications or presentations arising from this work. More details at
     http://www.quantum-espresso.org/quote

     Parallel version (MPI), running on    12 processors

     MPI processes distributed on     1 nodes
     68176 MiB available memory on the printing compute node when the environment starts

     Reading input from HfNbTaZr_lattice_36_MD_nsteps_3.in
Warning: card &CELL ignored
Warning: card / ignored

     Current dimensions of program PWSCF are:
     Max number of different atomic species (ntypx) = 10
     Max number of k-points (npk) =  40000
     Max angular momentum in pseudopotentials (lmaxx) =  4

     R & G space division:  proc/nbgrp/npool/nimage =      12
     Subspace diagonalization in iterative solution of the eigenvalue problem:
     one sub-group per band group will be used
     custom distributed-memory algorithm (size of sub-group:  3*  3 procs)


     Parallelization info
     --------------------
     sticks:   dense  smooth     PW     G-vecs:    dense   smooth      PW
     Min        1378    1378    345               167471   167471   20931
     Max        1380    1380    346               167474   167474   20934
     Sum       16541   16541   4149              2009667  2009667  251199

     Using Slab Decomposition



     bravais-lattice index     =            0
     lattice parameter (alat)  =      20.8059  a.u.
     unit-cell volume          =   11317.6400 (a.u.)^3
     number of atoms/cell      =           37
     number of atomic types    =            5
     number of electrons       =       451.00
     number of Kohn-Sham states=          271
     kinetic-energy cutoff     =     120.0000  Ry
     charge density cutoff     =     480.0000  Ry
     scf convergence threshold =      1.0E-06
     mixing beta               =       0.7000
     number of iterations used =            8  TF        mixing
     energy convergence thresh.=      0.0E+00
     force convergence thresh. =      0.0E+00
     Exchange-correlation=  SLA  PW   PBX  PBC
                           (   1   4   3   4   0   0   0)
     nstep                     =            1


     celldm(1)=  20.805885  celldm(2)=   0.000000  celldm(3)=   0.000000
     celldm(4)=   0.000000  celldm(5)=   0.000000  celldm(6)=   0.000000

     crystal axes: (cart. coord. in units of alat)
               a(1) = (   1.000000   0.000000   0.000000 )  
               a(2) = (   0.000000   1.000000   0.000000 )  
               a(3) = (   0.000000   0.000000   1.256601 )  

     reciprocal axes: (cart. coord. in units 2 pi/alat)
               b(1) = (  1.000000  0.000000  0.000000 )  
               b(2) = (  0.000000  1.000000  0.000000 )  
               b(3) = (  0.000000  0.000000  0.795798 )  


     PseudoPot. # 1 for Hf read from file:
     q-e/pseudo/hf_pbe_v1.uspp.F.UPF
     MD5 check sum: 8ee9378dfe14276e333edf04c5e4aa26
     Pseudo is Ultrasoft + core correction, Zval = 12.0
     Generated by new atomic code, or converted to UPF format
     Using radial grid of  921 points,  8 beta functions with: 
                l(1) =   0
                l(2) =   0
                l(3) =   0
                l(4) =   1
                l(5) =   1
                l(6) =   2
                l(7) =   2
                l(8) =   3
     Q(r) pseudized with  6 coefficients,  rinner =    1.200   1.200   1.200
                                                       1.200   1.200   1.200
                                                       1.200

     PseudoPot. # 2 for Nb read from file:
     q-e/pseudo/nb_pbe_v1.uspp.F.UPF
     MD5 check sum: 573aab8a2fa660278ed4a62cd769473f
     Pseudo is Ultrasoft + core correction, Zval = 13.0
     Generated by new atomic code, or converted to UPF format
     Using radial grid of  887 points,  6 beta functions with: 
                l(1) =   0
                l(2) =   0
                l(3) =   1
                l(4) =   1
                l(5) =   2
                l(6) =   2
     Q(r) pseudized with  6 coefficients,  rinner =    1.000   1.000   1.000
                                                       1.000   1.000

     PseudoPot. # 3 for Ta read from file:
     q-e/pseudo/ta_pbe_v1.uspp.F.UPF
     MD5 check sum: f8bbe9446314a3b8ea5d9f3e3836c939
     Pseudo is Ultrasoft + core correction, Zval = 13.0
     Generated by new atomic code, or converted to UPF format
     Using radial grid of  921 points,  7 beta functions with: 
                l(1) =   0
                l(2) =   0
                l(3) =   1
                l(4) =   1
                l(5) =   2
                l(6) =   2
                l(7) =   3
     Q(r) pseudized with  6 coefficients,  rinner =    1.300   1.300   1.300
                                                       1.300   1.300   1.300
                                                       1.300

     PseudoPot. # 4 for Zr read from file:
     q-e/pseudo/zr_pbe_v1.uspp.F.UPF
     MD5 check sum: 5db81b1e868ab7776c4564c113de050b
     Pseudo is Ultrasoft + core correction, Zval = 12.0
     Generated by new atomic code, or converted to UPF format
     Using radial grid of  887 points,  6 beta functions with: 
                l(1) =   0
                l(2) =   0
                l(3) =   1
                l(4) =   1
                l(5) =   2
                l(6) =   2
     Q(r) pseudized with  6 coefficients,  rinner =    1.200   1.200   1.200
                                                       1.200   1.200

     PseudoPot. # 5 for H  read from file:
     q-e/pseudo/h_pbe_v1.4.uspp.F.UPF
     MD5 check sum: 761ae9a214b05c3daf00ab9f6b793d6f
     Pseudo is Ultrasoft, Zval =  1.0
     Generated by new atomic code, or converted to UPF format
     Using radial grid of  615 points,  2 beta functions with: 
                l(1) =   0
                l(2) =   0
     Q(r) pseudized with  8 coefficients,  rinner =    0.700

     atomic species   valence    mass     pseudopotential
        Hf            12.00   178.49000     Hf( 1.00)
        Nb            13.00    92.90637     Nb( 1.00)
        Ta            13.00   180.94788     Ta( 1.00)
        Zr            12.00    91.22400     Zr( 1.00)
        H              1.00     2.01400     H ( 1.00)

     Starting magnetic structure 
     atomic species   magnetization
        Hf           0.000
        Nb           0.000
        Ta           0.000
        Zr           0.000
        H            0.000

     No symmetry found



   Cartesian axes

     site n.     atom                  positions (alat units)
         1           Hf  tau(   1) = (   0.0833486   0.0833517   0.5449596  )
         2           Nb  tau(   2) = (   0.0833173   0.2500113   0.7116414  )
         3           Ta  tau(   3) = (   0.2500207   0.0833236   0.7116404  )
         4           Zr  tau(   4) = (   0.2499759   0.2499920   0.5449844  )
         5           Hf  tau(   5) = (   0.0833519   0.4166833   0.5449593  )
         6           Nb  tau(   6) = (   0.0833187   0.5833390   0.7116416  )
         7           Ta  tau(   7) = (   0.2500216   0.4166547   0.7116404  )
         8           Zr  tau(   8) = (   0.2499738   0.5833112   0.5449842  )
         9           Hf  tau(   9) = (   0.0833458   0.7500096   0.5449595  )
        10           Nb  tau(  10) = (   0.0833165   0.9166805   0.7116416  )
        11           Ta  tau(  11) = (   0.2500187   0.7499864   0.7116407  )
        12           Zr  tau(  12) = (   0.2499713   0.9166568   0.5449844  )
        13           Hf  tau(  13) = (   0.4166780   0.0833551   0.5449592  )
        14           Nb  tau(  14) = (   0.4166510   0.2500112   0.7116411  )
        15           Ta  tau(  15) = (   0.5833605   0.0833207   0.7116403  )
        16           Zr  tau(  16) = (   0.5833110   0.2499891   0.5449845  )
        17           Hf  tau(  17) = (   0.4166746   0.4166799   0.5449591  )
        18           Nb  tau(  18) = (   0.4166488   0.5833406   0.7116415  )
        19           Ta  tau(  19) = (   0.5833576   0.4166574   0.7116406  )
        20           Zr  tau(  20) = (   0.5833116   0.5833123   0.5449845  )
        21           Hf  tau(  21) = (   0.4166783   0.7500098   0.5449593  )
        22           Nb  tau(  22) = (   0.4166498   0.9166789   0.7116413  )
        23           Ta  tau(  23) = (   0.5833620   0.7499865   0.7116407  )
        24           Zr  tau(  24) = (   0.5833161   0.9166588   0.5449846  )
        25           Hf  tau(  25) = (   0.7500205   0.0833469   0.5449594  )
        26           Nb  tau(  26) = (   0.7499833   0.2500108   0.7116412  )
        27           Ta  tau(  27) = (   0.9166895   0.0833203   0.7116402  )
        28           Zr  tau(  28) = (   0.9166437   0.2499878   0.5449845  )
        29           Hf  tau(  29) = (   0.7500213   0.4166878   0.5449593  )
        30           Nb  tau(  30) = (   0.7499838   0.5833405   0.7116413  )
        31           Ta  tau(  31) = (   0.9166918   0.4166587   0.7116403  )
        32           Zr  tau(  32) = (   0.9166451   0.5833137   0.5449844  )
        33           Hf  tau(  33) = (   0.7500228   0.7500097   0.5449592  )
        34           Nb  tau(  34) = (   0.7499850   0.9166794   0.7116413  )
        35           Ta  tau(  35) = (   0.9166897   0.7499858   0.7116404  )
        36           Zr  tau(  36) = (   0.9166429   0.9166582   0.5449845  )
        37           H   tau(  37) = (   0.4541326   0.3633061   1.1625795  )

     number of k points=     1  Gaussian smearing, width (Ry)=  0.0220
                       cart. coord. in units 2pi/alat
        k(    1) = (   0.0000000   0.0000000   0.0000000), wk =   1.0000000

     Dense  grid:  2009667 G-vectors     FFT dimensions: ( 150, 150, 192)

     Estimated max dynamical RAM per process >       1.70 GB

     Estimated total dynamical RAM >      20.43 GB

     Check: negative core charge=   -0.000002
     Generating pointlists ...
     new r_m :   0.0972 (alat units)  2.0224 (a.u.) for type    1
     new r_m :   0.0972 (alat units)  2.0225 (a.u.) for type    2
     new r_m :   0.0972 (alat units)  2.0225 (a.u.) for type    3
     new r_m :   0.0972 (alat units)  2.0224 (a.u.) for type    4
     new r_m :   0.1924 (alat units)  4.0034 (a.u.) for type    5

     Initial potential from superposition of free atoms

     starting charge     432.9460, renormalised to     451.0000

     negative rho (up, down):  1.212E+00 1.212E+00
     Starting wfcs are  469 randomized atomic wfcs

     total cpu time spent up to now is      208.9 secs

     Self-consistent Calculation

     iteration #  1     ecut=   120.00 Ry     beta= 0.70
     Davidson diagonalization with overlap
     ethr =  1.00E-02,  avg # of iterations =  6.0

     negative rho (up, down):  1.519E+00 1.520E+00

     total cpu time spent up to now is      605.9 secs

     total energy              =   -4640.20995454 Ry
     estimated scf accuracy    <     411.35617908 Ry

     total magnetization       =     0.00 Bohr mag/cell
     absolute magnetization    =     0.06 Bohr mag/cell

     iteration #  2     ecut=   120.00 Ry     beta= 0.70
     Davidson diagonalization with overlap
     ethr =  1.00E-02,  avg # of iterations =  6.0

     negative rho (up, down):  1.678E+00 1.677E+00

     total cpu time spent up to now is     1104.4 secs

     total energy              =   -4657.65467335 Ry
     estimated scf accuracy    <      30.96694021 Ry

     total magnetization       =    -0.10 Bohr mag/cell
     absolute magnetization    =     0.96 Bohr mag/cell

     iteration #  3     ecut=   120.00 Ry     beta= 0.70
     Davidson diagonalization with overlap
