
     Program PWSCF v.7.2 starts on 22May2023 at 19:13:18 

     This program is part of the open-source Quantum ESPRESSO suite
     for quantum simulation of materials; please cite
         "P. Giannozzi et al., J. Phys.:Condens. Matter 21 395502 (2009);
         "P. Giannozzi et al., J. Phys.:Condens. Matter 29 465901 (2017);
         "P. Giannozzi et al., J. Chem. Phys. 152 154105 (2020);
          URL http://www.quantum-espresso.org", 
     in publications or presentations arising from this work. More details at
     http://www.quantum-espresso.org/quote

     Parallel version (MPI), running on    12 processors

     MPI processes distributed on     1 nodes
     75129 MiB available memory on the printing compute node when the environment starts

     Reading input from HfNbTaZr_16_MD_nsteps_10.in
Warning: card &CELL ignored
Warning: card / ignored
Warning: card TA 0.0 0.0 0.0 ignored
Warning: card NB 0.0 0.0 0.0 ignored
Warning: card HF 0.0 0.0 0.0 ignored
Warning: card ZR 0.0 0.0 0.0 ignored
Warning: card H 0.0 0.0 -0.03464 ignored

     Current dimensions of program PWSCF are:
     Max number of different atomic species (ntypx) = 10
     Max number of k-points (npk) =  40000
     Max angular momentum in pseudopotentials (lmaxx) =  4

     File ./pwscf.md deleted, as requested

     R & G space division:  proc/nbgrp/npool/nimage =      12
     Subspace diagonalization in iterative solution of the eigenvalue problem:
     a serial algorithm will be used


     Parallelization info
     --------------------
     sticks:   dense  smooth     PW     G-vecs:    dense   smooth      PW
     Min         126     126     31                17826    17826    2217
     Max         127     127     32                17839    17839    2234
     Sum        1517    1517    377               213975   213975   26649

     Using Slab Decomposition



     bravais-lattice index     =            0
     lattice parameter (alat)  =       6.3117  a.u.
     unit-cell volume          =    1205.8245 (a.u.)^3
     number of atoms/cell      =           17
     number of atomic types    =            5
     number of electrons       =       201.00
     number of Kohn-Sham states=          121
     kinetic-energy cutoff     =     120.0000  Ry
     charge density cutoff     =     480.0000  Ry
     scf convergence threshold =      1.0E-06
     mixing beta               =       0.7000
     number of iterations used =            8  TF        mixing
     energy convergence thresh.=      0.0E+00
     force convergence thresh. =      0.0E+00
     Exchange-correlation=  SLA  PW   PBX  PBC
                           (   1   4   3   4   0   0   0)
     nstep                     =           10


     celldm(1)=   6.311685  celldm(2)=   0.000000  celldm(3)=   0.000000
     celldm(4)=   0.000000  celldm(5)=   0.000000  celldm(6)=   0.000000

     crystal axes: (cart. coord. in units of alat)
               a(1) = (   1.000000   0.000000   0.000000 )  
               a(2) = (   0.000000   1.000000   0.000000 )  
               a(3) = (   0.000000   0.000000   4.795658 )  

     reciprocal axes: (cart. coord. in units 2 pi/alat)
               b(1) = (  1.000000  0.000000  0.000000 )  
               b(2) = (  0.000000  1.000000  0.000000 )  
               b(3) = (  0.000000  0.000000  0.208522 )  


     PseudoPot. # 1 for Hf read from file:
     q-e/pseudo/hf_pbe_v1.uspp.F.UPF
     MD5 check sum: 8ee9378dfe14276e333edf04c5e4aa26
     Pseudo is Ultrasoft + core correction, Zval = 12.0
     Generated by new atomic code, or converted to UPF format
     Using radial grid of  921 points,  8 beta functions with: 
                l(1) =   0
                l(2) =   0
                l(3) =   0
                l(4) =   1
                l(5) =   1
                l(6) =   2
                l(7) =   2
                l(8) =   3
     Q(r) pseudized with  6 coefficients,  rinner =    1.200   1.200   1.200
                                                       1.200   1.200   1.200
                                                       1.200

     PseudoPot. # 2 for Nb read from file:
     q-e/pseudo/nb_pbe_v1.uspp.F.UPF
     MD5 check sum: 573aab8a2fa660278ed4a62cd769473f
     Pseudo is Ultrasoft + core correction, Zval = 13.0
     Generated by new atomic code, or converted to UPF format
     Using radial grid of  887 points,  6 beta functions with: 
                l(1) =   0
                l(2) =   0
                l(3) =   1
                l(4) =   1
                l(5) =   2
                l(6) =   2
     Q(r) pseudized with  6 coefficients,  rinner =    1.000   1.000   1.000
                                                       1.000   1.000

     PseudoPot. # 3 for Ta read from file:
     q-e/pseudo/ta_pbe_v1.uspp.F.UPF
     MD5 check sum: f8bbe9446314a3b8ea5d9f3e3836c939
     Pseudo is Ultrasoft + core correction, Zval = 13.0
     Generated by new atomic code, or converted to UPF format
     Using radial grid of  921 points,  7 beta functions with: 
                l(1) =   0
                l(2) =   0
                l(3) =   1
                l(4) =   1
                l(5) =   2
                l(6) =   2
                l(7) =   3
     Q(r) pseudized with  6 coefficients,  rinner =    1.300   1.300   1.300
                                                       1.300   1.300   1.300
                                                       1.300

     PseudoPot. # 4 for Zr read from file:
     q-e/pseudo/zr_pbe_v1.uspp.F.UPF
     MD5 check sum: 5db81b1e868ab7776c4564c113de050b
     Pseudo is Ultrasoft + core correction, Zval = 12.0
     Generated by new atomic code, or converted to UPF format
     Using radial grid of  887 points,  6 beta functions with: 
                l(1) =   0
                l(2) =   0
                l(3) =   1
                l(4) =   1
                l(5) =   2
                l(6) =   2
     Q(r) pseudized with  6 coefficients,  rinner =    1.200   1.200   1.200
                                                       1.200   1.200

     PseudoPot. # 5 for H  read from file:
     q-e/pseudo/h_pbe_v1.4.uspp.F.UPF
     MD5 check sum: 761ae9a214b05c3daf00ab9f6b793d6f
     Pseudo is Ultrasoft, Zval =  1.0
     Generated by new atomic code, or converted to UPF format
     Using radial grid of  615 points,  2 beta functions with: 
                l(1) =   0
                l(2) =   0
     Q(r) pseudized with  8 coefficients,  rinner =    0.700

     atomic species   valence    mass     pseudopotential
        Hf            12.00   178.49000     Hf( 1.00)
        Nb            13.00    92.90637     Nb( 1.00)
        Ta            13.00   180.94788     Ta( 1.00)
        Zr            12.00    91.22400     Zr( 1.00)
        H              1.00     2.01400     H ( 1.00)

     Starting magnetic structure 
     atomic species   magnetization
        Hf           0.000
        Nb           0.000
        Ta           0.000
        Zr           0.000
        H            0.000

     No symmetry found



   Cartesian axes

     site n.     atom                  positions (alat units)
         1           Hf  tau(   1) = (   0.0257126  -0.2380670   2.2314993  )
         2           Hf  tau(   2) = (   0.2958296   0.5692939   2.5037300  )
         3           Nb  tau(   3) = (   0.3217662   0.0406148   2.0418082  )
         4           Nb  tau(   4) = (   0.4937457   0.2582876   2.7527939  )
         5           Ta  tau(   5) = (   0.0212498  -0.2341460   2.8101201  )
         6           Ta  tau(   6) = (   0.5845723   0.2992196   2.2933701  )
         7           Zr  tau(   7) = (   0.2986909   0.5225072   1.9927540  )
         8           Zr  tau(   8) = (   0.7544410   0.0627153   2.9992503  )
         9           Hf  tau(   9) = (   0.5802524  -0.2154994   2.2600362  )
        10           Hf  tau(  10) = (  -0.1941074   0.5101935   2.5308539  )
        11           Nb  tau(  11) = (   0.7250384   0.4803520   1.9329121  )
        12           Nb  tau(  12) = (   0.0441887   0.2749999   2.2631228  )
        13           Ta  tau(  13) = (   0.2698528   0.0362638   2.5181471  )
        14           Ta  tau(  14) = (   0.7908960   1.0015695   2.5327994  )
        15           Zr  tau(  15) = (   0.5521811   0.7840991   1.7964073  )
        16           Zr  tau(  16) = (   0.0558847   0.2677700   2.8092407  )
        17           H   tau(  17) = (   1.4970061   1.1976048   1.4970061  )

     number of k points=     1  Gaussian smearing, width (Ry)=  0.0220
                       cart. coord. in units 2pi/alat
        k(    1) = (   0.0000000   0.0000000   0.0000000), wk =   1.0000000

     Dense  grid:   213975 G-vectors     FFT dimensions: (  45,  45, 216)

     Estimated max dynamical RAM per process >     170.15 MB

     Estimated total dynamical RAM >       1.99 GB

     Check: negative core charge=   -0.000004
     Generating pointlists ...
     new r_m :   0.1597 (alat units)  1.0080 (a.u.) for type    1
     new r_m :   0.1548 (alat units)  0.9769 (a.u.) for type    2
     new r_m :   0.1597 (alat units)  1.0080 (a.u.) for type    3
     new r_m :   0.1548 (alat units)  0.9769 (a.u.) for type    4
     new r_m :   0.2118 (alat units)  1.3369 (a.u.) for type    5

     Initial potential from superposition of free atoms

     starting charge     192.9760, renormalised to     201.0000

     negative rho (up, down):  3.317E-01 3.317E-01
     Starting wfcs are  209 randomized atomic wfcs

     total cpu time spent up to now is        8.2 secs

     Self-consistent Calculation

     iteration #  1     ecut=   120.00 Ry     beta= 0.70
     Davidson diagonalization with overlap
     ethr =  1.00E-02,  avg # of iterations =  6.0

     negative rho (up, down):  2.038E-01 2.036E-01

     total cpu time spent up to now is       26.1 secs

     total energy              =   -1899.66792791 Ry
     estimated scf accuracy    <     149.89063570 Ry

     total magnetization       =    -0.00 Bohr mag/cell
     absolute magnetization    =     0.06 Bohr mag/cell

     iteration #  2     ecut=   120.00 Ry     beta= 0.70
     Davidson diagonalization with overlap
     ethr =  1.00E-02,  avg # of iterations =  2.0

     negative rho (up, down):  1.868E-01 1.868E-01

     total cpu time spent up to now is       36.7 secs

     total energy              =   -1898.35017784 Ry
     estimated scf accuracy    <      41.77090068 Ry

     total magnetization       =     0.00 Bohr mag/cell
     absolute magnetization    =     0.03 Bohr mag/cell

     iteration #  3     ecut=   120.00 Ry     beta= 0.70
     Davidson diagonalization with overlap
     ethr =  1.00E-02,  avg # of iterations =  2.0

     negative rho (up, down):  1.725E-01 1.725E-01

     total cpu time spent up to now is       46.7 secs

     total energy              =   -1898.05757428 Ry
     estimated scf accuracy    <      12.52291174 Ry

     total magnetization       =    -0.00 Bohr mag/cell
     absolute magnetization    =     0.03 Bohr mag/cell

     iteration #  4     ecut=   120.00 Ry     beta= 0.70
     Davidson diagonalization with overlap
     ethr =  6.23E-03,  avg # of iterations =  2.0

     negative rho (up, down):  1.633E-01 1.633E-01

     total cpu time spent up to now is       56.3 secs

     total energy              =   -1898.08087178 Ry
     estimated scf accuracy    <       4.74646326 Ry

     total magnetization       =    -0.00 Bohr mag/cell
     absolute magnetization    =     0.03 Bohr mag/cell

     iteration #  5     ecut=   120.00 Ry     beta= 0.70
     Davidson diagonalization with overlap
     ethr =  2.36E-03,  avg # of iterations =  2.0

     negative rho (up, down):  1.736E-01 1.736E-01

     total cpu time spent up to now is       67.3 secs

     total energy              =   -1897.25208620 Ry
     estimated scf accuracy    <       3.36786787 Ry

     total magnetization       =    -0.00 Bohr mag/cell
     absolute magnetization    =     0.02 Bohr mag/cell

     iteration #  6     ecut=   120.00 Ry     beta= 0.70
     Davidson diagonalization with overlap
     ethr =  1.68E-03,  avg # of iterations =  6.0

     negative rho (up, down):  1.912E-01 1.909E-01

     total cpu time spent up to now is       77.3 secs

     total energy              =   -1897.13749247 Ry
     estimated scf accuracy    <       1.84714054 Ry

     total magnetization       =    -0.00 Bohr mag/cell
     absolute magnetization    =     0.01 Bohr mag/cell

     iteration #  7     ecut=   120.00 Ry     beta= 0.70
     Davidson diagonalization with overlap
     ethr =  9.19E-04,  avg # of iterations =  7.0

     negative rho (up, down):  3.383E-01 3.381E-01

     total cpu time spent up to now is       87.5 secs

     total energy              =   -1896.99472348 Ry
     estimated scf accuracy    <       1.17516779 Ry

     total magnetization       =    -0.00 Bohr mag/cell
     absolute magnetization    =     0.01 Bohr mag/cell

     iteration #  8     ecut=   120.00 Ry     beta= 0.70
     Davidson diagonalization with overlap
     ethr =  5.85E-04,  avg # of iterations =  2.0

     negative rho (up, down):  3.550E-01 3.550E-01

     total cpu time spent up to now is       96.8 secs

     total energy              =   -1896.91847992 Ry
     estimated scf accuracy    <       0.84868474 Ry

     total magnetization       =    -0.00 Bohr mag/cell
     absolute magnetization    =     0.01 Bohr mag/cell

     iteration #  9     ecut=   120.00 Ry     beta= 0.70
     Davidson diagonalization with overlap
     ethr =  4.22E-04,  avg # of iterations =  3.0

     negative rho (up, down):  3.174E-01 3.174E-01

     total cpu time spent up to now is      106.2 secs

     total energy              =   -1896.78012197 Ry
     estimated scf accuracy    <       0.62165976 Ry

     total magnetization       =     0.00 Bohr mag/cell
     absolute magnetization    =     0.00 Bohr mag/cell

     iteration # 10     ecut=   120.00 Ry     beta= 0.70
     Davidson diagonalization with overlap
     ethr =  3.09E-04,  avg # of iterations =  2.0

     negative rho (up, down):  3.885E-01 3.885E-01

     total cpu time spent up to now is      116.0 secs

     total energy              =   -1896.73710723 Ry
     estimated scf accuracy    <       0.59227587 Ry

     total magnetization       =     0.00 Bohr mag/cell
     absolute magnetization    =     0.00 Bohr mag/cell

     iteration # 11     ecut=   120.00 Ry     beta= 0.70
     Davidson diagonalization with overlap
     ethr =  2.95E-04,  avg # of iterations =  7.0

     negative rho (up, down):  3.050E-01 3.049E-01

     total cpu time spent up to now is      127.1 secs

     total energy              =   -1896.63277833 Ry
     estimated scf accuracy    <       0.37527116 Ry

     total magnetization       =     0.00 Bohr mag/cell
     absolute magnetization    =     0.00 Bohr mag/cell

     iteration # 12     ecut=   120.00 Ry     beta= 0.70
     Davidson diagonalization with overlap
     ethr =  1.87E-04,  avg # of iterations =  3.0

     negative rho (up, down):  3.623E-01 3.622E-01

     total cpu time spent up to now is      138.1 secs

     total energy              =   -1896.57061953 Ry
     estimated scf accuracy    <       0.47313185 Ry

     total magnetization       =    -0.00 Bohr mag/cell
     absolute magnetization    =     0.00 Bohr mag/cell

     iteration # 13     ecut=   120.00 Ry     beta= 0.70
     Davidson diagonalization with overlap
     ethr =  1.87E-04,  avg # of iterations =  8.0

     negative rho (up, down):  3.367E-01 3.367E-01

     total cpu time spent up to now is      149.9 secs

     total energy              =   -1896.45771423 Ry
     estimated scf accuracy    <       0.26495903 Ry

     total magnetization       =    -0.00 Bohr mag/cell
     absolute magnetization    =     0.00 Bohr mag/cell

     iteration # 14     ecut=   120.00 Ry     beta= 0.70
     Davidson diagonalization with overlap
     ethr =  1.32E-04,  avg # of iterations =  6.0

     negative rho (up, down):  2.953E-01 2.953E-01

     total cpu time spent up to now is      161.9 secs

     total energy              =   -1896.41778230 Ry
     estimated scf accuracy    <       0.09120500 Ry

     total magnetization       =     0.00 Bohr mag/cell
     absolute magnetization    =     0.00 Bohr mag/cell

     iteration # 15     ecut=   120.00 Ry     beta= 0.70
     Davidson diagonalization with overlap
     ethr =  4.54E-05,  avg # of iterations =  6.0

     negative rho (up, down):  2.273E-01 2.273E-01

     total cpu time spent up to now is      174.7 secs

     total energy              =   -1896.40827476 Ry
     estimated scf accuracy    <       0.03645789 Ry

     total magnetization       =     0.00 Bohr mag/cell
     absolute magnetization    =     0.00 Bohr mag/cell

     iteration # 16     ecut=   120.00 Ry     beta= 0.70
     Davidson diagonalization with overlap
     ethr =  1.81E-05,  avg # of iterations =  3.0

     negative rho (up, down):  2.008E-01 2.008E-01

     total cpu time spent up to now is      186.4 secs

     total energy              =   -1896.41161217 Ry
     estimated scf accuracy    <       0.00894168 Ry

     total magnetization       =     0.00 Bohr mag/cell
     absolute magnetization    =     0.00 Bohr mag/cell

     iteration # 17     ecut=   120.00 Ry     beta= 0.70
     Davidson diagonalization with overlap
     ethr =  4.45E-06,  avg # of iterations =  6.0

     negative rho (up, down):  1.736E-01 1.736E-01

     total cpu time spent up to now is      198.1 secs

     total energy              =   -1896.41230215 Ry
     estimated scf accuracy    <       0.00250234 Ry

     total magnetization       =     0.00 Bohr mag/cell
     absolute magnetization    =     0.00 Bohr mag/cell

     iteration # 18     ecut=   120.00 Ry     beta= 0.70
     Davidson diagonalization with overlap
     ethr =  1.24E-06,  avg # of iterations =  9.0

     negative rho (up, down):  1.705E-01 1.705E-01

     total cpu time spent up to now is      211.0 secs

     total energy              =   -1896.41259035 Ry
     estimated scf accuracy    <       0.00134028 Ry

     total magnetization       =    -0.00 Bohr mag/cell
     absolute magnetization    =     0.00 Bohr mag/cell

     iteration # 19     ecut=   120.00 Ry     beta= 0.70
     Davidson diagonalization with overlap
     ethr =  6.67E-07,  avg # of iterations =  5.0

     negative rho (up, down):  1.673E-01 1.673E-01

     total cpu time spent up to now is      222.1 secs

     total energy              =   -1896.41250949 Ry
     estimated scf accuracy    <       0.00031839 Ry

     total magnetization       =    -0.00 Bohr mag/cell
     absolute magnetization    =     0.00 Bohr mag/cell

     iteration # 20     ecut=   120.00 Ry     beta= 0.70
     Davidson diagonalization with overlap
     ethr =  1.58E-07,  avg # of iterations =  4.0

     negative rho (up, down):  1.662E-01 1.662E-01

     total cpu time spent up to now is      233.5 secs

     total energy              =   -1896.41238729 Ry
     estimated scf accuracy    <       0.00021856 Ry

     total magnetization       =    -0.00 Bohr mag/cell
     absolute magnetization    =     0.00 Bohr mag/cell

     iteration # 21     ecut=   120.00 Ry     beta= 0.70
     Davidson diagonalization with overlap
     ethr =  1.09E-07,  avg # of iterations =  2.0

     negative rho (up, down):  1.649E-01 1.649E-01

     total cpu time spent up to now is      245.2 secs

     total energy              =   -1896.41240861 Ry
     estimated scf accuracy    <       0.00015832 Ry

     total magnetization       =    -0.00 Bohr mag/cell
     absolute magnetization    =     0.00 Bohr mag/cell

     iteration # 22     ecut=   120.00 Ry     beta= 0.70
     Davidson diagonalization with overlap
     ethr =  7.88E-08,  avg # of iterations =  6.0

     negative rho (up, down):  1.631E-01 1.631E-01

     total cpu time spent up to now is      256.5 secs

     total energy              =   -1896.41238495 Ry
     estimated scf accuracy    <       0.00011066 Ry

     total magnetization       =    -0.00 Bohr mag/cell
     absolute magnetization    =     0.00 Bohr mag/cell

     iteration # 23     ecut=   120.00 Ry     beta= 0.70
     Davidson diagonalization with overlap
     ethr =  5.51E-08,  avg # of iterations =  7.0

     negative rho (up, down):  1.635E-01 1.635E-01

     total cpu time spent up to now is      269.1 secs

     total energy              =   -1896.41248799 Ry
     estimated scf accuracy    <       0.00005521 Ry

     total magnetization       =    -0.00 Bohr mag/cell
     absolute magnetization    =     0.00 Bohr mag/cell

     iteration # 24     ecut=   120.00 Ry     beta= 0.70
     Davidson diagonalization with overlap
     ethr =  2.75E-08,  avg # of iterations =  3.0

     negative rho (up, down):  1.635E-01 1.635E-01

     total cpu time spent up to now is      280.2 secs

     total energy              =   -1896.41251348 Ry
     estimated scf accuracy    <       0.00003634 Ry

     total magnetization       =     0.00 Bohr mag/cell
     absolute magnetization    =     0.00 Bohr mag/cell

     iteration # 25     ecut=   120.00 Ry     beta= 0.70
     Davidson diagonalization with overlap
     ethr =  1.81E-08,  avg # of iterations =  2.0

     negative rho (up, down):  1.623E-01 1.623E-01

     total cpu time spent up to now is      290.6 secs

     total energy              =   -1896.41248658 Ry
     estimated scf accuracy    <       0.00002232 Ry

     total magnetization       =     0.00 Bohr mag/cell
     absolute magnetization    =     0.00 Bohr mag/cell

     iteration # 26     ecut=   120.00 Ry     beta= 0.70
     Davidson diagonalization with overlap
     ethr =  1.11E-08,  avg # of iterations =  2.0

     negative rho (up, down):  1.623E-01 1.623E-01

     total cpu time spent up to now is      301.9 secs

     total energy              =   -1896.41248502 Ry
     estimated scf accuracy    <       0.00000701 Ry

     total magnetization       =     0.00 Bohr mag/cell
     absolute magnetization    =     0.00 Bohr mag/cell

     iteration # 27     ecut=   120.00 Ry     beta= 0.70
     Davidson diagonalization with overlap
     ethr =  3.49E-09,  avg # of iterations =  2.0

     negative rho (up, down):  1.622E-01 1.622E-01

     total cpu time spent up to now is      312.4 secs

     total energy              =   -1896.41249523 Ry
     estimated scf accuracy    <       0.00000365 Ry

     total magnetization       =     0.00 Bohr mag/cell
     absolute magnetization    =     0.00 Bohr mag/cell

     iteration # 28     ecut=   120.00 Ry     beta= 0.70
     Davidson diagonalization with overlap
     ethr =  1.81E-09,  avg # of iterations =  2.0

     negative rho (up, down):  1.624E-01 1.624E-01

     Magnetic moment per site  (integrated on atomic sphere of radius R)
     atom   1 (R=0.160)  charge=  4.5294  magn= -0.0000
     atom   2 (R=0.160)  charge=  4.5752  magn= -0.0000
     atom   3 (R=0.155)  charge=  4.3344  magn= -0.0000
     atom   4 (R=0.155)  charge=  4.4452  magn= -0.0000
     atom   5 (R=0.160)  charge=  4.6785  magn= -0.0000
     atom   6 (R=0.160)  charge=  5.4000  magn= -0.0000
     atom   7 (R=0.155)  charge=  3.6596  magn= -0.0000
     atom   8 (R=0.155)  charge=  3.3141  magn= -0.0000
     atom   9 (R=0.160)  charge=  4.7336  magn=  0.0000
     atom  10 (R=0.160)  charge=  4.7479  magn= -0.0000
     atom  11 (R=0.155)  charge=  4.2647  magn=  0.0000
     atom  12 (R=0.155)  charge=  4.6235  magn= -0.0000
     atom  13 (R=0.160)  charge=  5.3972  magn= -0.0000
     atom  14 (R=0.160)  charge=  5.3504  magn= -0.0000
     atom  15 (R=0.155)  charge=  3.4477  magn=  0.0000
     atom  16 (R=0.155)  charge=  3.6900  magn= -0.0000
     atom  17 (R=0.212)  charge=  1.0536  magn=  0.0000

     total cpu time spent up to now is      323.2 secs

     End of self-consistent calculation

 ------ SPIN UP ------------


          k = 0.0000 0.0000 0.0000 ( 26649 PWs)   bands (ev):

   -88.6819 -77.2026 -74.6701 -73.7983 -71.3122 -66.5980 -63.4869 -60.7552
   -59.5412 -57.3397 -56.9364 -56.3103 -54.2676 -51.8637 -49.0531 -46.3938
   -44.8233 -43.9782 -42.3945 -40.2620 -39.0978 -37.1223 -35.1016 -33.6400
   -31.9857 -30.9661 -30.0256 -28.5960 -27.8330 -26.6808 -26.4888 -24.7061
   -23.7370 -22.5163 -21.7342 -20.8194 -18.8652 -18.7574 -17.4559 -16.7505
   -15.7403 -15.5521 -14.2677 -13.8298 -12.7116 -11.3089 -10.9809 -10.4525
   -10.0498  -8.4199  -7.5438  -7.1865  -6.9769  -6.0567  -5.0778  -4.3867
    -4.1332  -2.7913  -2.2437  -1.5752  -1.1508   0.4611   0.8445   1.7551
     2.4347   2.9290   3.4511   4.9647   5.2702   6.5727   7.1768   7.8992
     8.5832   9.4282   9.8712  10.4423  10.8908  11.1116  12.5066  12.9242
    13.8062  15.0298  15.8143  16.1449  17.9207  18.8886  19.6409  20.4750
    20.8635  21.2971  21.9503  22.4534  23.2895  23.9998  24.1897  24.3103
    25.1833  25.3713  26.0920  26.4206  27.5910  27.8738  27.9750  28.4459
    29.2933  29.6269  30.5588  30.7134  31.0059  31.1592  31.6811  31.8919
    32.3775  33.0066  33.7970  34.0685  34.5720  35.0067  35.2090  35.7409
    36.0891

 ------ SPIN DOWN ----------


          k = 0.0000 0.0000 0.0000 ( 26649 PWs)   bands (ev):

   -88.6819 -77.2026 -74.6701 -73.7983 -71.3122 -66.5980 -63.4869 -60.7552
   -59.5412 -57.3397 -56.9364 -56.3103 -54.2676 -51.8637 -49.0531 -46.3938
   -44.8233 -43.9782 -42.3945 -40.2620 -39.0978 -37.1223 -35.1016 -33.6400
   -31.9857 -30.9661 -30.0256 -28.5960 -27.8330 -26.6808 -26.4888 -24.7061
   -23.7370 -22.5163 -21.7342 -20.8194 -18.8652 -18.7574 -17.4559 -16.7505
   -15.7403 -15.5521 -14.2677 -13.8298 -12.7116 -11.3089 -10.9809 -10.4525
   -10.0498  -8.4199  -7.5438  -7.1865  -6.9769  -6.0567  -5.0778  -4.3867
    -4.1332  -2.7913  -2.2437  -1.5752  -1.1508   0.4611   0.8445   1.7551
     2.4347   2.9290   3.4511   4.9647   5.2702   6.5727   7.1768   7.8992
     8.5832   9.4282   9.8712  10.4423  10.8908  11.1116  12.5066  12.9242
    13.8062  15.0298  15.8143  16.1449  17.9207  18.8886  19.6409  20.4750
    20.8635  21.2971  21.9503  22.4534  23.2895  23.9998  24.1897  24.3103
    25.1833  25.3713  26.0920  26.4206  27.5910  27.8738  27.9750  28.4459
    29.2933  29.6269  30.5588  30.7134  31.0059  31.1592  31.6811  31.8919
    32.3775  33.0066  33.7970  34.0685  34.5720  35.0067  35.2090  35.7409
    36.0891

     the Fermi energy is    27.5468 ev

!    total energy              =   -1896.41250391 Ry
     estimated scf accuracy    <       0.00000080 Ry
     smearing contrib. (-TS)   =      -0.01751052 Ry
     internal energy E=F+TS    =   -1896.39499340 Ry

     total magnetization       =    -0.00 Bohr mag/cell
     absolute magnetization    =     0.00 Bohr mag/cell

     convergence has been achieved in  28 iterations

     negative rho (up, down):  1.624E-01 1.624E-01

     Forces acting on atoms (cartesian axes, Ry/au):

     atom    1 type  1   force =    -1.68770632    2.44537288  -11.29067373
     atom    2 type  1   force =     1.64496187   -0.49484314    8.54542303
     atom    3 type  2   force =    -3.46931714    3.27492383  -12.26615210
     atom    4 type  2   force =     1.19315710    6.86044168   14.76815429
     atom    5 type  3   force =     5.11361299   -4.20771515   16.20744984
     atom    6 type  3   force =    -3.46741549   -4.91270402  -10.88500716
     atom    7 type  4   force =    -6.56278791   -3.55508780   -9.54601082
     atom    8 type  4   force =    -3.78154754   -2.42014660   14.29285885
     atom    9 type  1   force =    -0.44635584    1.70251325   -5.70806057
     atom   10 type  1   force =    -0.22364541    3.31000872   10.93763932
     atom   11 type  2   force =    10.66907993   -8.95600053   -8.44850618
     atom   12 type  2   force =    -2.12030539    0.25133437  -10.26910242
     atom   13 type  3   force =     1.93669647   -6.88959196    2.82974860
     atom   14 type  3   force =    -1.78638364   -0.37129189    4.85887381
     atom   15 type  4   force =     1.15076637    9.05823713  -14.90819469
     atom   16 type  4   force =     1.89154322    4.84249409   11.03984481
     atom   17 type  5   force =    -0.05435327    0.06205516   -0.15828489
     The non-local contrib.  to forces
     atom    1 type  1   force =     1.77364176   -0.89927756    1.31037844
     atom    2 type  1   force =    -0.39540353   -1.43773609   -0.82688944
     atom    3 type  2   force =    -0.31447703    0.38719975   -1.87857232
     atom    4 type  2   force =     0.43639145    0.66882132    2.52973436
     atom    5 type  3   force =    -1.88755403    1.76788535   -4.12422716
     atom    6 type  3   force =     0.98323514    1.81026570    0.76656680
     atom    7 type  4   force =    -1.51934464   -0.20419822   -2.07949832
     atom    8 type  4   force =    -0.52378891   -0.42112002    2.45305695
     atom    9 type  1   force =    -0.91362416    0.56900844    0.02781144
     atom   10 type  1   force =    -0.20003062   -2.25039316   -2.11543267
     atom   11 type  2   force =     1.29137493   -0.68159171   -1.67911010
     atom   12 type  2   force =    -0.30881626    0.16177299   -1.00369294
     atom   13 type  3   force =    -0.19618831    3.25150212    0.76792546
     atom   14 type  3   force =    -0.21403921    0.38189007   -0.54252728
     atom   15 type  4   force =     0.79087837    1.16323287   -2.38809081
     atom   16 type  4   force =     0.57146439    0.59833024    2.10043718
     atom   17 type  5   force =    -0.00425718   -0.00315883    0.06031221
     The ionic contribution  to forces
     atom    1 type  1   force =   -10.66675780   10.79128113 -181.10173659
     atom    2 type  1   force =     9.26553664   13.66355243  139.18899239
     atom    3 type  2   force =   -18.26774304    9.66487371 -381.00461442
     atom    4 type  2   force =    -4.05350171   24.13971834  397.08165268
     atom    5 type  3   force =    17.86057527  -21.69940614  435.98181554
     atom    6 type  3   force =     1.43695786  -13.05264925 -121.30879814
     atom    7 type  4   force =   -33.89117065  -12.24671736 -378.69870189
     atom    8 type  4   force =   -18.94716947  -14.80637996  494.09887115
     atom    9 type  1   force =     8.35717236    8.74724533 -124.45176951
     atom   10 type  1   force =    -6.39865824   19.21801906  163.74583935
     atom   11 type  2   force =    44.57897858  -33.40289398 -447.56771338
     atom   12 type  2   force =   -13.38179881   -5.37769438 -167.06844280
     atom   13 type  3   force =     8.88804225  -26.66465432  145.82814270
     atom   14 type  3   force =    -9.67170570  -15.82951562  151.82088891
     atom   15 type  4   force =    12.76690194   34.57123576 -487.65593985
     atom   16 type  4   force =    12.26765848   22.15213262  400.13999605
     atom   17 type  5   force =    -0.14331797    0.13185264  -39.02848218
     The local contribution  to forces
     atom    1 type  1   force =     7.06190385   -7.29812519  168.02552773
     atom    2 type  1   force =    -7.11427090  -12.63059425 -129.47418445
     atom    3 type  2   force =    15.09711528   -6.75276422  370.51466840
     atom    4 type  2   force =     4.80224614  -17.91805729 -384.72764375
     atom    5 type  3   force =   -10.67250128   15.57022551 -415.08789862
     atom    6 type  3   force =    -5.95728112    6.11838323  109.38370098
     atom    7 type  4   force =    28.74776350    8.86633163  371.12055544
     atom    8 type  4   force =    15.65846745   12.77442898 -482.10554050
     atom    9 type  1   force =    -7.85413246   -7.47167689  118.60913291
     atom   10 type  1   force =     6.28793864  -13.49579805 -150.25359382
     atom   11 type  2   force =   -35.10361667   25.03143727  440.71597811
     atom   12 type  2   force =    11.55182070    5.46633176  157.75640839
     atom   13 type  3   force =    -6.68109511   16.31107067 -143.70654872
     atom   14 type  3   force =     7.99432261   15.04609245 -146.31680993
     atom   15 type  4   force =   -12.37985386  -26.56079572  474.96671582
     atom   16 type  4   force =   -10.90173371  -17.86165575 -391.08775580
     atom   17 type  5   force =     0.09320903   -0.06662340   38.80999143
     The core correction contribution to forces
     atom    1 type  1   force =     0.14355391   -0.14844018    0.47658729
     atom    2 type  1   force =    -0.11089373   -0.09021922   -0.34242481
     atom    3 type  2   force =     0.01578437   -0.02428607    0.10502065
     atom    4 type  2   force =     0.00811836   -0.03006889   -0.11656267
     atom    5 type  3   force =    -0.18690029    0.15355314   -0.56302546
     atom    6 type  3   force =     0.06970336    0.21116928    0.27505003
     atom    7 type  4   force =     0.09997079    0.02947660    0.11394504
     atom    8 type  4   force =     0.03075925    0.03292874   -0.15444241
     atom    9 type  1   force =    -0.03583252   -0.14197378    0.10809796
     atom   10 type  1   force =     0.08703422   -0.16211195   -0.43920591
     atom   11 type  2   force =    -0.09767175    0.09693876    0.08487688
     atom   12 type  2   force =     0.01836786    0.00085432    0.04841101
     atom   13 type  3   force =    -0.07399420    0.21270755   -0.05970507
     atom   14 type  3   force =     0.10497357    0.03060947   -0.10261403
     atom   15 type  4   force =    -0.02715507   -0.11547166    0.17088985
     atom   16 type  4   force =    -0.04584844   -0.04623279   -0.11374225
     atom   17 type  5   force =     0.00000000    0.00000000    0.00000000
     The Hubbard contrib.    to forces
     atom    1 type  1   force =     0.00000000    0.00000000    0.00000000
     atom    2 type  1   force =     0.00000000    0.00000000    0.00000000
     atom    3 type  2   force =     0.00000000    0.00000000    0.00000000
     atom    4 type  2   force =     0.00000000    0.00000000    0.00000000
     atom    5 type  3   force =     0.00000000    0.00000000    0.00000000
     atom    6 type  3   force =     0.00000000    0.00000000    0.00000000
     atom    7 type  4   force =     0.00000000    0.00000000    0.00000000
     atom    8 type  4   force =     0.00000000    0.00000000    0.00000000
     atom    9 type  1   force =     0.00000000    0.00000000    0.00000000
     atom   10 type  1   force =     0.00000000    0.00000000    0.00000000
     atom   11 type  2   force =     0.00000000    0.00000000    0.00000000
     atom   12 type  2   force =     0.00000000    0.00000000    0.00000000
     atom   13 type  3   force =     0.00000000    0.00000000    0.00000000
     atom   14 type  3   force =     0.00000000    0.00000000    0.00000000
     atom   15 type  4   force =     0.00000000    0.00000000    0.00000000
     atom   16 type  4   force =     0.00000000    0.00000000    0.00000000
     atom   17 type  5   force =     0.00000000    0.00000000    0.00000000
     The SCF correction term to forces
     atom    1 type  1   force =    -0.00000000   -0.00000000   -0.00000000
     atom    2 type  1   force =    -0.00000000    0.00000000   -0.00000000
     atom    3 type  2   force =    -0.00000000   -0.00000000   -0.00000000
     atom    4 type  2   force =    -0.00000000    0.00000000    0.00000000
     atom    5 type  3   force =    -0.00000000    0.00000000    0.00000000
     atom    6 type  3   force =    -0.00000000    0.00000000   -0.00000000
     atom    7 type  4   force =    -0.00000000    0.00000000   -0.00000000
     atom    8 type  4   force =     0.00000000    0.00000000    0.00000000
     atom    9 type  1   force =     0.00000000   -0.00000000   -0.00000000
     atom   10 type  1   force =     0.00000000    0.00000000    0.00000000
     atom   11 type  2   force =    -0.00000000    0.00000000   -0.00000000
     atom   12 type  2   force =     0.00000000    0.00000000   -0.00000000
     atom   13 type  3   force =    -0.00000000   -0.00000000   -0.00000000
     atom   14 type  3   force =     0.00000000   -0.00000000   -0.00000000
     atom   15 type  4   force =    -0.00000000    0.00000000   -0.00000000
     atom   16 type  4   force =    -0.00000000   -0.00000000    0.00000000
     atom   17 type  5   force =    -0.00000223    0.00000022   -0.00004830

     Total force =     0.178492     Total SCF correction =     0.000048

     Molecular Dynamics Calculation

     Starting temperature  =   300.00 K

     temperature is set once at start

     mass Hf               =   178.49
     mass Nb               =    92.91
     mass Ta               =   180.95
     mass Zr               =    91.22
     mass H                =     2.01
     Time step             =     2.00 a.u.,  0.0968 femto-seconds

     Entering Dynamics:    iteration =     1
                           time      =   0.0001 pico-seconds


ATOMIC_POSITIONS (angstrom)
Hf            0.0858800679       -0.7951436715        7.4532072815    0   0   0
Hf            0.9880709739        1.9014415882        8.3624579711    0   0   0
Nb            1.0746989219        0.1356535858        6.8196389631    0   0   0
Nb            1.6491103981        0.8626804318        9.1943310858    0   0   0
Ta            0.0709744107       -0.7820475991        9.3858007313    0   0   0
Ta            1.9524714937        0.9993933557        7.6598559185    0   0   0
Zr            0.9976274959        1.7451739843        6.6557981874    0   0   0
Zr            2.5198328619        0.2094691683       10.0174953943    0   0   0
Hf            1.9380429646       -0.7197681019        7.5485206618    0   0   0
Hf           -0.6483186390        1.7040463621        8.4530515930    0   0   0
Nb            2.4216282335        1.6043757567        6.4559262597    0   0   0
Nb            0.1475903912        0.9184995235        7.5588298057    0   0   0
Ta            0.9013084356        0.1211212120        8.4106110025    0   0   0
Ta            2.6415926642        3.3452418198        8.4595496119    0   0   0
Zr            1.8442847182        2.6188909264        6.0000000000    0   0   0
Zr            0.1866550429        0.8943516698        9.3828635984    0   0   0
H             5.0004149270        4.0014025580        5.0010966221


     kinetic energy (Ekin) =           0.00285013 Ry
     temperature           =         300.00000000 K 
     Ekin + Etot (const)   =       -1896.40965378 Ry

     File ./pwscf.msd.dat deleted, as requested

     Writing config-only to output data dir ./pwscf.save/
     NEW-OLD atomic charge density approx. for the potential

     Check: negative core charge=   -0.000004

     negative rho (up, down):  1.624E-01 1.624E-01
     Generating pointlists ...

     total cpu time spent up to now is      330.3 secs

     Self-consistent Calculation

     iteration #  1     ecut=   120.00 Ry     beta= 0.70
     Davidson diagonalization with overlap
     ethr =  1.00E-06,  avg # of iterations =  2.0

     Threshold (ethr) on eigenvalues was too large:
     Diagonalizing with lowered threshold

     Davidson diagonalization with overlap
     ethr =  1.15E-08,  avg # of iterations =  1.0

     negative rho (up, down):  1.624E-01 1.624E-01

     total cpu time spent up to now is      347.1 secs

     total energy              =   -1896.41229696 Ry
     estimated scf accuracy    <       0.00002422 Ry

     total magnetization       =    -0.00 Bohr mag/cell
     absolute magnetization    =     0.00 Bohr mag/cell

     iteration #  2     ecut=   120.00 Ry     beta= 0.70
     Davidson diagonalization with overlap
     ethr =  1.20E-08,  avg # of iterations =  1.0

     negative rho (up, down):  1.624E-01 1.624E-01

     total cpu time spent up to now is      355.8 secs

     total energy              =   -1896.41229742 Ry
     estimated scf accuracy    <       0.00000259 Ry

     total magnetization       =    -0.00 Bohr mag/cell
     absolute magnetization    =     0.00 Bohr mag/cell

     iteration #  3     ecut=   120.00 Ry     beta= 0.70
     Davidson diagonalization with overlap
     ethr =  1.29E-09,  avg # of iterations =  2.0

     negative rho (up, down):  1.624E-01 1.624E-01

     Magnetic moment per site  (integrated on atomic sphere of radius R)
     atom   1 (R=0.160)  charge=  4.5294  magn= -0.0000
     atom   2 (R=0.160)  charge=  4.5752  magn=  0.0000
     atom   3 (R=0.155)  charge=  4.3344  magn= -0.0000
     atom   4 (R=0.155)  charge=  4.4451  magn=  0.0000
     atom   5 (R=0.160)  charge=  4.6785  magn= -0.0000
     atom   6 (R=0.160)  charge=  5.3999  magn= -0.0000
     atom   7 (R=0.155)  charge=  3.6596  magn=  0.0000
     atom   8 (R=0.155)  charge=  3.3141  magn= -0.0000
     atom   9 (R=0.160)  charge=  4.7336  magn=  0.0000
     atom  10 (R=0.160)  charge=  4.7478  magn=  0.0000
     atom  11 (R=0.155)  charge=  4.2647  magn=  0.0000
     atom  12 (R=0.155)  charge=  4.6235  magn= -0.0000
     atom  13 (R=0.160)  charge=  5.3972  magn= -0.0000
     atom  14 (R=0.160)  charge=  5.3503  magn=  0.0000
     atom  15 (R=0.155)  charge=  3.4477  magn=  0.0000
     atom  16 (R=0.155)  charge=  3.6900  magn= -0.0000
     atom  17 (R=0.212)  charge=  1.0545  magn=  0.0000

     total cpu time spent up to now is      365.2 secs

     End of self-consistent calculation

 ------ SPIN UP ------------


          k = 0.0000 0.0000 0.0000 ( 26649 PWs)   bands (ev):

   -88.6760 -77.1967 -74.6643 -73.7925 -71.3065 -66.5923 -63.4813 -60.7495
   -59.5355 -57.3339 -56.9307 -56.3045 -54.2619 -51.8581 -49.0475 -46.3881
   -44.8177 -43.9725 -42.3889 -40.2564 -39.0922 -37.1167 -35.0959 -33.6344
   -31.9802 -30.9606 -30.0202 -28.5902 -27.8272 -26.6752 -26.4832 -24.7007
   -23.7314 -22.5107 -21.7285 -20.8138 -18.8598 -18.7517 -17.4504 -16.7450
   -15.7346 -15.5464 -14.2620 -13.8243 -12.7063 -11.3034 -10.9753 -10.4469
   -10.0443  -8.4143  -7.5384  -7.1810  -6.9715  -6.0510  -5.0722  -4.3811
    -4.1275  -2.7858  -2.2381  -1.5697  -1.1453   0.4665   0.8500   1.7607
     2.4403   2.9344   3.4567   4.9704   5.2755   6.5782   7.1823   7.9047
     8.5886   9.4337   9.8767  10.4478  10.8959  11.1171  12.5120  12.9296
    13.8116  15.0342  15.8196  16.1503  17.9248  18.8939  19.6459  20.4808
    20.8683  21.3008  21.9555  22.4588  23.2949  24.0053  24.1952  24.3157
    25.1889  25.3766  26.0971  26.4252  27.5961  27.8790  27.9803  28.4503
    29.2972  29.6316  30.5477  30.7182  31.0108  31.1591  31.6872  31.8932
    32.3917  32.9964  33.8023  34.0720  34.5778  35.0119  35.2139  35.7404
    36.0926

 ------ SPIN DOWN ----------


          k = 0.0000 0.0000 0.0000 ( 26649 PWs)   bands (ev):

   -88.6760 -77.1967 -74.6643 -73.7925 -71.3065 -66.5923 -63.4813 -60.7495
   -59.5355 -57.3339 -56.9307 -56.3045 -54.2619 -51.8581 -49.0475 -46.3881
   -44.8177 -43.9725 -42.3889 -40.2564 -39.0922 -37.1167 -35.0959 -33.6344
   -31.9802 -30.9606 -30.0202 -28.5902 -27.8272 -26.6752 -26.4832 -24.7007
   -23.7314 -22.5107 -21.7285 -20.8138 -18.8598 -18.7517 -17.4504 -16.7450
   -15.7346 -15.5464 -14.2620 -13.8243 -12.7063 -11.3034 -10.9753 -10.4469
   -10.0443  -8.4143  -7.5384  -7.1810  -6.9715  -6.0510  -5.0722  -4.3811
    -4.1275  -2.7858  -2.2381  -1.5697  -1.1453   0.4665   0.8500   1.7607
     2.4403   2.9344   3.4567   4.9704   5.2755   6.5782   7.1823   7.9047
     8.5886   9.4337   9.8767  10.4478  10.8959  11.1171  12.5120  12.9296
    13.8116  15.0342  15.8196  16.1503  17.9248  18.8939  19.6459  20.4808
    20.8683  21.3008  21.9555  22.4588  23.2949  24.0053  24.1952  24.3157
    25.1889  25.3766  26.0971  26.4252  27.5961  27.8790  27.9803  28.4503
    29.2972  29.6316  30.5477  30.7182  31.0108  31.1591  31.6872  31.8932
    32.3917  32.9964  33.8023  34.0720  34.5778  35.0119  35.2139  35.7404
    36.0926

     the Fermi energy is    27.5519 ev

!    total energy              =   -1896.41229708 Ry
     estimated scf accuracy    <       0.00000053 Ry
     smearing contrib. (-TS)   =      -0.01750890 Ry
     internal energy E=F+TS    =   -1896.39478819 Ry

     total magnetization       =    -0.00 Bohr mag/cell
     absolute magnetization    =     0.00 Bohr mag/cell

     convergence has been achieved in   3 iterations

     negative rho (up, down):  1.624E-01 1.624E-01

     Forces acting on atoms (cartesian axes, Ry/au):

     atom    1 type  1   force =    -1.68781778    2.44527173  -11.29132705
     atom    2 type  1   force =     1.64483616   -0.49461713    8.54513175
     atom    3 type  2   force =    -3.46901148    3.27472454  -12.26480422
     atom    4 type  2   force =     1.19320280    6.85933255   14.76724382
     atom    5 type  3   force =     5.11363736   -4.20748298   16.20744720
     atom    6 type  3   force =    -3.46727815   -4.91245100  -10.88460103
     atom    7 type  4   force =    -6.56253103   -3.55481062   -9.54598752
     atom    8 type  4   force =    -3.78116072   -2.41939628   14.29172607
     atom    9 type  1   force =    -0.44609899    1.70254403   -5.70862236
     atom   10 type  1   force =    -0.22381158    3.30993270   10.93725552
     atom   11 type  2   force =    10.66850846   -8.95537830   -8.44707146
     atom   12 type  2   force =    -2.11969886    0.25153754  -10.26791029
     atom   13 type  3   force =     1.93648951   -6.88959323    2.82977815
     atom   14 type  3   force =    -1.78650313   -0.37142267    4.85903590
     atom   15 type  4   force =     1.15052682    9.05838621  -14.90854873
     atom   16 type  4   force =     1.89116849    4.84184541   11.03970657
     atom   17 type  5   force =    -0.05445788    0.06157751   -0.15845230
     The non-local contrib.  to forces
     atom    1 type  1   force =     1.77353511   -0.89939389    1.31009928
     atom    2 type  1   force =    -0.39552133   -1.43749342   -0.82718259
     atom    3 type  2   force =    -0.31412625    0.38702130   -1.87732036
     atom    4 type  2   force =     0.43633567    0.66749455    2.52856742
     atom    5 type  3   force =    -1.88754167    1.76803762   -4.12445035
     atom    6 type  3   force =     0.98344085    1.81044703    0.76679358
     atom    7 type  4   force =    -1.51898806   -0.20397101   -2.07946391
     atom    8 type  4   force =    -0.52335771   -0.42046943    2.45166248
     atom    9 type  1   force =    -0.91334182    0.56897443    0.02756600
     atom   10 type  1   force =    -0.20009366   -2.25042662   -2.11578931
     atom   11 type  2   force =     1.29077949   -0.68070349   -1.67778131
     atom   12 type  2   force =    -0.30826025    0.16201872   -1.00262943
     atom   13 type  3   force =    -0.19640000    3.25142982    0.76780867
     atom   14 type  3   force =    -0.21407260    0.38167164   -0.54259713
     atom   15 type  4   force =     0.79084827    1.16291140   -2.38825629
     atom   16 type  4   force =     0.57100361    0.59766988    2.10005584
     atom   17 type  5   force =    -0.00427420   -0.00310853    0.06034313
     The ionic contribution  to forces
     atom    1 type  1   force =   -10.66672887   10.79138332 -181.10151481
     atom    2 type  1   force =     9.26550714   13.66359818  139.18951628
     atom    3 type  2   force =   -18.26829114    9.66391875 -381.00447613
     atom    4 type  2   force =    -4.05350438   24.13971294  397.08223025
     atom    5 type  3   force =    17.86057624  -21.69940294  435.98236660
     atom    6 type  3   force =     1.43699775  -13.05269770 -121.30788278
     atom    7 type  4   force =   -33.89200372  -12.24565956 -378.69777968
     atom    8 type  4   force =   -18.94716821  -14.80638195  494.09938951
     atom    9 type  1   force =     8.35717891    8.74732627 -124.45136847
     atom   10 type  1   force =    -6.39863183   19.21805166  163.74637501
     atom   11 type  2   force =    44.58045489  -33.40123619 -447.56580260
     atom   12 type  2   force =   -13.38179408   -5.37777526 -167.06788873
     atom   13 type  3   force =     8.88801424  -26.66469639  145.82868110
     atom   14 type  3   force =    -9.67168046  -15.82954979  151.82143155
     atom   15 type  4   force =    12.76646849   34.57330208 -487.65839222
     atom   16 type  4   force =    12.26765838   22.15212970  400.14051543
     atom   17 type  5   force =    -0.14305335    0.12797688  -39.03540029
     The local contribution  to forces
     atom    1 type  1   force =     7.06177499   -7.29826815  168.02198762
     atom    2 type  1   force =    -7.11432544  -12.63054980 -129.47551858
     atom    3 type  2   force =    15.09756800   -6.75172322  370.50901772
     atom    4 type  2   force =     4.80228614  -17.91786476 -384.72703251
     atom    5 type  3   force =   -10.67251021   15.57029713 -415.08720017
     atom    6 type  3   force =    -5.95731886    6.11853647  109.37970764
     atom    7 type  4   force =    28.74840800    8.86511023  371.11437690
     atom    8 type  4   force =    15.65869793   12.77451828 -482.10392603
     atom    9 type  1   force =    -7.85403039   -7.47180734  118.60571889
     atom   10 type  1   force =     6.28797102  -13.49565126 -150.25479192
     atom   11 type  2   force =   -35.10494369   25.02926173  440.70817131
     atom   12 type  2   force =    11.55189937    5.46640455  157.75234104
     atom   13 type  3   force =    -6.68116955   16.31099621 -143.70785462
     atom   14 type  3   force =     7.99436499   15.04589720 -146.31800150
     atom   15 type  4   force =   -12.37958524  -26.56235432  474.96376076
     atom   16 type  4   force =   -10.90167478  -17.86173137 -391.08691638
     atom   17 type  5   force =     0.09289138   -0.06327087   38.81628123
     The core correction contribution to forces
     atom    1 type  1   force =     0.14354830   -0.14844942    0.47658187
     atom    2 type  1   force =    -0.11088365   -0.09022402   -0.34242061
     atom    3 type  2   force =     0.01577945   -0.02428627    0.10502133
     atom    4 type  2   force =     0.00812179   -0.03006128   -0.11656274
     atom    5 type  3   force =    -0.18690130    0.15355491   -0.56302871
     atom    6 type  3   force =     0.06971234    0.21118291    0.27505601
     atom    7 type  4   force =     0.09996740    0.02947571    0.11394132
     atom    8 type  4   force =     0.03076186    0.03292600   -0.15444606
     atom    9 type  1   force =    -0.03579907   -0.14193161    0.10810594
     atom   10 type  1   force =     0.08703033   -0.16212042   -0.43921158
     atom   11 type  2   force =    -0.09767583    0.09692562    0.08486477
     atom   12 type  2   force =     0.01837077    0.00084772    0.04841129
     atom   13 type  3   force =    -0.07399258    0.21270369   -0.05969805
     atom   14 type  3   force =     0.10496283    0.03059255   -0.10261204
     atom   15 type  4   force =    -0.02715616   -0.11546489    0.17089990
     atom   16 type  4   force =    -0.04584154   -0.04623141   -0.11374714
     atom   17 type  5   force =     0.00000000    0.00000000    0.00000000
     The Hubbard contrib.    to forces
     atom    1 type  1   force =     0.00000000    0.00000000    0.00000000
     atom    2 type  1   force =     0.00000000    0.00000000    0.00000000
     atom    3 type  2   force =     0.00000000    0.00000000    0.00000000
     atom    4 type  2   force =     0.00000000    0.00000000    0.00000000
     atom    5 type  3   force =     0.00000000    0.00000000    0.00000000
     atom    6 type  3   force =     0.00000000    0.00000000    0.00000000
     atom    7 type  4   force =     0.00000000    0.00000000    0.00000000
     atom    8 type  4   force =     0.00000000    0.00000000    0.00000000
     atom    9 type  1   force =     0.00000000    0.00000000    0.00000000
     atom   10 type  1   force =     0.00000000    0.00000000    0.00000000
     atom   11 type  2   force =     0.00000000    0.00000000    0.00000000
     atom   12 type  2   force =     0.00000000    0.00000000    0.00000000
     atom   13 type  3   force =     0.00000000    0.00000000    0.00000000
     atom   14 type  3   force =     0.00000000    0.00000000    0.00000000
     atom   15 type  4   force =     0.00000000    0.00000000    0.00000000
     atom   16 type  4   force =     0.00000000    0.00000000    0.00000000
     atom   17 type  5   force =     0.00000000    0.00000000    0.00000000
     The SCF correction term to forces
     atom    1 type  1   force =     0.00000000   -0.00000000    0.00000000
     atom    2 type  1   force =     0.00000000    0.00000000    0.00000000
     atom    3 type  2   force =     0.00000000   -0.00000000    0.00000000
     atom    4 type  2   force =    -0.00000000    0.00000000   -0.00000000
     atom    5 type  3   force =     0.00000000    0.00000000   -0.00000000
     atom    6 type  3   force =    -0.00000000    0.00000000    0.00000000
     atom    7 type  4   force =     0.00000000    0.00000000    0.00000000
     atom    8 type  4   force =    -0.00000000   -0.00000000   -0.00000000
     atom    9 type  1   force =    -0.00000000   -0.00000000    0.00000000
     atom   10 type  1   force =    -0.00000000    0.00000000    0.00000000
     atom   11 type  2   force =    -0.00000000    0.00000000    0.00000000
     atom   12 type  2   force =     0.00000000    0.00000000    0.00000000
     atom   13 type  3   force =     0.00000000   -0.00000000    0.00000000
     atom   14 type  3   force =    -0.00000000   -0.00000000    0.00000000
     atom   15 type  4   force =    -0.00000000   -0.00000000    0.00000000
     atom   16 type  4   force =     0.00000000   -0.00000000   -0.00000000
     atom   17 type  5   force =    -0.00000480   -0.00003979    0.00018966

     Total force =     0.178507     Total SCF correction =     0.000194

     Entering Dynamics:    iteration =     2
                           time      =   0.0002 pico-seconds


ATOMIC_POSITIONS (angstrom)
Hf            0.0858800679       -0.7951436715        7.4532072815    0   0   0
Hf            0.9880709739        1.9014415882        8.3624579711    0   0   0
Nb            1.0746989219        0.1356535858        6.8196389631    0   0   0
Nb            1.6491103981        0.8626804318        9.1943310858    0   0   0
Ta            0.0709744107       -0.7820475991        9.3858007313    0   0   0
Ta            1.9524714937        0.9993933557        7.6598559185    0   0   0
Zr            0.9976274959        1.7451739843        6.6557981874    0   0   0
Zr            2.5198328619        0.2094691683       10.0174953943    0   0   0
Hf            1.9380429646       -0.7197681019        7.5485206618    0   0   0
Hf           -0.6483186390        1.7040463621        8.4530515930    0   0   0
Nb            2.4216282335        1.6043757567        6.4559262597    0   0   0
Nb            0.1475903912        0.9184995235        7.5588298057    0   0   0
Ta            0.9013084356        0.1211212120        8.4106110025    0   0   0
Ta            2.6415926642        3.3452418198        8.4595496119    0   0   0
Zr            1.8442847182        2.6188909264        6.0000000000    0   0   0
Zr            0.1866550429        0.8943516698        9.3828635984    0   0   0
H             5.0007670580        4.0028761217        5.0020105309


     kinetic energy (Ekin) =           0.00264312 Ry
     temperature           =         278.21084716 K 
     Ekin + Etot (const)   =       -1896.40965396 Ry

     Writing config-only to output data dir ./pwscf.save/
     NEW-OLD atomic charge density approx. for the potential

     Check: negative core charge=   -0.000004

     negative rho (up, down):  1.624E-01 1.624E-01
     Generating pointlists ...

     total cpu time spent up to now is      371.7 secs

     Self-consistent Calculation

     iteration #  1     ecut=   120.00 Ry     beta= 0.70
     Davidson diagonalization with overlap
     ethr =  1.00E-06,  avg # of iterations =  2.0

     Threshold (ethr) on eigenvalues was too large:
     Diagonalizing with lowered threshold

     Davidson diagonalization with overlap
     ethr =  2.67E-08,  avg # of iterations =  1.0

     negative rho (up, down):  1.624E-01 1.624E-01

     total cpu time spent up to now is      388.5 secs

     total energy              =   -1896.41215786 Ry
     estimated scf accuracy    <       0.00005591 Ry

     total magnetization       =    -0.00 Bohr mag/cell
     absolute magnetization    =     0.00 Bohr mag/cell

     iteration #  2     ecut=   120.00 Ry     beta= 0.70
     Davidson diagonalization with overlap
     ethr =  2.78E-08,  avg # of iterations =  1.0

     negative rho (up, down):  1.624E-01 1.624E-01

     total cpu time spent up to now is      396.6 secs

     total energy              =   -1896.41215818 Ry
     estimated scf accuracy    <       0.00001006 Ry

     total magnetization       =    -0.00 Bohr mag/cell
     absolute magnetization    =     0.00 Bohr mag/cell

     iteration #  3     ecut=   120.00 Ry     beta= 0.70
     Davidson diagonalization with overlap
     ethr =  5.00E-09,  avg # of iterations =  2.0

     negative rho (up, down):  1.624E-01 1.624E-01

     total cpu time spent up to now is      405.7 secs

     total energy              =   -1896.41215790 Ry
     estimated scf accuracy    <       0.00000334 Ry

     total magnetization       =    -0.00 Bohr mag/cell
     absolute magnetization    =     0.00 Bohr mag/cell

     iteration #  4     ecut=   120.00 Ry     beta= 0.70
     Davidson diagonalization with overlap
     ethr =  1.66E-09,  avg # of iterations =  2.0

     negative rho (up, down):  1.624E-01 1.624E-01

     Magnetic moment per site  (integrated on atomic sphere of radius R)
     atom   1 (R=0.160)  charge=  4.5294  magn=  0.0000
     atom   2 (R=0.160)  charge=  4.5752  magn= -0.0000
     atom   3 (R=0.155)  charge=  4.3344  magn=  0.0000
     atom   4 (R=0.155)  charge=  4.4452  magn= -0.0000
     atom   5 (R=0.160)  charge=  4.6785  magn= -0.0000
     atom   6 (R=0.160)  charge=  5.4000  magn= -0.0000
     atom   7 (R=0.155)  charge=  3.6596  magn= -0.0000
     atom   8 (R=0.155)  charge=  3.3141  magn=  0.0000
     atom   9 (R=0.160)  charge=  4.7336  magn= -0.0000
     atom  10 (R=0.160)  charge=  4.7479  magn=  0.0000
     atom  11 (R=0.155)  charge=  4.2648  magn= -0.0000
     atom  12 (R=0.155)  charge=  4.6235  magn=  0.0000
     atom  13 (R=0.160)  charge=  5.3972  magn=  0.0000
     atom  14 (R=0.160)  charge=  5.3503  magn= -0.0000
     atom  15 (R=0.155)  charge=  3.4478  magn=  0.0000
     atom  16 (R=0.155)  charge=  3.6900  magn=  0.0000
     atom  17 (R=0.212)  charge=  1.0550  magn= -0.0000

     total cpu time spent up to now is      415.5 secs

     End of self-consistent calculation

 ------ SPIN UP ------------


          k = 0.0000 0.0000 0.0000 ( 26649 PWs)   bands (ev):

   -88.6819 -77.2026 -74.6703 -73.7985 -71.3124 -66.5983 -63.4874 -60.7556
   -59.5415 -57.3400 -56.9367 -56.3106 -54.2680 -51.8642 -49.0536 -46.3943
   -44.8239 -43.9788 -42.3951 -40.2626 -39.0984 -37.1230 -35.1020 -33.6407
   -31.9864 -30.9668 -30.0265 -28.5962 -27.8333 -26.6813 -26.4894 -24.7069
   -23.7376 -22.5170 -21.7346 -20.8199 -18.8661 -18.7578 -17.4567 -16.7512
   -15.7407 -15.5525 -14.2681 -13.8306 -12.7126 -11.3096 -10.9814 -10.4530
   -10.0506  -8.4205  -7.5446  -7.1872  -6.9778  -6.0571  -5.0782  -4.3873
    -4.1337  -2.7920  -2.2443  -1.5759  -1.1516   0.4602   0.8437   1.7544
     2.4340   2.9282   3.4505   4.9642   5.2692   6.5720   7.1761   7.8986
     8.5824   9.4275   9.8704  10.4416  10.8896  11.1108  12.5057  12.9234
    13.8054  15.0274  15.8134  16.1442  17.9179  18.8875  19.6393  20.4755
    20.8620  21.2955  21.9492  22.4526  23.2891  23.9998  24.1890  24.3097
    25.1829  25.3709  26.0910  26.4191  27.5898  27.8728  27.9743  28.4458
    29.2916  29.6259  30.5436  30.7136  31.0058  31.1542  31.6818  31.8883
    32.3893  32.9914  33.7971  34.0656  34.5729  35.0068  35.2087  35.7352
    36.0878

 ------ SPIN DOWN ----------


          k = 0.0000 0.0000 0.0000 ( 26649 PWs)   bands (ev):

   -88.6819 -77.2026 -74.6703 -73.7985 -71.3124 -66.5983 -63.4874 -60.7556
   -59.5415 -57.3400 -56.9367 -56.3106 -54.2680 -51.8642 -49.0536 -46.3943
   -44.8239 -43.9788 -42.3951 -40.2626 -39.0984 -37.1230 -35.1020 -33.6407
   -31.9864 -30.9668 -30.0265 -28.5962 -27.8333 -26.6813 -26.4894 -24.7069
   -23.7376 -22.5170 -21.7346 -20.8199 -18.8661 -18.7578 -17.4567 -16.7512
   -15.7407 -15.5525 -14.2681 -13.8306 -12.7126 -11.3096 -10.9814 -10.4530
   -10.0506  -8.4205  -7.5446  -7.1872  -6.9778  -6.0571  -5.0782  -4.3873
    -4.1337  -2.7920  -2.2443  -1.5759  -1.1516   0.4602   0.8437   1.7544
     2.4340   2.9282   3.4505   4.9642   5.2692   6.5720   7.1761   7.8986
     8.5824   9.4275   9.8704  10.4416  10.8896  11.1108  12.5057  12.9234
    13.8054  15.0274  15.8134  16.1442  17.9179  18.8875  19.6393  20.4755
    20.8620  21.2955  21.9492  22.4526  23.2891  23.9998  24.1890  24.3097
    25.1829  25.3709  26.0910  26.4191  27.5898  27.8728  27.9743  28.4458
    29.2916  29.6259  30.5436  30.7136  31.0058  31.1542  31.6818  31.8883
    32.3893  32.9914  33.7971  34.0656  34.5729  35.0068  35.2087  35.7352
    36.0878

     the Fermi energy is    27.5457 ev

!    total energy              =   -1896.41215729 Ry
     estimated scf accuracy    <       0.00000100 Ry
     smearing contrib. (-TS)   =      -0.01750483 Ry
     internal energy E=F+TS    =   -1896.39465246 Ry

     total magnetization       =    -0.00 Bohr mag/cell
     absolute magnetization    =     0.00 Bohr mag/cell

     convergence has been achieved in   4 iterations

     negative rho (up, down):  1.624E-01 1.624E-01

     Forces acting on atoms (cartesian axes, Ry/au):

     atom    1 type  1   force =    -1.68763790    2.44533315  -11.29097245
     atom    2 type  1   force =     1.64495002   -0.49487768    8.54555473
     atom    3 type  2   force =    -3.46922443    3.27498834  -12.26639350
     atom    4 type  2   force =     1.19331726    6.86076070   14.76824027
     atom    5 type  3   force =     5.11373612   -4.20746617   16.20755423
     atom    6 type  3   force =    -3.46747418   -4.91242670  -10.88487994
     atom    7 type  4   force =    -6.56285265   -3.55513880   -9.54612469
     atom    8 type  4   force =    -3.78170450   -2.42031292   14.29381726
     atom    9 type  1   force =    -0.44603813    1.70236166   -5.70832237
     atom   10 type  1   force =    -0.22375330    3.30991009   10.93775845
     atom   11 type  2   force =    10.66954740   -8.95634387   -8.44801496
     atom   12 type  2   force =    -2.12043199    0.25137827  -10.26925541
     atom   13 type  3   force =     1.93662976   -6.88964692    2.83000683
     atom   14 type  3   force =    -1.78650559   -0.37136638    4.85915166
     atom   15 type  4   force =     1.15046025    9.05919066  -14.90914522
     atom   16 type  4   force =     1.89151808    4.84258933   11.04005561
     atom   17 type  5   force =    -0.05453620    0.06106723   -0.15903048
     The non-local contrib.  to forces
     atom    1 type  1   force =     1.77371220   -0.89929845    1.31010544
     atom    2 type  1   force =    -0.39543849   -1.43768505   -0.82676782
     atom    3 type  2   force =    -0.31437777    0.38736059   -1.87862785
     atom    4 type  2   force =     0.43621346    0.66881913    2.53002239
     atom    5 type  3   force =    -1.88752011    1.76810895   -4.12393264
     atom    6 type  3   force =     0.98317101    1.81047265    0.76668140
     atom    7 type  4   force =    -1.51931863   -0.20435606   -2.07939026
     atom    8 type  4   force =    -0.52398495   -0.42138627    2.45417736
     atom    9 type  1   force =    -0.91336580    0.56880768    0.02755800
     atom   10 type  1   force =    -0.20002676   -2.25028774   -2.11521899
     atom   11 type  2   force =     1.29176619   -0.68133102   -1.67859593
     atom   12 type  2   force =    -0.30903901    0.16198528   -1.00384197
     atom   13 type  3   force =    -0.19628177    3.25138442    0.76837041
     atom   14 type  3   force =    -0.21407551    0.38171190   -0.54217317
     atom   15 type  4   force =     0.79093340    1.16322643   -2.38837976
     atom   16 type  4   force =     0.57144785    0.59848928    2.10068310
     atom   17 type  5   force =    -0.00429132   -0.00304714    0.06040533
     The ionic contribution  to forces
     atom    1 type  1   force =   -10.66670341   10.79150036 -181.10134205
     atom    2 type  1   force =     9.26548189   13.66364189  139.18995870
     atom    3 type  2   force =   -18.26870340    9.66303289 -381.00453483
     atom    4 type  2   force =    -4.05350665   24.13970667  397.08271229
     atom    5 type  3   force =    17.86057708  -21.69939918  435.98282535
     atom    6 type  3   force =     1.43703220  -13.05276818 -121.30709552
     atom    7 type  4   force =   -33.89276230  -12.24467162 -378.69683153
     atom    8 type  4   force =   -18.94716716  -14.80638384  494.09982125
     atom    9 type  1   force =     8.35718199    8.74743002 -124.45105622
     atom   10 type  1   force =    -6.39860917   19.21808128  163.74682741
     atom   11 type  2   force =    44.58181890  -33.39975333 -447.56391026
     atom   12 type  2   force =   -13.38179012   -5.37787104 -167.06741407
     atom   13 type  3   force =     8.88799149  -26.66473556  145.82912276
     atom   14 type  3   force =    -9.67165996  -15.82958053  151.82187743
     atom   15 type  4   force =    12.76603959   34.57577368 -487.66077971
     atom   16 type  4   force =    12.26765832   22.15212626  400.14094872
     atom   17 type  5   force =    -0.14287928    0.12387023  -39.04112973
     The local contribution  to forces
     atom    1 type  1   force =     7.06172837   -7.29835744  168.02517372
     atom    2 type  1   force =    -7.11426121  -12.63064194 -129.47392760
     atom    3 type  2   force =    15.09788109   -6.75102189  370.51424405
     atom    4 type  2   force =     4.80245892  -17.91774307 -384.72661758
     atom    5 type  3   force =   -10.67247572   15.57036338 -415.08718892
     atom    6 type  3   force =    -5.95736206    6.11858376  109.38239985
     atom    7 type  4   force =    28.74895902    8.86437516  371.11876270
     atom    8 type  4   force =    15.65870284   12.77461935 -482.10535227
     atom    9 type  1   force =    -7.85400112   -7.47187945  118.60868186
     atom   10 type  1   force =     6.28786239  -13.49576702 -150.25338910
     atom   11 type  2   force =   -35.10599035   25.02774866  440.71265683
     atom   12 type  2   force =    11.55196380    5.46641225  157.75540421
     atom   13 type  3   force =    -6.68110605   16.31110540 -143.70617202
     atom   14 type  3   force =     7.99428663   15.04597945 -146.31635153
     atom   15 type  4   force =   -12.37926366  -26.56410857  474.97226780
     atom   16 type  4   force =   -10.90175241  -17.86185104 -391.08674514
     atom   17 type  5   force =     0.09263147   -0.05976017   38.82223702
     The core correction contribution to forces
     atom    1 type  1   force =     0.14354578   -0.14844798    0.47655322
     atom    2 type  1   force =    -0.11088391   -0.09022752   -0.34242442
     atom    3 type  2   force =     0.01577636   -0.02428472    0.10501771
     atom    4 type  2   force =     0.00812806   -0.03005269   -0.11656513
     atom    5 type  3   force =    -0.18689923    0.15356330   -0.56302512
     atom    6 type  3   force =     0.06971313    0.21120340    0.27505492
     atom    7 type  4   force =     0.09996523    0.02947951    0.11393574
     atom    8 type  4   force =     0.03076361    0.03292332   -0.15444979
     atom    9 type  1   force =    -0.03577158   -0.14189786    0.10811037
     atom   10 type  1   force =     0.08704307   -0.16212937   -0.43921017
     atom   11 type  2   force =    -0.09767616    0.09690936    0.08484790
     atom   12 type  2   force =     0.01837262    0.00084422    0.04841184
     atom   13 type  3   force =    -0.07399115    0.21269892   -0.05969480
     atom   14 type  3   force =     0.10495076    0.03058634   -0.10261046
     atom   15 type  4   force =    -0.02715724   -0.11545686    0.17089071
     atom   16 type  4   force =    -0.04584263   -0.04623502   -0.11373956
     atom   17 type  5   force =     0.00000000    0.00000000    0.00000000
     The Hubbard contrib.    to forces
     atom    1 type  1   force =     0.00000000    0.00000000    0.00000000
     atom    2 type  1   force =     0.00000000    0.00000000    0.00000000
     atom    3 type  2   force =     0.00000000    0.00000000    0.00000000
     atom    4 type  2   force =     0.00000000    0.00000000    0.00000000
     atom    5 type  3   force =     0.00000000    0.00000000    0.00000000
     atom    6 type  3   force =     0.00000000    0.00000000    0.00000000
     atom    7 type  4   force =     0.00000000    0.00000000    0.00000000
     atom    8 type  4   force =     0.00000000    0.00000000    0.00000000
     atom    9 type  1   force =     0.00000000    0.00000000    0.00000000
     atom   10 type  1   force =     0.00000000    0.00000000    0.00000000
     atom   11 type  2   force =     0.00000000    0.00000000    0.00000000
     atom   12 type  2   force =     0.00000000    0.00000000    0.00000000
     atom   13 type  3   force =     0.00000000    0.00000000    0.00000000
     atom   14 type  3   force =     0.00000000    0.00000000    0.00000000
     atom   15 type  4   force =     0.00000000    0.00000000    0.00000000
     atom   16 type  4   force =     0.00000000    0.00000000    0.00000000
     atom   17 type  5   force =     0.00000000    0.00000000    0.00000000
     The SCF correction term to forces
     atom    1 type  1   force =     0.00000000   -0.00000000   -0.00000000
     atom    2 type  1   force =     0.00000000    0.00000000   -0.00000000
     atom    3 type  2   force =     0.00000000   -0.00000000   -0.00000000
     atom    4 type  2   force =     0.00000000    0.00000000   -0.00000000
     atom    5 type  3   force =     0.00000000   -0.00000000   -0.00000000
     atom    6 type  3   force =    -0.00000000    0.00000000   -0.00000000
     atom    7 type  4   force =     0.00000000    0.00000000   -0.00000000
     atom    8 type  4   force =    -0.00000000   -0.00000000   -0.00000000
     atom    9 type  1   force =    -0.00000000   -0.00000000   -0.00000000
     atom   10 type  1   force =    -0.00000000    0.00000000   -0.00000000
     atom   11 type  2   force =    -0.00000000    0.00000000   -0.00000000
     atom   12 type  2   force =     0.00000000    0.00000000   -0.00000000
     atom   13 type  3   force =     0.00000000   -0.00000000   -0.00000000
     atom   14 type  3   force =    -0.00000000   -0.00000000   -0.00000000
     atom   15 type  4   force =    -0.00000000   -0.00000000   -0.00000000
     atom   16 type  4   force =    -0.00000000    0.00000000   -0.00000000
     atom   17 type  5   force =    -0.00000871    0.00002510   -0.00034155

     Total force =     0.178869     Total SCF correction =     0.000343

     Entering Dynamics:    iteration =     3
                           time      =   0.0003 pico-seconds


ATOMIC_POSITIONS (angstrom)
Hf            0.0858800679       -0.7951436715        7.4532072815    0   0   0
Hf            0.9880709739        1.9014415882        8.3624579711    0   0   0
Nb            1.0746989219        0.1356535858        6.8196389631    0   0   0
Nb            1.6491103981        0.8626804318        9.1943310858    0   0   0
Ta            0.0709744107       -0.7820475991        9.3858007313    0   0   0
Ta            1.9524714937        0.9993933557        7.6598559185    0   0   0
Zr            0.9976274959        1.7451739843        6.6557981874    0   0   0
Zr            2.5198328619        0.2094691683       10.0174953943    0   0   0
Hf            1.9380429646       -0.7197681019        7.5485206618    0   0   0
Hf           -0.6483186390        1.7040463621        8.4530515930    0   0   0
Nb            2.4216282335        1.6043757567        6.4559262597    0   0   0
Nb            0.1475903912        0.9184995235        7.5588298057    0   0   0
Ta            0.9013084356        0.1211212120        8.4106110025    0   0   0
Ta            2.6415926642        3.3452418198        8.4595496119    0   0   0
Zr            1.8442847182        2.6188909264        6.0000000000    0   0   0
Zr            0.1866550429        0.8943516698        9.3828635984    0   0   0
H             5.0010563027        4.0044201028        5.0027410597


     kinetic energy (Ekin) =           0.00250350 Ry
     temperature           =         263.51458895 K 
     Ekin + Etot (const)   =       -1896.40965378 Ry

     Writing config-only to output data dir ./pwscf.save/
     NEW-OLD atomic charge density approx. for the potential

     Check: negative core charge=   -0.000004

     negative rho (up, down):  1.624E-01 1.624E-01
     Generating pointlists ...

     total cpu time spent up to now is      422.6 secs

     Self-consistent Calculation

     iteration #  1     ecut=   120.00 Ry     beta= 0.70
     Davidson diagonalization with overlap
     ethr =  1.00E-06,  avg # of iterations =  2.0

     Threshold (ethr) on eigenvalues was too large:
     Diagonalizing with lowered threshold

     Davidson diagonalization with overlap
     ethr =  4.29E-08,  avg # of iterations =  1.0

     negative rho (up, down):  1.624E-01 1.624E-01

     total cpu time spent up to now is      443.6 secs

     total energy              =   -1896.41208492 Ry
     estimated scf accuracy    <       0.00008901 Ry

     total magnetization       =    -0.00 Bohr mag/cell
     absolute magnetization    =     0.00 Bohr mag/cell

     iteration #  2     ecut=   120.00 Ry     beta= 0.70
     Davidson diagonalization with overlap
     ethr =  4.43E-08,  avg # of iterations =  1.0

     negative rho (up, down):  1.624E-01 1.624E-01

     total cpu time spent up to now is      453.9 secs

     total energy              =   -1896.41208612 Ry
     estimated scf accuracy    <       0.00001110 Ry

     total magnetization       =    -0.00 Bohr mag/cell
     absolute magnetization    =     0.00 Bohr mag/cell

     iteration #  3     ecut=   120.00 Ry     beta= 0.70
     Davidson diagonalization with overlap
     ethr =  5.52E-09,  avg # of iterations =  2.0

     negative rho (up, down):  1.624E-01 1.624E-01

     total cpu time spent up to now is      465.5 secs

     total energy              =   -1896.41208585 Ry
     estimated scf accuracy    <       0.00000361 Ry

     total magnetization       =    -0.00 Bohr mag/cell
     absolute magnetization    =     0.00 Bohr mag/cell

     iteration #  4     ecut=   120.00 Ry     beta= 0.70
     Davidson diagonalization with overlap
     ethr =  1.80E-09,  avg # of iterations =  2.0

     negative rho (up, down):  1.624E-01 1.624E-01

     Magnetic moment per site  (integrated on atomic sphere of radius R)
     atom   1 (R=0.160)  charge=  4.5294  magn= -0.0000
     atom   2 (R=0.160)  charge=  4.5752  magn= -0.0000
     atom   3 (R=0.155)  charge=  4.3344  magn=  0.0000
     atom   4 (R=0.155)  charge=  4.4451  magn= -0.0000
     atom   5 (R=0.160)  charge=  4.6785  magn= -0.0000
     atom   6 (R=0.160)  charge=  5.4000  magn=  0.0000
     atom   7 (R=0.155)  charge=  3.6596  magn=  0.0000
     atom   8 (R=0.155)  charge=  3.3141  magn= -0.0000
     atom   9 (R=0.160)  charge=  4.7336  magn=  0.0000
     atom  10 (R=0.160)  charge=  4.7479  magn= -0.0000
     atom  11 (R=0.155)  charge=  4.2648  magn=  0.0000
     atom  12 (R=0.155)  charge=  4.6235  magn=  0.0000
     atom  13 (R=0.160)  charge=  5.3972  magn= -0.0000
     atom  14 (R=0.160)  charge=  5.3503  magn= -0.0000
     atom  15 (R=0.155)  charge=  3.4477  magn=  0.0000
     atom  16 (R=0.155)  charge=  3.6900  magn= -0.0000
     atom  17 (R=0.212)  charge=  1.0554  magn= -0.0000

     total cpu time spent up to now is      476.5 secs

     End of self-consistent calculation

 ------ SPIN UP ------------


          k = 0.0000 0.0000 0.0000 ( 26649 PWs)   bands (ev):

   -88.6737 -77.1944 -74.6620 -73.7903 -71.3043 -66.5901 -63.4794 -60.7475
   -59.5333 -57.3318 -56.9285 -56.3023 -54.2597 -51.8560 -49.0454 -46.3860
   -44.8157 -43.9704 -42.3868 -40.2544 -39.0901 -37.1147 -35.0937 -33.6323
   -31.9782 -30.9585 -30.0181 -28.5880 -27.8250 -26.6731 -26.4812 -24.6987
   -23.7293 -22.5087 -21.7263 -20.8117 -18.8578 -18.7495 -17.4484 -16.7429
   -15.7324 -15.5443 -14.2598 -13.8222 -12.7044 -11.3012 -10.9731 -10.4447
   -10.0421  -8.4122  -7.5363  -7.1789  -6.9694  -6.0488  -5.0698  -4.3791
    -4.1254  -2.7837  -2.2360  -1.5676  -1.1432   0.4686   0.8521   1.7628
     2.4424   2.9365   3.4588   4.9726   5.2775   6.5803   7.1844   7.9069
     8.5907   9.4358   9.8788  10.4500  10.8977  11.1191  12.5140  12.9317
    13.8136  15.0351  15.8217  16.1526  17.9251  18.8959  19.6471  20.4845
    20.8695  21.3011  21.9574  22.4608  23.2973  24.0081  24.1973  24.3181
    25.1914  25.3793  26.0989  26.4261  27.5979  27.8811  27.9825  28.4533
    29.2988  29.6340  30.5449  30.7210  31.0124  31.1599  31.6892  31.8951
    32.3918  32.9960  33.8026  34.0725  34.5795  35.0128  35.2169  35.7414
    36.0942

 ------ SPIN DOWN ----------


          k = 0.0000 0.0000 0.0000 ( 26649 PWs)   bands (ev):

   -88.6737 -77.1944 -74.6620 -73.7903 -71.3043 -66.5901 -63.4794 -60.7475
   -59.5333 -57.3318 -56.9285 -56.3023 -54.2597 -51.8560 -49.0454 -46.3860
   -44.8157 -43.9704 -42.3868 -40.2544 -39.0901 -37.1147 -35.0937 -33.6323
   -31.9782 -30.9585 -30.0181 -28.5880 -27.8250 -26.6731 -26.4812 -24.6987
   -23.7293 -22.5087 -21.7263 -20.8117 -18.8578 -18.7495 -17.4484 -16.7429
   -15.7324 -15.5443 -14.2598 -13.8222 -12.7044 -11.3012 -10.9731 -10.4447
   -10.0421  -8.4122  -7.5363  -7.1789  -6.9694  -6.0488  -5.0698  -4.3791
    -4.1254  -2.7837  -2.2360  -1.5676  -1.1432   0.4686   0.8521   1.7628
     2.4424   2.9365   3.4588   4.9726   5.2775   6.5803   7.1844   7.9069
     8.5907   9.4358   9.8788  10.4500  10.8977  11.1191  12.5140  12.9317
    13.8136  15.0351  15.8217  16.1526  17.9251  18.8959  19.6471  20.4845
    20.8695  21.3011  21.9574  22.4608  23.2973  24.0081  24.1973  24.3181
    25.1914  25.3793  26.0989  26.4261  27.5979  27.8811  27.9825  28.4533
    29.2988  29.6340  30.5449  30.7210  31.0124  31.1599  31.6892  31.8951
    32.3918  32.9959  33.8026  34.0725  34.5795  35.0128  35.2169  35.7414
    36.0942

     the Fermi energy is    27.5538 ev

!    total energy              =   -1896.41208541 Ry
     estimated scf accuracy    <       0.00000079 Ry
     smearing contrib. (-TS)   =      -0.01749984 Ry
     internal energy E=F+TS    =   -1896.39458557 Ry

     total magnetization       =    -0.00 Bohr mag/cell
     absolute magnetization    =     0.00 Bohr mag/cell

     convergence has been achieved in   4 iterations

     negative rho (up, down):  1.624E-01 1.624E-01

     Forces acting on atoms (cartesian axes, Ry/au):

     atom    1 type  1   force =    -1.68768771    2.44519729  -11.29141383
     atom    2 type  1   force =     1.64485334   -0.49465589    8.54510356
     atom    3 type  2   force =    -3.46895885    3.27487510  -12.26496007
     atom    4 type  2   force =     1.19338090    6.85951493   14.76767092
     atom    5 type  3   force =     5.11372783   -4.20728804   16.20736752
     atom    6 type  3   force =    -3.46744254   -4.91218141  -10.88441691
     atom    7 type  4   force =    -6.56256109   -3.55478317   -9.54580131
     atom    8 type  4   force =    -3.78124024   -2.41929887   14.29182135
     atom    9 type  1   force =    -0.44591391    1.70228474   -5.70879428
     atom   10 type  1   force =    -0.22399791    3.30992154   10.93716335
     atom   11 type  2   force =    10.66920904   -8.95598597   -8.44647820
     atom   12 type  2   force =    -2.11991442    0.25159448  -10.26794588
     atom   13 type  3   force =     1.93649496   -6.88969448    2.83008500
     atom   14 type  3   force =    -1.78660679   -0.37141723    4.85941053
     atom   15 type  4   force =     1.15017485    9.05960955  -14.90953784
     atom   16 type  4   force =     1.89108659    4.84183397   11.03966611
     atom   17 type  5   force =    -0.05460404    0.06047348   -0.15894002
     The non-local contrib.  to forces
[...]
Zr            1.8442847182        2.6188909264        6.0000000000    0   0   0
Zr            0.1866550429        0.8943516698        9.3828635984    0   0   0
H             5.0014674132        4.0151235122        5.0032707985


     kinetic energy (Ekin) =           0.00308230 Ry
     temperature           =         324.43744557 K 
     Ekin + Etot (const)   =       -1896.40965407 Ry

     Writing config-only to output data dir ./pwscf.save/
     NEW-OLD atomic charge density approx. for the potential

     Check: negative core charge=   -0.000004

     negative rho (up, down):  1.624E-01 1.624E-01
     Generating pointlists ...

     total cpu time spent up to now is      774.2 secs

     Self-consistent Calculation

     iteration #  1     ecut=   120.00 Ry     beta= 0.70
     Davidson diagonalization with overlap
     ethr =  1.00E-06,  avg # of iterations =  2.0

     Threshold (ethr) on eigenvalues was too large:
     Diagonalizing with lowered threshold

     Davidson diagonalization with overlap
     ethr =  1.03E-09,  avg # of iterations =  2.0

     negative rho (up, down):  1.624E-01 1.624E-01

     total cpu time spent up to now is      792.4 secs

     total energy              =   -1896.41306654 Ry
     estimated scf accuracy    <       0.00000216 Ry

     total magnetization       =     0.00 Bohr mag/cell
     absolute magnetization    =     0.00 Bohr mag/cell

     iteration #  2     ecut=   120.00 Ry     beta= 0.70
     Davidson diagonalization with overlap
     ethr =  1.08E-09,  avg # of iterations =  1.0

     negative rho (up, down):  1.624E-01 1.624E-01

     Magnetic moment per site  (integrated on atomic sphere of radius R)
     atom   1 (R=0.160)  charge=  4.5294  magn=  0.0000
     atom   2 (R=0.160)  charge=  4.5752  magn=  0.0000
     atom   3 (R=0.155)  charge=  4.3344  magn=  0.0000
     atom   4 (R=0.155)  charge=  4.4451  magn=  0.0000
     atom   5 (R=0.160)  charge=  4.6785  magn= -0.0000
     atom   6 (R=0.160)  charge=  5.4000  magn=  0.0000
     atom   7 (R=0.155)  charge=  3.6596  magn= -0.0000
     atom   8 (R=0.155)  charge=  3.3141  magn=  0.0000
     atom   9 (R=0.160)  charge=  4.7335  magn=  0.0000
     atom  10 (R=0.160)  charge=  4.7479  magn=  0.0000
     atom  11 (R=0.155)  charge=  4.2649  magn=  0.0000
     atom  12 (R=0.155)  charge=  4.6235  magn=  0.0000
     atom  13 (R=0.160)  charge=  5.3972  magn= -0.0000
     atom  14 (R=0.160)  charge=  5.3504  magn=  0.0000
     atom  15 (R=0.155)  charge=  3.4476  magn=  0.0000
     atom  16 (R=0.155)  charge=  3.6899  magn=  0.0000
     atom  17 (R=0.212)  charge=  1.0541  magn= -0.0000

     total cpu time spent up to now is      800.7 secs

     End of self-consistent calculation

 ------ SPIN UP ------------


          k = 0.0000 0.0000 0.0000 ( 26649 PWs)   bands (ev):

   -88.6685 -77.1891 -74.6570 -73.7852 -71.2992 -66.5852 -63.4746 -60.7427
   -59.5283 -57.3268 -56.9236 -56.2973 -54.2547 -51.8513 -49.0406 -46.3811
   -44.8110 -43.9657 -42.3818 -40.2498 -39.0854 -37.1100 -35.0886 -33.6273
   -31.9735 -30.9537 -30.0135 -28.5828 -27.8200 -26.6683 -26.4761 -24.6944
   -23.7244 -22.5038 -21.7213 -20.8068 -18.8533 -18.7446 -17.4438 -16.7379
   -15.7273 -15.5394 -14.2549 -13.8176 -12.7004 -11.2962 -10.9681 -10.4397
   -10.0370  -8.4074  -7.5316  -7.1740  -6.9644  -6.0439  -5.0636  -4.3743
    -4.1205  -2.7787  -2.2310  -1.5628  -1.1385   0.4731   0.8567   1.7674
     2.4474   2.9414   3.4636   4.9777   5.2817   6.5852   7.1892   7.9120
     8.5954   9.4409   9.8837  10.4556  10.9025  11.1235  12.5185  12.9365
    13.8177  15.0387  15.8262  16.1588  17.9266  18.9005  19.6489  20.4960
    20.8722  21.2966  21.9625  22.4652  23.3025  24.0143  24.2023  24.3240
    25.1975  25.3854  26.1016  26.4241  27.6023  27.8852  27.9872  28.4587
    29.3037  29.6388  30.5404  30.7274  31.0159  31.1623  31.6941  31.8976
    32.3930  32.9960  33.8001  34.0701  34.5817  35.0104  35.2234  35.7431
    36.0968

 ------ SPIN DOWN ----------


          k = 0.0000 0.0000 0.0000 ( 26649 PWs)   bands (ev):

   -88.6685 -77.1891 -74.6570 -73.7852 -71.2992 -66.5852 -63.4746 -60.7427
   -59.5283 -57.3268 -56.9236 -56.2973 -54.2547 -51.8513 -49.0406 -46.3811
   -44.8110 -43.9657 -42.3818 -40.2498 -39.0854 -37.1100 -35.0886 -33.6273
   -31.9735 -30.9537 -30.0135 -28.5828 -27.8200 -26.6683 -26.4761 -24.6944
   -23.7244 -22.5038 -21.7213 -20.8068 -18.8533 -18.7446 -17.4438 -16.7379
   -15.7273 -15.5394 -14.2549 -13.8176 -12.7004 -11.2962 -10.9681 -10.4397
   -10.0370  -8.4074  -7.5316  -7.1740  -6.9644  -6.0439  -5.0636  -4.3743
    -4.1205  -2.7787  -2.2310  -1.5628  -1.1385   0.4731   0.8567   1.7674
     2.4474   2.9414   3.4636   4.9777   5.2817   6.5852   7.1892   7.9120
     8.5954   9.4409   9.8837  10.4556  10.9025  11.1235  12.5185  12.9365
    13.8177  15.0387  15.8262  16.1588  17.9266  18.9005  19.6489  20.4960
    20.8722  21.2966  21.9625  22.4652  23.3025  24.0143  24.2023  24.3240
    25.1975  25.3854  26.1016  26.4241  27.6023  27.8852  27.9872  28.4587
    29.3037  29.6388  30.5404  30.7274  31.0159  31.1623  31.6941  31.8976
    32.3930  32.9960  33.8001  34.0701  34.5817  35.0104  35.2234  35.7431
    36.0968

     the Fermi energy is    27.5582 ev

!    total energy              =   -1896.41306590 Ry
     estimated scf accuracy    <       0.00000079 Ry
     smearing contrib. (-TS)   =      -0.01750054 Ry
     internal energy E=F+TS    =   -1896.39556536 Ry

     total magnetization       =     0.00 Bohr mag/cell
     absolute magnetization    =     0.00 Bohr mag/cell

     convergence has been achieved in   2 iterations

     negative rho (up, down):  1.624E-01 1.624E-01

     Forces acting on atoms (cartesian axes, Ry/au):

     atom    1 type  1   force =    -1.68720533    2.44528644  -11.29209662
     atom    2 type  1   force =     1.64478374   -0.49454363    8.54494489
     atom    3 type  2   force =    -3.46855962    3.27497148  -12.26549960
     atom    4 type  2   force =     1.19373445    6.85960535   14.76781557
     atom    5 type  3   force =     5.11385226   -4.20674436   16.20743164
     atom    6 type  3   force =    -3.46786167   -4.91172359  -10.88397562
     atom    7 type  4   force =    -6.56266686   -3.55463703   -9.54551359
     atom    8 type  4   force =    -3.78141390   -2.41885472   14.29242905
     atom    9 type  1   force =    -0.44545110    1.70144063   -5.70935879
     atom   10 type  1   force =    -0.22452026    3.30994061   10.93666804
     atom   11 type  2   force =    10.67031575   -8.95759692   -8.44488957
     atom   12 type  2   force =    -2.11987844    0.25184343  -10.26773106
     atom   13 type  3   force =     1.93653183   -6.89013697    2.83069510
     atom   14 type  3   force =    -1.78680548   -0.37113173    4.86066205
     atom   15 type  4   force =     1.14916280    9.06458811  -14.91312370
     atom   16 type  4   force =     1.89080102    4.84124158   11.04006396
     atom   17 type  5   force =    -0.05481919    0.05645130   -0.15852174
     The non-local contrib.  to forces
     atom    1 type  1   force =     1.77417133   -0.89934952    1.30929880
     atom    2 type  1   force =    -0.39556552   -1.43740662   -0.82751710
     atom    3 type  2   force =    -0.31372560    0.38832659   -1.87841733
     atom    4 type  2   force =     0.43552498    0.66676380    2.52975679
     atom    5 type  3   force =    -1.88767338    1.76867740   -4.12457432
     atom    6 type  3   force =     0.98301716    1.81098027    0.76681860
     atom    7 type  4   force =    -1.51904380   -0.20385210   -2.07979971
     atom    8 type  4   force =    -0.52313905   -0.42027660    2.45241640
     atom    9 type  1   force =    -0.91279233    0.56764914    0.02652423
     atom   10 type  1   force =    -0.20048867   -2.25017899   -2.11608242
     atom   11 type  2   force =     1.29285865   -0.68115891   -1.67741360
     atom   12 type  2   force =    -0.30905390    0.16252305   -1.00298704
     atom   13 type  3   force =    -0.19650909    3.25089595    0.76872478
     atom   14 type  3   force =    -0.21410374    0.38188821   -0.54149901
     atom   15 type  4   force =     0.79134109    1.16344502   -2.39012694
     atom   16 type  4   force =     0.56994778    0.59727019    2.10017979
     atom   17 type  5   force =    -0.00432959   -0.00244147    0.06013606
     The ionic contribution  to forces
     atom    1 type  1   force =   -10.66662597   10.79272397 -181.10148955
     atom    2 type  1   force =     9.26542661   13.66388516  139.19076397
     atom    3 type  2   force =   -18.26776253    9.65887878 -381.01039970
     atom    4 type  2   force =    -4.05351113   24.13963942  397.08339970
     atom    5 type  3   force =    17.86057918  -21.69935774  435.98344241
     atom    6 type  3   force =     1.43711929  -13.05387149 -121.30522097
     atom    7 type  4   force =   -33.89591747  -12.23982999 -378.68950420
     atom    8 type  4   force =   -18.94716595  -14.80639399  494.10040800
     atom    9 type  1   force =     8.35710901    8.74878326 -124.45134513
     atom   10 type  1   force =    -6.39855793   19.21820093  163.74765075
     atom   11 type  2   force =    44.58808946  -33.39448594 -447.55134644
     atom   12 type  2   force =   -13.38178672   -5.37894975 -167.06633126
     atom   13 type  3   force =     8.88798140  -26.66492344  145.82949807
     atom   14 type  3   force =    -9.67165097  -15.82969532  151.82228057
     atom   15 type  4   force =    12.76323180   34.60408394 -487.67530427
     atom   16 type  4   force =    12.26765876   22.15208793  400.14156069
     atom   17 type  5   force =    -0.14421685    0.08922426  -39.04806265
     The local contribution  to forces
     atom    1 type  1   force =     7.06173865   -7.29969272  168.02087388
     atom    2 type  1   force =    -7.11419331  -12.63087147 -129.47759363
     atom    3 type  2   force =    15.09712853   -6.74793073  370.51448626
     atom    4 type  2   force =     4.80354180  -17.91679184 -384.72998035
     atom    5 type  3   force =   -10.67201520   15.57030308 -415.08949812
     atom    6 type  3   force =    -5.95769656    6.11986169  109.37624148
     atom    7 type  4   force =    28.75236162    8.85951246  371.10591223
     atom    8 type  4   force =    15.65818397   12.77497201 -482.10661561
     atom    9 type  1   force =    -7.85400778   -7.47338499  118.60478680
     atom   10 type  1   force =     6.28751568  -13.49598030 -150.25734551
     atom   11 type  2   force =   -35.11294352   25.02112813  440.69455456
     atom   12 type  2   force =    11.55263145    5.46743239  157.74988753
     atom   13 type  3   force =    -6.68095336   16.31122474 -143.71001695
     atom   14 type  3   force =     7.99412385   15.04613528 -146.31959877
     atom   15 type  4   force =   -12.37815564  -26.58816675  474.97762234
     atom   16 type  4   force =   -10.90094222  -17.86191425 -391.08890989
     atom   17 type  5   force =     0.09376672   -0.03026630   38.82889995
     The core correction contribution to forces
     atom    1 type  1   force =     0.14355115   -0.14844383    0.47646665
     atom    2 type  1   force =    -0.11089643   -0.09022818   -0.34245296
     atom    3 type  2   force =     0.01574516   -0.02431367    0.10506313
     atom    4 type  2   force =     0.00816889   -0.03001654   -0.11659405
     atom    5 type  3   force =    -0.18694805    0.15358546   -0.56305003
     atom    6 type  3   force =     0.06971273    0.21127693    0.27504801
     atom    7 type  4   force =     0.09996424    0.02945567    0.11393968
     atom    8 type  4   force =     0.03074753    0.03290927   -0.15448019
     atom    9 type  1   force =    -0.03572283   -0.14164171    0.10805197
     atom   10 type  1   force =     0.08707343   -0.16218050   -0.43924416
     atom   11 type  2   force =    -0.09772693    0.09687009    0.08482778
     atom   12 type  2   force =     0.01839209    0.00082365    0.04842164
     atom   13 type  3   force =    -0.07397884    0.21268162   -0.05966027
     atom   14 type  3   force =     0.10488815    0.03056404   -0.10258910
     atom   15 type  4   force =    -0.02718971   -0.11542336    0.17090874
     atom   16 type  4   force =    -0.04579448   -0.04622510   -0.11376876
     atom   17 type  5   force =     0.00000000    0.00000000    0.00000000
     The Hubbard contrib.    to forces
     atom    1 type  1   force =     0.00000000    0.00000000    0.00000000
     atom    2 type  1   force =     0.00000000    0.00000000    0.00000000
     atom    3 type  2   force =     0.00000000    0.00000000    0.00000000
     atom    4 type  2   force =     0.00000000    0.00000000    0.00000000
     atom    5 type  3   force =     0.00000000    0.00000000    0.00000000
     atom    6 type  3   force =     0.00000000    0.00000000    0.00000000
     atom    7 type  4   force =     0.00000000    0.00000000    0.00000000
     atom    8 type  4   force =     0.00000000    0.00000000    0.00000000
     atom    9 type  1   force =     0.00000000    0.00000000    0.00000000
     atom   10 type  1   force =     0.00000000    0.00000000    0.00000000
     atom   11 type  2   force =     0.00000000    0.00000000    0.00000000
     atom   12 type  2   force =     0.00000000    0.00000000    0.00000000
     atom   13 type  3   force =     0.00000000    0.00000000    0.00000000
     atom   14 type  3   force =     0.00000000    0.00000000    0.00000000
     atom   15 type  4   force =     0.00000000    0.00000000    0.00000000
     atom   16 type  4   force =     0.00000000    0.00000000    0.00000000
     atom   17 type  5   force =     0.00000000    0.00000000    0.00000000
     The SCF correction term to forces
     atom    1 type  1   force =    -0.00000000    0.00000000    0.00000000
     atom    2 type  1   force =     0.00000000    0.00000000    0.00000000
     atom    3 type  2   force =     0.00000000   -0.00000000    0.00000000
     atom    4 type  2   force =     0.00000000   -0.00000000    0.00000000
     atom    5 type  3   force =    -0.00000000    0.00000000    0.00000000
     atom    6 type  3   force =     0.00000000   -0.00000000    0.00000000
     atom    7 type  4   force =    -0.00000000    0.00000000    0.00000000
     atom    8 type  4   force =    -0.00000000   -0.00000000    0.00000000
     atom    9 type  1   force =    -0.00000000    0.00000000    0.00000000
     atom   10 type  1   force =    -0.00000000    0.00000000    0.00000000
     atom   11 type  2   force =     0.00000000    0.00000000    0.00000000
     atom   12 type  2   force =    -0.00000000   -0.00000000    0.00000000
     atom   13 type  3   force =     0.00000000   -0.00000000    0.00000000
     atom   14 type  3   force =    -0.00000000   -0.00000000    0.00000000
     atom   15 type  4   force =    -0.00000000    0.00000000    0.00000000
     atom   16 type  4   force =    -0.00000000   -0.00000000    0.00000000
     atom   17 type  5   force =    -0.00000856   -0.00009956    0.00019035

     Total force =     0.176978     Total SCF correction =     0.000215

     Entering Dynamics:    iteration =    10
                           time      =   0.0010 pico-seconds


ATOMIC_POSITIONS (angstrom)
Hf            0.0858800679       -0.7951436715        7.4532072815    0   0   0
Hf            0.9880709739        1.9014415882        8.3624579711    0   0   0
Nb            1.0746989219        0.1356535858        6.8196389631    0   0   0
Nb            1.6491103981        0.8626804318        9.1943310858    0   0   0
Ta            0.0709744107       -0.7820475991        9.3858007313    0   0   0
Ta            1.9524714937        0.9993933557        7.6598559185    0   0   0
Zr            0.9976274959        1.7451739843        6.6557981874    0   0   0
Zr            2.5198328619        0.2094691683       10.0174953943    0   0   0
Hf            1.9380429646       -0.7197681019        7.5485206618    0   0   0
Hf           -0.6483186390        1.7040463621        8.4530515930    0   0   0
Nb            2.4216282335        1.6043757567        6.4559262597    0   0   0
Nb            0.1475903912        0.9184995235        7.5588298057    0   0   0
Ta            0.9013084356        0.1211212120        8.4106110025    0   0   0
Ta            2.6415926642        3.3452418198        8.4595496119    0   0   0
Zr            1.8442847182        2.6188909264        6.0000000000    0   0   0
Zr            0.1866550429        0.8943516698        9.3828635984    0   0   0
H             5.0013148261        4.0171400610        5.0027175147


     kinetic energy (Ekin) =           0.00341219 Ry
     temperature           =         359.16116829 K 
     Ekin + Etot (const)   =       -1896.40965372 Ry

     The maximum number of steps has been reached.

     End of molecular dynamics calculation

     diffusion coefficients :
     atom     1   D =       0.00000000 cm^2/s
     atom     2   D =       0.00000000 cm^2/s
     atom     3   D =       0.00000000 cm^2/s
     atom     4   D =       0.00000000 cm^2/s
     atom     5   D =       0.00000000 cm^2/s
     atom     6   D =       0.00000000 cm^2/s
     atom     7   D =       0.00000000 cm^2/s
     atom     8   D =       0.00000000 cm^2/s
     atom     9   D =       0.00000000 cm^2/s
     atom    10   D =       0.00000000 cm^2/s
     atom    11   D =       0.00000000 cm^2/s
     atom    12   D =       0.00000000 cm^2/s
     atom    13   D =       0.00000000 cm^2/s
     atom    14   D =       0.00000000 cm^2/s
     atom    15   D =       0.00000000 cm^2/s
     atom    16   D =       0.00000000 cm^2/s
     atom    17   D =       0.00000522 cm^2/s

     < D > =       0.00000522 cm^2/s

     Writing all to output data dir ./pwscf.save/

     init_run     :      6.93s CPU      7.48s WALL (       1 calls)
     electrons    :    704.55s CPU    727.01s WALL (      10 calls)
     update_pot   :      9.27s CPU      9.32s WALL (       9 calls)
     forces       :     50.92s CPU     52.02s WALL (      10 calls)

     Called by init_run:
     wfcinit      :      4.75s CPU      4.84s WALL (       1 calls)
     potinit      :      0.43s CPU      0.47s WALL (       1 calls)
     hinit0       :      0.90s CPU      0.94s WALL (       1 calls)

     Called by electrons:
     c_bands      :    521.22s CPU    528.30s WALL (      70 calls)
     sum_band     :    128.09s CPU    137.17s WALL (      70 calls)
     v_of_rho     :      4.10s CPU      4.29s WALL (      71 calls)
     newd         :     59.16s CPU     66.32s WALL (      71 calls)
     mix_rho      :      0.75s CPU      0.78s WALL (      70 calls)

     Called by c_bands:
     init_us_2    :      1.51s CPU      1.53s WALL (     302 calls)
     init_us_2:cp :      1.50s CPU      1.53s WALL (     302 calls)
     cegterg      :    513.92s CPU    520.92s WALL (     140 calls)

     Called by *egterg:
     cdiaghg      :     19.93s CPU     19.99s WALL (     474 calls)
     h_psi        :    227.49s CPU    233.09s WALL (     512 calls)
     s_psi        :     81.26s CPU     81.43s WALL (     512 calls)
     g_psi        :      0.21s CPU      0.21s WALL (     370 calls)

     Called by h_psi:
     h_psi:calbec :     86.92s CPU     87.24s WALL (     512 calls)
     vloc_psi     :     58.54s CPU     63.46s WALL (     512 calls)
     add_vuspsi   :     81.55s CPU     81.69s WALL (     512 calls)

     General routines
     calbec       :    151.01s CPU    151.54s WALL (     732 calls)
     fft          :      6.07s CPU      6.24s WALL (    1688 calls)
     ffts         :      0.20s CPU      0.21s WALL (     140 calls)
     fftw         :     67.20s CPU     72.91s WALL (   90362 calls)

     Parallel routines

     PWSCF        :  13m 0.39s CPU  13m25.74s WALL


   This run was terminated on:  19:26:44  22May2023            

=------------------------------------------------------------------------------=
   JOB DONE.
=------------------------------------------------------------------------------=
