
     Program PWSCF v.7.2 starts on 30May2023 at  2:18:22 

     This program is part of the open-source Quantum ESPRESSO suite
     for quantum simulation of materials; please cite
         "P. Giannozzi et al., J. Phys.:Condens. Matter 21 395502 (2009);
         "P. Giannozzi et al., J. Phys.:Condens. Matter 29 465901 (2017);
         "P. Giannozzi et al., J. Chem. Phys. 152 154105 (2020);
          URL http://www.quantum-espresso.org", 
     in publications or presentations arising from this work. More details at
     http://www.quantum-espresso.org/quote

     Parallel version (MPI), running on    12 processors

     MPI processes distributed on     1 nodes
     72094 MiB available memory on the printing compute node when the environment starts

     Reading input from HfNbTaZr_lattice_36_MD_nsteps_3.in
Warning: card &CELL ignored
Warning: card / ignored

     Current dimensions of program PWSCF are:
     Max number of different atomic species (ntypx) = 10
     Max number of k-points (npk) =  40000
     Max angular momentum in pseudopotentials (lmaxx) =  4

     R & G space division:  proc/nbgrp/npool/nimage =      12
     Subspace diagonalization in iterative solution of the eigenvalue problem:
     one sub-group per band group will be used
     custom distributed-memory algorithm (size of sub-group:  3*  3 procs)


     Parallelization info
     --------------------
     sticks:   dense  smooth     PW     G-vecs:    dense   smooth      PW
     Min        1378    1378    345               167471   167471   20931
     Max        1380    1380    346               167474   167474   20934
     Sum       16541   16541   4149              2009667  2009667  251199

     Using Slab Decomposition



     bravais-lattice index     =            0
     lattice parameter (alat)  =      20.8059  a.u.
     unit-cell volume          =   11317.6400 (a.u.)^3
     number of atoms/cell      =           37
     number of atomic types    =            5
     number of electrons       =       451.00
     number of Kohn-Sham states=          271
     kinetic-energy cutoff     =     120.0000  Ry
     charge density cutoff     =     480.0000  Ry
     scf convergence threshold =      1.0E-06
     mixing beta               =       0.7000
     number of iterations used =            8  TF        mixing
     energy convergence thresh.=      0.0E+00
     force convergence thresh. =      0.0E+00
     Exchange-correlation=  SLA  PW   PBX  PBC
                           (   1   4   3   4   0   0   0)
     nstep                     =            3


     celldm(1)=  20.805885  celldm(2)=   0.000000  celldm(3)=   0.000000
     celldm(4)=   0.000000  celldm(5)=   0.000000  celldm(6)=   0.000000

     crystal axes: (cart. coord. in units of alat)
               a(1) = (   1.000000   0.000000   0.000000 )  
               a(2) = (   0.000000   1.000000   0.000000 )  
               a(3) = (   0.000000   0.000000   1.256601 )  

     reciprocal axes: (cart. coord. in units 2 pi/alat)
               b(1) = (  1.000000  0.000000  0.000000 )  
               b(2) = (  0.000000  1.000000  0.000000 )  
               b(3) = (  0.000000  0.000000  0.795798 )  


     PseudoPot. # 1 for Hf read from file:
     q-e/pseudo/hf_pbe_v1.uspp.F.UPF
     MD5 check sum: 8ee9378dfe14276e333edf04c5e4aa26
     Pseudo is Ultrasoft + core correction, Zval = 12.0
     Generated by new atomic code, or converted to UPF format
     Using radial grid of  921 points,  8 beta functions with: 
                l(1) =   0
                l(2) =   0
                l(3) =   0
                l(4) =   1
                l(5) =   1
                l(6) =   2
                l(7) =   2
                l(8) =   3
     Q(r) pseudized with  6 coefficients,  rinner =    1.200   1.200   1.200
                                                       1.200   1.200   1.200
                                                       1.200

     PseudoPot. # 2 for Nb read from file:
     q-e/pseudo/nb_pbe_v1.uspp.F.UPF
     MD5 check sum: 573aab8a2fa660278ed4a62cd769473f
     Pseudo is Ultrasoft + core correction, Zval = 13.0
     Generated by new atomic code, or converted to UPF format
     Using radial grid of  887 points,  6 beta functions with: 
                l(1) =   0
                l(2) =   0
                l(3) =   1
                l(4) =   1
                l(5) =   2
                l(6) =   2
     Q(r) pseudized with  6 coefficients,  rinner =    1.000   1.000   1.000
                                                       1.000   1.000

     PseudoPot. # 3 for Ta read from file:
     q-e/pseudo/ta_pbe_v1.uspp.F.UPF
     MD5 check sum: f8bbe9446314a3b8ea5d9f3e3836c939
     Pseudo is Ultrasoft + core correction, Zval = 13.0
     Generated by new atomic code, or converted to UPF format
     Using radial grid of  921 points,  7 beta functions with: 
                l(1) =   0
                l(2) =   0
                l(3) =   1
                l(4) =   1
                l(5) =   2
                l(6) =   2
                l(7) =   3
     Q(r) pseudized with  6 coefficients,  rinner =    1.300   1.300   1.300
                                                       1.300   1.300   1.300
                                                       1.300

     PseudoPot. # 4 for Zr read from file:
     q-e/pseudo/zr_pbe_v1.uspp.F.UPF
     MD5 check sum: 5db81b1e868ab7776c4564c113de050b
     Pseudo is Ultrasoft + core correction, Zval = 12.0
     Generated by new atomic code, or converted to UPF format
     Using radial grid of  887 points,  6 beta functions with: 
                l(1) =   0
                l(2) =   0
                l(3) =   1
                l(4) =   1
                l(5) =   2
                l(6) =   2
     Q(r) pseudized with  6 coefficients,  rinner =    1.200   1.200   1.200
                                                       1.200   1.200

     PseudoPot. # 5 for H  read from file:
     q-e/pseudo/h_pbe_v1.4.uspp.F.UPF
     MD5 check sum: 761ae9a214b05c3daf00ab9f6b793d6f
     Pseudo is Ultrasoft, Zval =  1.0
     Generated by new atomic code, or converted to UPF format
     Using radial grid of  615 points,  2 beta functions with: 
                l(1) =   0
                l(2) =   0
     Q(r) pseudized with  8 coefficients,  rinner =    0.700

     atomic species   valence    mass     pseudopotential
        Hf            12.00   178.49000     Hf( 1.00)
        Nb            13.00    92.90637     Nb( 1.00)
        Ta            13.00   180.94788     Ta( 1.00)
        Zr            12.00    91.22400     Zr( 1.00)
        H              1.00     2.01400     H ( 1.00)

     Starting magnetic structure 
     atomic species   magnetization
        Hf           0.000
        Nb           0.000
        Ta           0.000
        Zr           0.000
        H            0.000

     No symmetry found



   Cartesian axes

     site n.     atom                  positions (alat units)
         1           Hf  tau(   1) = (   0.0833486   0.0833517   0.5449596  )
         2           Nb  tau(   2) = (   0.0833173   0.2500113   0.7116414  )
         3           Ta  tau(   3) = (   0.2500207   0.0833236   0.7116404  )
         4           Zr  tau(   4) = (   0.2499759   0.2499920   0.5449844  )
         5           Hf  tau(   5) = (   0.0833519   0.4166833   0.5449593  )
         6           Nb  tau(   6) = (   0.0833187   0.5833390   0.7116416  )
         7           Ta  tau(   7) = (   0.2500216   0.4166547   0.7116404  )
         8           Zr  tau(   8) = (   0.2499738   0.5833112   0.5449842  )
         9           Hf  tau(   9) = (   0.0833458   0.7500096   0.5449595  )
        10           Nb  tau(  10) = (   0.0833165   0.9166805   0.7116416  )
        11           Ta  tau(  11) = (   0.2500187   0.7499864   0.7116407  )
        12           Zr  tau(  12) = (   0.2499713   0.9166568   0.5449844  )
        13           Hf  tau(  13) = (   0.4166780   0.0833551   0.5449592  )
        14           Nb  tau(  14) = (   0.4166510   0.2500112   0.7116411  )
        15           Ta  tau(  15) = (   0.5833605   0.0833207   0.7116403  )
        16           Zr  tau(  16) = (   0.5833110   0.2499891   0.5449845  )
        17           Hf  tau(  17) = (   0.4166746   0.4166799   0.5449591  )
        18           Nb  tau(  18) = (   0.4166488   0.5833406   0.7116415  )
        19           Ta  tau(  19) = (   0.5833576   0.4166574   0.7116406  )
        20           Zr  tau(  20) = (   0.5833116   0.5833123   0.5449845  )
        21           Hf  tau(  21) = (   0.4166783   0.7500098   0.5449593  )
        22           Nb  tau(  22) = (   0.4166498   0.9166789   0.7116413  )
        23           Ta  tau(  23) = (   0.5833620   0.7499865   0.7116407  )
        24           Zr  tau(  24) = (   0.5833161   0.9166588   0.5449846  )
        25           Hf  tau(  25) = (   0.7500205   0.0833469   0.5449594  )
        26           Nb  tau(  26) = (   0.7499833   0.2500108   0.7116412  )
        27           Ta  tau(  27) = (   0.9166895   0.0833203   0.7116402  )
        28           Zr  tau(  28) = (   0.9166437   0.2499878   0.5449845  )
        29           Hf  tau(  29) = (   0.7500213   0.4166878   0.5449593  )
        30           Nb  tau(  30) = (   0.7499838   0.5833405   0.7116413  )
        31           Ta  tau(  31) = (   0.9166918   0.4166587   0.7116403  )
        32           Zr  tau(  32) = (   0.9166451   0.5833137   0.5449844  )
        33           Hf  tau(  33) = (   0.7500228   0.7500097   0.5449592  )
        34           Nb  tau(  34) = (   0.7499850   0.9166794   0.7116413  )
        35           Ta  tau(  35) = (   0.9166897   0.7499858   0.7116404  )
        36           Zr  tau(  36) = (   0.9166429   0.9166582   0.5449845  )
        37           H   tau(  37) = (   0.4541326   0.3633061   0.0090827  )

     number of k points=     1  Gaussian smearing, width (Ry)=  0.0220
                       cart. coord. in units 2pi/alat
        k(    1) = (   0.0000000   0.0000000   0.0000000), wk =   1.0000000

     Dense  grid:  2009667 G-vectors     FFT dimensions: ( 150, 150, 192)

     Estimated max dynamical RAM per process >       1.70 GB

     Estimated total dynamical RAM >      20.43 GB

     Check: negative core charge=   -0.000002
     Generating pointlists ...
     new r_m :   0.0972 (alat units)  2.0224 (a.u.) for type    1
     new r_m :   0.0972 (alat units)  2.0225 (a.u.) for type    2
     new r_m :   0.0972 (alat units)  2.0225 (a.u.) for type    3
     new r_m :   0.0972 (alat units)  2.0224 (a.u.) for type    4
     new r_m :   0.2227 (alat units)  4.6330 (a.u.) for type    5

     Initial potential from superposition of free atoms

     starting charge     432.9460, renormalised to     451.0000

     negative rho (up, down):  1.212E+00 1.212E+00
     Starting wfcs are  469 randomized atomic wfcs

     total cpu time spent up to now is      202.6 secs

     Self-consistent Calculation

     iteration #  1     ecut=   120.00 Ry     beta= 0.70
     Davidson diagonalization with overlap
     ethr =  1.00E-02,  avg # of iterations =  6.0

     negative rho (up, down):  1.511E+00 1.511E+00

     total cpu time spent up to now is      609.6 secs

     total energy              =   -4640.34289442 Ry
     estimated scf accuracy    <     407.43750081 Ry

     total magnetization       =     0.00 Bohr mag/cell
     absolute magnetization    =     0.06 Bohr mag/cell

     iteration #  2     ecut=   120.00 Ry     beta= 0.70
     Davidson diagonalization with overlap
     ethr =  1.00E-02,  avg # of iterations =  7.5

     negative rho (up, down):  1.664E+00 1.656E+00

     total cpu time spent up to now is     1033.2 secs

     total energy              =   -4657.97592208 Ry
     estimated scf accuracy    <      29.49178912 Ry

     total magnetization       =    -1.00 Bohr mag/cell
     absolute magnetization    =     1.20 Bohr mag/cell

     iteration #  3     ecut=   120.00 Ry     beta= 0.70
     Davidson diagonalization with overlap
     ethr =  6.54E-03,  avg # of iterations =  5.0

     negative rho (up, down):  1.875E+00 1.856E+00

     total cpu time spent up to now is     1353.8 secs

     total energy              =   -4656.68606656 Ry
     estimated scf accuracy    <      20.45658741 Ry

     total magnetization       =    -1.01 Bohr mag/cell
     absolute magnetization    =     1.50 Bohr mag/cell

     iteration #  4     ecut=   120.00 Ry     beta= 0.70
     Davidson diagonalization with overlap
     ethr =  4.54E-03,  avg # of iterations =  6.5

     negative rho (up, down):  1.966E+00 1.968E+00

     total cpu time spent up to now is     1683.1 secs

     total energy              =   -4657.15706835 Ry
     estimated scf accuracy    <       5.64207859 Ry

     total magnetization       =    -1.02 Bohr mag/cell
     absolute magnetization    =     1.53 Bohr mag/cell

     iteration #  5     ecut=   120.00 Ry     beta= 0.70
     Davidson diagonalization with overlap
     ethr =  1.25E-03,  avg # of iterations =  5.5

     negative rho (up, down):  1.874E+00 1.862E+00

     total cpu time spent up to now is     2023.6 secs

     total energy              =   -4657.00854267 Ry
     estimated scf accuracy    <       2.03135369 Ry

     total magnetization       =    -0.67 Bohr mag/cell
     absolute magnetization    =     0.82 Bohr mag/cell

     iteration #  6     ecut=   120.00 Ry     beta= 0.70
     Davidson diagonalization with overlap
     ethr =  4.50E-04,  avg # of iterations =  3.0

     negative rho (up, down):  1.855E+00 1.849E+00

     total cpu time spent up to now is     2344.9 secs

     total energy              =   -4656.88766367 Ry
     estimated scf accuracy    <       3.57799068 Ry

     total magnetization       =    -0.29 Bohr mag/cell
     absolute magnetization    =     0.36 Bohr mag/cell

     iteration #  7     ecut=   120.00 Ry     beta= 0.70
     Davidson diagonalization with overlap
     ethr =  4.50E-04,  avg # of iterations =  6.0

     negative rho (up, down):  1.816E+00 1.814E+00

     total cpu time spent up to now is     2660.6 secs

     total energy              =   -4656.66921069 Ry
     estimated scf accuracy    <       1.34666538 Ry

     total magnetization       =    -0.17 Bohr mag/cell
     absolute magnetization    =     0.26 Bohr mag/cell

     iteration #  8     ecut=   120.00 Ry     beta= 0.70
     Davidson diagonalization with overlap
     ethr =  2.99E-04,  avg # of iterations =  6.0

     negative rho (up, down):  1.589E+00 1.591E+00

     total cpu time spent up to now is     2992.2 secs

     total energy              =   -4656.66666733 Ry
     estimated scf accuracy    <       0.59896762 Ry

     total magnetization       =     0.06 Bohr mag/cell
     absolute magnetization    =     0.24 Bohr mag/cell

     iteration #  9     ecut=   120.00 Ry     beta= 0.70
     Davidson diagonalization with overlap
     ethr =  1.33E-04,  avg # of iterations =  8.0

     negative rho (up, down):  1.453E+00 1.454E+00

     total cpu time spent up to now is     3316.7 secs

     total energy              =   -4656.63556650 Ry
     estimated scf accuracy    <       0.42316871 Ry

     total magnetization       =     0.07 Bohr mag/cell
     absolute magnetization    =     0.12 Bohr mag/cell

     iteration # 10     ecut=   120.00 Ry     beta= 0.70
     Davidson diagonalization with overlap
     ethr =  9.38E-05,  avg # of iterations = 11.0

     negative rho (up, down):  1.405E+00 1.407E+00

     total cpu time spent up to now is     3646.9 secs

     total energy              =   -4656.58885864 Ry
     estimated scf accuracy    <       1.22857941 Ry

     total magnetization       =     0.16 Bohr mag/cell
     absolute magnetization    =     0.17 Bohr mag/cell

     iteration # 11     ecut=   120.00 Ry     beta= 0.70
     Davidson diagonalization with overlap
     ethr =  9.38E-05,  avg # of iterations =  6.0

     negative rho (up, down):  1.305E+00 1.308E+00

     total cpu time spent up to now is     3963.5 secs

     total energy              =   -4656.61414800 Ry
     estimated scf accuracy    <       0.09211654 Ry

     total magnetization       =     0.33 Bohr mag/cell
     absolute magnetization    =     0.33 Bohr mag/cell

     iteration # 12     ecut=   120.00 Ry     beta= 0.70
     Davidson diagonalization with overlap
     ethr =  2.04E-05,  avg # of iterations = 11.5

     negative rho (up, down):  1.239E+00 1.242E+00

     total cpu time spent up to now is     4330.4 secs

     total energy              =   -4656.65705674 Ry
     estimated scf accuracy    <       0.09064868 Ry

     total magnetization       =     0.91 Bohr mag/cell
     absolute magnetization    =     0.93 Bohr mag/cell

     iteration # 13     ecut=   120.00 Ry     beta= 0.70
     Davidson diagonalization with overlap
     ethr =  2.01E-05,  avg # of iterations =  3.0

     negative rho (up, down):  1.200E+00 1.202E+00

     total cpu time spent up to now is     4636.7 secs

     total energy              =   -4656.68551057 Ry
     estimated scf accuracy    <       0.04822155 Ry

     total magnetization       =     1.04 Bohr mag/cell
     absolute magnetization    =     1.06 Bohr mag/cell

     iteration # 14     ecut=   120.00 Ry     beta= 0.70
     Davidson diagonalization with overlap
     c_bands:  1 eigenvalues not converged
     ethr =  1.07E-05,  avg # of iterations = 11.5

     negative rho (up, down):  1.194E+00 1.196E+00

     total cpu time spent up to now is     4951.6 secs

     total energy              =   -4656.68784983 Ry
     estimated scf accuracy    <       0.03582803 Ry

     total magnetization       =     1.01 Bohr mag/cell
     absolute magnetization    =     1.04 Bohr mag/cell

     iteration # 15     ecut=   120.00 Ry     beta= 0.70
     Davidson diagonalization with overlap
     ethr =  7.94E-06,  avg # of iterations =  4.5

     negative rho (up, down):  1.188E+00 1.188E+00

     total cpu time spent up to now is     5238.3 secs

     total energy              =   -4656.68309471 Ry
     estimated scf accuracy    <       0.03343390 Ry

     total magnetization       =     1.00 Bohr mag/cell
     absolute magnetization    =     1.03 Bohr mag/cell

     iteration # 16     ecut=   120.00 Ry     beta= 0.70
     Davidson diagonalization with overlap
     ethr =  7.41E-06,  avg # of iterations =  6.0

     negative rho (up, down):  1.187E+00 1.187E+00

     total cpu time spent up to now is     5547.5 secs

     total energy              =   -4656.68382291 Ry
     estimated scf accuracy    <       0.03649543 Ry

     total magnetization       =     0.97 Bohr mag/cell
     absolute magnetization    =     1.02 Bohr mag/cell

     iteration # 17     ecut=   120.00 Ry     beta= 0.70
     Davidson diagonalization with overlap
     ethr =  7.41E-06,  avg # of iterations =  2.0

     negative rho (up, down):  1.193E+00 1.196E+00

     total cpu time spent up to now is     5849.8 secs

     total energy              =   -4656.68510022 Ry
     estimated scf accuracy    <       0.03004301 Ry

     total magnetization       =     0.96 Bohr mag/cell
     absolute magnetization    =     1.04 Bohr mag/cell

     iteration # 18     ecut=   120.00 Ry     beta= 0.70
     Davidson diagonalization with overlap
     ethr =  6.66E-06,  avg # of iterations =  3.0

     negative rho (up, down):  1.201E+00 1.206E+00

     total cpu time spent up to now is     6152.5 secs

     total energy              =   -4656.68374792 Ry
     estimated scf accuracy    <       0.02572375 Ry

     total magnetization       =     0.95 Bohr mag/cell
     absolute magnetization    =     1.05 Bohr mag/cell

     iteration # 19     ecut=   120.00 Ry     beta= 0.70
     Davidson diagonalization with overlap
     ethr =  5.70E-06,  avg # of iterations =  2.0

     negative rho (up, down):  1.219E+00 1.222E+00

     total cpu time spent up to now is     6454.8 secs

     total energy              =   -4656.67205638 Ry
     estimated scf accuracy    <       0.02120985 Ry

     total magnetization       =     0.94 Bohr mag/cell
     absolute magnetization    =     1.05 Bohr mag/cell

     iteration # 20     ecut=   120.00 Ry     beta= 0.70
     Davidson diagonalization with overlap
     ethr =  4.70E-06,  avg # of iterations =  5.5

     negative rho (up, down):  1.224E+00 1.262E+00

     total cpu time spent up to now is     6777.9 secs

     total energy              =   -4656.68640671 Ry
     estimated scf accuracy    <       0.01536071 Ry

     total magnetization       =     0.95 Bohr mag/cell
     absolute magnetization    =     1.04 Bohr mag/cell

     iteration # 21     ecut=   120.00 Ry     beta= 0.70
     Davidson diagonalization with overlap
     c_bands:  3 eigenvalues not converged
     ethr =  3.41E-06,  avg # of iterations = 12.0

     negative rho (up, down):  1.211E+00 1.215E+00

     total cpu time spent up to now is     7099.3 secs

     total energy              =   -4656.69734254 Ry
     estimated scf accuracy    <       0.00705556 Ry

     total magnetization       =     0.95 Bohr mag/cell
     absolute magnetization    =     1.04 Bohr mag/cell

     iteration # 22     ecut=   120.00 Ry     beta= 0.70
     Davidson diagonalization with overlap
     ethr =  1.56E-06,  avg # of iterations =  8.5

     negative rho (up, down):  1.218E+00 1.218E+00

     total cpu time spent up to now is     7409.4 secs

     total energy              =   -4656.67945607 Ry
     estimated scf accuracy    <       0.00308565 Ry

     total magnetization       =     0.97 Bohr mag/cell
     absolute magnetization    =     1.03 Bohr mag/cell

     iteration # 23     ecut=   120.00 Ry     beta= 0.70
     Davidson diagonalization with overlap
     ethr =  6.84E-07,  avg # of iterations =  8.0

     negative rho (up, down):  1.214E+00 1.214E+00

     total cpu time spent up to now is     7729.2 secs

     total energy              =   -4656.67907733 Ry
     estimated scf accuracy    <       0.00165969 Ry

     total magnetization       =     0.97 Bohr mag/cell
     absolute magnetization    =     1.03 Bohr mag/cell

     iteration # 24     ecut=   120.00 Ry     beta= 0.70
     Davidson diagonalization with overlap
     ethr =  3.68E-07,  avg # of iterations =  8.5

     negative rho (up, down):  1.209E+00 1.212E+00

     total cpu time spent up to now is     8043.8 secs

     total energy              =   -4656.68951441 Ry
     estimated scf accuracy    <       0.00072929 Ry

     total magnetization       =     0.97 Bohr mag/cell
     absolute magnetization    =     1.02 Bohr mag/cell

     iteration # 25     ecut=   120.00 Ry     beta= 0.70
     Davidson diagonalization with overlap
     ethr =  1.62E-07,  avg # of iterations =  5.5

     negative rho (up, down):  1.201E+00 1.207E+00

     total cpu time spent up to now is     8356.9 secs

     total energy              =   -4656.71005428 Ry
     estimated scf accuracy    <       0.00043193 Ry

     total magnetization       =     0.97 Bohr mag/cell
     absolute magnetization    =     1.02 Bohr mag/cell

     iteration # 26     ecut=   120.00 Ry     beta= 0.70
     Davidson diagonalization with overlap
     ethr =  9.58E-08,  avg # of iterations =  6.5

     negative rho (up, down):  1.199E+00 1.202E+00

     total cpu time spent up to now is     8685.2 secs

     total energy              =   -4656.68935151 Ry
     estimated scf accuracy    <       0.00043458 Ry

     total magnetization       =     0.97 Bohr mag/cell
     absolute magnetization    =     1.03 Bohr mag/cell

     iteration # 27     ecut=   120.00 Ry     beta= 0.70
     Davidson diagonalization with overlap
     c_bands:  2 eigenvalues not converged
     ethr =  9.58E-08,  avg # of iterations = 12.5

     negative rho (up, down):  1.196E+00 1.198E+00

     total cpu time spent up to now is     9106.1 secs

     total energy              =   -4656.69955381 Ry
     estimated scf accuracy    <       0.00022452 Ry

     total magnetization       =     0.97 Bohr mag/cell
     absolute magnetization    =     1.02 Bohr mag/cell

     iteration # 28     ecut=   120.00 Ry     beta= 0.70
     Davidson diagonalization with overlap
     ethr =  4.98E-08,  avg # of iterations =  9.0

     negative rho (up, down):  1.193E+00 1.194E+00

     total cpu time spent up to now is     9426.1 secs

     total energy              =   -4656.69860521 Ry
     estimated scf accuracy    <       0.00041522 Ry

     total magnetization       =     0.97 Bohr mag/cell
     absolute magnetization    =     1.02 Bohr mag/cell

     iteration # 29     ecut=   120.00 Ry     beta= 0.70
     Davidson diagonalization with overlap
     ethr =  4.98E-08,  avg # of iterations =  8.5

     negative rho (up, down):  1.190E+00 1.191E+00

     total cpu time spent up to now is     9734.3 secs

     total energy              =   -4656.69809423 Ry
     estimated scf accuracy    <       0.00024055 Ry

     total magnetization       =     0.98 Bohr mag/cell
     absolute magnetization    =     1.02 Bohr mag/cell

     iteration # 30     ecut=   120.00 Ry     beta= 0.70
     Davidson diagonalization with overlap
     ethr =  4.98E-08,  avg # of iterations =  6.0

     negative rho (up, down):  1.188E+00 1.189E+00

     total cpu time spent up to now is    10042.1 secs

     total energy              =   -4656.68734835 Ry
     estimated scf accuracy    <       0.00008733 Ry

     total magnetization       =     0.98 Bohr mag/cell
     absolute magnetization    =     1.02 Bohr mag/cell

     iteration # 31     ecut=   120.00 Ry     beta= 0.70
     Davidson diagonalization with overlap
     ethr =  1.94E-08,  avg # of iterations =  8.5

     negative rho (up, down):  1.188E+00 1.189E+00

     total cpu time spent up to now is    10373.6 secs

     total energy              =   -4656.69471003 Ry
     estimated scf accuracy    <       0.00013930 Ry

     total magnetization       =     0.98 Bohr mag/cell
     absolute magnetization    =     1.02 Bohr mag/cell

     iteration # 32     ecut=   120.00 Ry     beta= 0.70
     Davidson diagonalization with overlap
     ethr =  1.94E-08,  avg # of iterations =  4.5

     negative rho (up, down):  1.188E+00 1.189E+00

     total cpu time spent up to now is    10679.7 secs

     total energy              =   -4656.69658182 Ry
     estimated scf accuracy    <       0.00007331 Ry

     total magnetization       =     0.98 Bohr mag/cell
     absolute magnetization    =     1.02 Bohr mag/cell

     iteration # 33     ecut=   120.00 Ry     beta= 0.70
     Davidson diagonalization with overlap
     ethr =  1.63E-08,  avg # of iterations =  4.5

     negative rho (up, down):  1.188E+00 1.189E+00

     total cpu time spent up to now is    10985.2 secs

     total energy              =   -4656.69140483 Ry
     estimated scf accuracy    <       0.00004200 Ry

     total magnetization       =     0.98 Bohr mag/cell
     absolute magnetization    =     1.02 Bohr mag/cell

     iteration # 34     ecut=   120.00 Ry     beta= 0.70
     Davidson diagonalization with overlap
     ethr =  9.31E-09,  avg # of iterations =  5.0

     negative rho (up, down):  1.188E+00 1.189E+00

     total cpu time spent up to now is    11292.8 secs

     total energy              =   -4656.69163747 Ry
     estimated scf accuracy    <       0.00006205 Ry

     total magnetization       =     0.98 Bohr mag/cell
     absolute magnetization    =     1.02 Bohr mag/cell

     iteration # 35     ecut=   120.00 Ry     beta= 0.70
     Davidson diagonalization with overlap
     ethr =  9.31E-09,  avg # of iterations =  4.0

     negative rho (up, down):  1.188E+00 1.189E+00

     total cpu time spent up to now is    11597.0 secs

     total energy              =   -4656.69667412 Ry
     estimated scf accuracy    <       0.00002660 Ry

     total magnetization       =     0.98 Bohr mag/cell
     absolute magnetization    =     1.02 Bohr mag/cell

     iteration # 36     ecut=   120.00 Ry     beta= 0.70
     Davidson diagonalization with overlap
     ethr =  5.90E-09,  avg # of iterations =  5.0

     negative rho (up, down):  1.188E+00 1.189E+00

     total cpu time spent up to now is    11907.4 secs

     total energy              =   -4656.69111941 Ry
     estimated scf accuracy    <       0.00001923 Ry

     total magnetization       =     0.98 Bohr mag/cell
     absolute magnetization    =     1.02 Bohr mag/cell

     iteration # 37     ecut=   120.00 Ry     beta= 0.70
     Davidson diagonalization with overlap
     ethr =  4.26E-09,  avg # of iterations =  5.5

     negative rho (up, down):  1.188E+00 1.188E+00

     total cpu time spent up to now is    12222.6 secs

     total energy              =   -4656.69167495 Ry
     estimated scf accuracy    <       0.00003846 Ry

     total magnetization       =     0.98 Bohr mag/cell
     absolute magnetization    =     1.02 Bohr mag/cell

     iteration # 38     ecut=   120.00 Ry     beta= 0.70
     Davidson diagonalization with overlap
     ethr =  4.26E-09,  avg # of iterations =  5.0

     negative rho (up, down):  1.188E+00 1.188E+00

     total cpu time spent up to now is    12532.6 secs

     total energy              =   -4656.69261742 Ry
     estimated scf accuracy    <       0.00004752 Ry

     total magnetization       =     0.98 Bohr mag/cell
     absolute magnetization    =     1.02 Bohr mag/cell

     iteration # 39     ecut=   120.00 Ry     beta= 0.70
     Davidson diagonalization with overlap
     ethr =  4.26E-09,  avg # of iterations =  3.5

     negative rho (up, down):  1.188E+00 1.188E+00

     total cpu time spent up to now is    12839.3 secs

     total energy              =   -4656.69032252 Ry
     estimated scf accuracy    <       0.00004800 Ry

     total magnetization       =     0.98 Bohr mag/cell
     absolute magnetization    =     1.02 Bohr mag/cell

     iteration # 40     ecut=   120.00 Ry     beta= 0.70
     Davidson diagonalization with overlap
     ethr =  4.26E-09,  avg # of iterations =  4.5

     negative rho (up, down):  1.188E+00 1.188E+00

     total cpu time spent up to now is    13149.5 secs

     total energy              =   -4656.68700776 Ry
     estimated scf accuracy    <       0.00003493 Ry

     total magnetization       =     0.98 Bohr mag/cell
     absolute magnetization    =     1.02 Bohr mag/cell

     iteration # 41     ecut=   120.00 Ry     beta= 0.70
     Davidson diagonalization with overlap
     ethr =  4.26E-09,  avg # of iterations =  4.0

     negative rho (up, down):  1.188E+00 1.188E+00

     total cpu time spent up to now is    13454.9 secs

     total energy              =   -4656.68739361 Ry
     estimated scf accuracy    <       0.00005111 Ry

     total magnetization       =     0.98 Bohr mag/cell
     absolute magnetization    =     1.02 Bohr mag/cell

     iteration # 42     ecut=   120.00 Ry     beta= 0.70
     Davidson diagonalization with overlap
     ethr =  4.26E-09,  avg # of iterations =  3.0

     negative rho (up, down):  1.188E+00 1.188E+00

     total cpu time spent up to now is    13757.4 secs

     total energy              =   -4656.68701251 Ry
     estimated scf accuracy    <       0.00004769 Ry

     total magnetization       =     0.98 Bohr mag/cell
     absolute magnetization    =     1.02 Bohr mag/cell

     iteration # 43     ecut=   120.00 Ry     beta= 0.70
     Davidson diagonalization with overlap
     ethr =  4.26E-09,  avg # of iterations =  4.5

     negative rho (up, down):  1.188E+00 1.188E+00

     total cpu time spent up to now is    14070.7 secs

     total energy              =   -4656.68924944 Ry
     estimated scf accuracy    <       0.00004393 Ry

     total magnetization       =     0.98 Bohr mag/cell
     absolute magnetization    =     1.02 Bohr mag/cell

     iteration # 44     ecut=   120.00 Ry     beta= 0.70
     Davidson diagonalization with overlap
     ethr =  4.26E-09,  avg # of iterations =  4.0

     negative rho (up, down):  1.188E+00 1.188E+00

     total cpu time spent up to now is    14375.7 secs

     total energy              =   -4656.69023000 Ry
     estimated scf accuracy    <       0.00003530 Ry

     total magnetization       =     0.98 Bohr mag/cell
     absolute magnetization    =     1.02 Bohr mag/cell

     iteration # 45     ecut=   120.00 Ry     beta= 0.70
     Davidson diagonalization with overlap
     ethr =  4.26E-09,  avg # of iterations =  4.5

     negative rho (up, down):  1.188E+00 1.188E+00

     total cpu time spent up to now is    14684.6 secs

     total energy              =   -4656.69187906 Ry
     estimated scf accuracy    <       0.00003916 Ry

     total magnetization       =     0.98 Bohr mag/cell
     absolute magnetization    =     1.02 Bohr mag/cell

     iteration # 46     ecut=   120.00 Ry     beta= 0.70
     Davidson diagonalization with overlap
     ethr =  4.26E-09,  avg # of iterations =  4.5

     negative rho (up, down):  1.188E+00 1.188E+00

     total cpu time spent up to now is    14991.0 secs

     total energy              =   -4656.69019151 Ry
     estimated scf accuracy    <       0.00005573 Ry

     total magnetization       =     0.98 Bohr mag/cell
     absolute magnetization    =     1.01 Bohr mag/cell

     iteration # 47     ecut=   120.00 Ry     beta= 0.70
     Davidson diagonalization with overlap
     ethr =  4.26E-09,  avg # of iterations =  4.0

     negative rho (up, down):  1.188E+00 1.188E+00

     total cpu time spent up to now is    15298.0 secs

     total energy              =   -4656.68966401 Ry
     estimated scf accuracy    <       0.00004914 Ry

     total magnetization       =     0.98 Bohr mag/cell
     absolute magnetization    =     1.01 Bohr mag/cell

     iteration # 48     ecut=   120.00 Ry     beta= 0.70
     Davidson diagonalization with overlap
     ethr =  4.26E-09,  avg # of iterations =  3.0

     negative rho (up, down):  1.188E+00 1.188E+00

     total cpu time spent up to now is    15601.8 secs

     total energy              =   -4656.68806166 Ry
     estimated scf accuracy    <       0.00005138 Ry

     total magnetization       =     0.98 Bohr mag/cell
     absolute magnetization    =     1.01 Bohr mag/cell

     iteration # 49     ecut=   120.00 Ry     beta= 0.70
     Davidson diagonalization with overlap
     ethr =  4.26E-09,  avg # of iterations =  4.0

     negative rho (up, down):  1.188E+00 1.188E+00

     total cpu time spent up to now is    15910.1 secs

     total energy              =   -4656.68396581 Ry
     estimated scf accuracy    <       0.00005309 Ry

     total magnetization       =     0.98 Bohr mag/cell
     absolute magnetization    =     1.01 Bohr mag/cell

     iteration # 50     ecut=   120.00 Ry     beta= 0.70
     Davidson diagonalization with overlap
     ethr =  4.26E-09,  avg # of iterations =  4.0

     negative rho (up, down):  1.188E+00 1.188E+00

     total cpu time spent up to now is    16221.0 secs

     total energy              =   -4656.68335725 Ry
     estimated scf accuracy    <       0.00007440 Ry

     total magnetization       =     0.98 Bohr mag/cell
     absolute magnetization    =     1.02 Bohr mag/cell

     iteration # 51     ecut=   120.00 Ry     beta= 0.70
     Davidson diagonalization with overlap
     ethr =  4.26E-09,  avg # of iterations =  4.0

     negative rho (up, down):  1.188E+00 1.188E+00

     total cpu time spent up to now is    16526.7 secs

     total energy              =   -4656.68436261 Ry
     estimated scf accuracy    <       0.00007815 Ry

     total magnetization       =     0.98 Bohr mag/cell
     absolute magnetization    =     1.02 Bohr mag/cell

     iteration # 52     ecut=   120.00 Ry     beta= 0.70
     Davidson diagonalization with overlap
     ethr =  4.26E-09,  avg # of iterations =  3.0

     negative rho (up, down):  1.188E+00 1.189E+00

     total cpu time spent up to now is    16831.9 secs

     total energy              =   -4656.68517249 Ry
     estimated scf accuracy    <       0.00007861 Ry

     total magnetization       =     0.98 Bohr mag/cell
     absolute magnetization    =     1.02 Bohr mag/cell

     iteration # 53     ecut=   120.00 Ry     beta= 0.70
     Davidson diagonalization with overlap
     ethr =  4.26E-09,  avg # of iterations =  5.5

     negative rho (up, down):  1.188E+00 1.188E+00

     total cpu time spent up to now is    17154.4 secs

     total energy              =   -4656.68611651 Ry
     estimated scf accuracy    <       0.00008602 Ry

     total magnetization       =     0.98 Bohr mag/cell
     absolute magnetization    =     1.01 Bohr mag/cell

     iteration # 54     ecut=   120.00 Ry     beta= 0.70
     Davidson diagonalization with overlap
     ethr =  4.26E-09,  avg # of iterations =  5.5

     negative rho (up, down):  1.188E+00 1.189E+00

     total cpu time spent up to now is    17478.5 secs

     total energy              =   -4656.68561341 Ry
     estimated scf accuracy    <       0.00004921 Ry

     total magnetization       =     0.99 Bohr mag/cell
     absolute magnetization    =     1.01 Bohr mag/cell

     iteration # 55     ecut=   120.00 Ry     beta= 0.70
     Davidson diagonalization with overlap
     ethr =  4.26E-09,  avg # of iterations =  4.0

     negative rho (up, down):  1.188E+00 1.189E+00

     total cpu time spent up to now is    17797.6 secs

     total energy              =   -4656.68437700 Ry
     estimated scf accuracy    <       0.00008070 Ry

     total magnetization       =     0.99 Bohr mag/cell
     absolute magnetization    =     1.01 Bohr mag/cell

     iteration # 56     ecut=   120.00 Ry     beta= 0.70
     Davidson diagonalization with overlap
     ethr =  4.26E-09,  avg # of iterations =  5.0

     negative rho (up, down):  1.188E+00 1.188E+00

     total cpu time spent up to now is    18107.6 secs

     total energy              =   -4656.68754480 Ry
     estimated scf accuracy    <       0.00015043 Ry

     total magnetization       =     0.99 Bohr mag/cell
     absolute magnetization    =     1.01 Bohr mag/cell

     iteration # 57     ecut=   120.00 Ry     beta= 0.70
     Davidson diagonalization with overlap
     ethr =  4.26E-09,  avg # of iterations =  5.5

     negative rho (up, down):  1.188E+00 1.188E+00

     total cpu time spent up to now is    18423.8 secs

     total energy              =   -4656.69210257 Ry
     estimated scf accuracy    <       0.00005853 Ry

     total magnetization       =     0.99 Bohr mag/cell
     absolute magnetization    =     1.01 Bohr mag/cell

     iteration # 58     ecut=   120.00 Ry     beta= 0.70
     Davidson diagonalization with overlap
     ethr =  4.26E-09,  avg # of iterations =  5.0

     negative rho (up, down):  1.188E+00 1.188E+00

     total cpu time spent up to now is    18731.8 secs

     total energy              =   -4656.69291136 Ry
     estimated scf accuracy    <       0.00005425 Ry

     total magnetization       =     0.99 Bohr mag/cell
     absolute magnetization    =     1.01 Bohr mag/cell

     iteration # 59     ecut=   120.00 Ry     beta= 0.70
     Davidson diagonalization with overlap
     ethr =  4.26E-09,  avg # of iterations =  4.0

     negative rho (up, down):  1.188E+00 1.188E+00

     total cpu time spent up to now is    19037.1 secs

     total energy              =   -4656.69319062 Ry
     estimated scf accuracy    <       0.00005852 Ry

     total magnetization       =     0.99 Bohr mag/cell
     absolute magnetization    =     1.01 Bohr mag/cell

     iteration # 60     ecut=   120.00 Ry     beta= 0.70
     Davidson diagonalization with overlap
     ethr =  4.26E-09,  avg # of iterations =  4.0

     negative rho (up, down):  1.188E+00 1.188E+00

     total cpu time spent up to now is    19352.3 secs

     total energy              =   -4656.69130135 Ry
     estimated scf accuracy    <       0.00009962 Ry

     total magnetization       =     0.99 Bohr mag/cell
     absolute magnetization    =     1.01 Bohr mag/cell

     iteration # 61     ecut=   120.00 Ry     beta= 0.70
     Davidson diagonalization with overlap
     ethr =  4.26E-09,  avg # of iterations =  4.5

     negative rho (up, down):  1.188E+00 1.188E+00

     total cpu time spent up to now is    19659.8 secs

     total energy              =   -4656.68769336 Ry
     estimated scf accuracy    <       0.00004980 Ry

     total magnetization       =     0.99 Bohr mag/cell
     absolute magnetization    =     1.01 Bohr mag/cell

     iteration # 62     ecut=   120.00 Ry     beta= 0.70
     Davidson diagonalization with overlap
     ethr =  4.26E-09,  avg # of iterations =  4.0

     negative rho (up, down):  1.188E+00 1.188E+00

     total cpu time spent up to now is    19964.5 secs

     total energy              =   -4656.68541773 Ry
     estimated scf accuracy    <       0.00002732 Ry

     total magnetization       =     0.99 Bohr mag/cell
     absolute magnetization    =     1.01 Bohr mag/cell

     iteration # 63     ecut=   120.00 Ry     beta= 0.70
     Davidson diagonalization with overlap
     ethr =  4.26E-09,  avg # of iterations =  4.0

     negative rho (up, down):  1.188E+00 1.188E+00

     total cpu time spent up to now is    20267.2 secs

     total energy              =   -4656.68494792 Ry
     estimated scf accuracy    <       0.00000738 Ry

     total magnetization       =     0.99 Bohr mag/cell
     absolute magnetization    =     1.01 Bohr mag/cell

     iteration # 64     ecut=   120.00 Ry     beta= 0.70
     Davidson diagonalization with overlap
     ethr =  1.64E-09,  avg # of iterations =  5.0

     negative rho (up, down):  1.188E+00 1.188E+00

     total cpu time spent up to now is    20577.7 secs

     total energy              =   -4656.68998264 Ry
     estimated scf accuracy    <       0.00000500 Ry

     total magnetization       =     0.99 Bohr mag/cell
     absolute magnetization    =     1.01 Bohr mag/cell

     iteration # 65     ecut=   120.00 Ry     beta= 0.70
     Davidson diagonalization with overlap
     ethr =  1.11E-09,  avg # of iterations =  6.0

     negative rho (up, down):  1.188E+00 1.188E+00

     total cpu time spent up to now is    20888.6 secs

     total energy              =   -4656.69167137 Ry
     estimated scf accuracy    <       0.00000679 Ry

     total magnetization       =     0.99 Bohr mag/cell
     absolute magnetization    =     1.01 Bohr mag/cell

     iteration # 66     ecut=   120.00 Ry     beta= 0.70
     Davidson diagonalization with overlap
     ethr =  1.11E-09,  avg # of iterations =  4.5

     negative rho (up, down):  1.188E+00 1.188E+00

     total cpu time spent up to now is    21198.2 secs

     total energy              =   -4656.69222710 Ry
     estimated scf accuracy    <       0.00000650 Ry

     total magnetization       =     0.99 Bohr mag/cell
     absolute magnetization    =     1.01 Bohr mag/cell

     iteration # 67     ecut=   120.00 Ry     beta= 0.70
     Davidson diagonalization with overlap
     ethr =  1.11E-09,  avg # of iterations =  3.5

     negative rho (up, down):  1.188E+00 1.188E+00

     total cpu time spent up to now is    21499.0 secs

     total energy              =   -4656.69191796 Ry
     estimated scf accuracy    <       0.00000664 Ry

     total magnetization       =     0.99 Bohr mag/cell
     absolute magnetization    =     1.01 Bohr mag/cell

     iteration # 68     ecut=   120.00 Ry     beta= 0.70
     Davidson diagonalization with overlap
     ethr =  1.11E-09,  avg # of iterations =  3.0

     negative rho (up, down):  1.188E+00 1.188E+00

     total cpu time spent up to now is    21801.5 secs

     total energy              =   -4656.69470771 Ry
     estimated scf accuracy    <       0.00000690 Ry

     total magnetization       =     0.99 Bohr mag/cell
     absolute magnetization    =     1.01 Bohr mag/cell

     iteration # 69     ecut=   120.00 Ry     beta= 0.70
     Davidson diagonalization with overlap
     ethr =  1.11E-09,  avg # of iterations =  6.0

     negative rho (up, down):  1.188E+00 1.188E+00

     total cpu time spent up to now is    22110.9 secs

     total energy              =   -4656.69101249 Ry
     estimated scf accuracy    <       0.00001582 Ry

     total magnetization       =     0.99 Bohr mag/cell
     absolute magnetization    =     1.01 Bohr mag/cell

     iteration # 70     ecut=   120.00 Ry     beta= 0.70
     Davidson diagonalization with overlap
     ethr =  1.11E-09,  avg # of iterations =  5.5

     negative rho (up, down):  1.188E+00 1.188E+00

     total cpu time spent up to now is    22421.7 secs

     total energy              =   -4656.69025964 Ry
     estimated scf accuracy    <       0.00000541 Ry

     total magnetization       =     0.99 Bohr mag/cell
     absolute magnetization    =     1.01 Bohr mag/cell

     iteration # 71     ecut=   120.00 Ry     beta= 0.70
     Davidson diagonalization with overlap
     ethr =  1.11E-09,  avg # of iterations =  5.0

     negative rho (up, down):  1.188E+00 1.188E+00

     total cpu time spent up to now is    22726.9 secs

     total energy              =   -4656.68948799 Ry
     estimated scf accuracy    <       0.00000844 Ry

     total magnetization       =     0.99 Bohr mag/cell
     absolute magnetization    =     1.01 Bohr mag/cell

     iteration # 72     ecut=   120.00 Ry     beta= 0.70
     Davidson diagonalization with overlap
     ethr =  1.11E-09,  avg # of iterations =  3.5

     negative rho (up, down):  1.188E+00 1.188E+00

     total cpu time spent up to now is    23032.7 secs

     total energy              =   -4656.68968457 Ry
     estimated scf accuracy    <       0.00000512 Ry

     total magnetization       =     0.99 Bohr mag/cell
     absolute magnetization    =     1.01 Bohr mag/cell

     iteration # 73     ecut=   120.00 Ry     beta= 0.70
     Davidson diagonalization with overlap
     ethr =  1.11E-09,  avg # of iterations =  3.5

     negative rho (up, down):  1.188E+00 1.188E+00

     total cpu time spent up to now is    23334.0 secs

     total energy              =   -4656.69004897 Ry
     estimated scf accuracy    <       0.00000377 Ry

     total magnetization       =     0.99 Bohr mag/cell
     absolute magnetization    =     1.01 Bohr mag/cell

     iteration # 74     ecut=   120.00 Ry     beta= 0.70
     Davidson diagonalization with overlap
     ethr =  8.36E-10,  avg # of iterations =  4.0

     negative rho (up, down):  1.188E+00 1.188E+00

     total cpu time spent up to now is    23639.3 secs

     total energy              =   -4656.69115742 Ry
     estimated scf accuracy    <       0.00000271 Ry

     total magnetization       =     0.99 Bohr mag/cell
     absolute magnetization    =     1.01 Bohr mag/cell

     iteration # 75     ecut=   120.00 Ry     beta= 0.70
     Davidson diagonalization with overlap
     ethr =  6.01E-10,  avg # of iterations =  5.0

     negative rho (up, down):  1.188E+00 1.188E+00

     total cpu time spent up to now is    23948.2 secs

     total energy              =   -4656.68861836 Ry
     estimated scf accuracy    <       0.00000780 Ry

     total magnetization       =     0.99 Bohr mag/cell
     absolute magnetization    =     1.01 Bohr mag/cell

     iteration # 76     ecut=   120.00 Ry     beta= 0.70
     Davidson diagonalization with overlap
     ethr =  6.01E-10,  avg # of iterations =  6.0

     negative rho (up, down):  1.188E+00 1.188E+00

     total cpu time spent up to now is    24258.6 secs

     total energy              =   -4656.68725564 Ry
     estimated scf accuracy    <       0.00000321 Ry

     total magnetization       =     0.99 Bohr mag/cell
     absolute magnetization    =     1.01 Bohr mag/cell

     iteration # 77     ecut=   120.00 Ry     beta= 0.70
     Davidson diagonalization with overlap
     ethr =  6.01E-10,  avg # of iterations =  5.0

     negative rho (up, down):  1.188E+00 1.188E+00

     total cpu time spent up to now is    24567.9 secs

     total energy              =   -4656.68795529 Ry
     estimated scf accuracy    <       0.00000489 Ry

     total magnetization       =     0.99 Bohr mag/cell
     absolute magnetization    =     1.01 Bohr mag/cell

     iteration # 78     ecut=   120.00 Ry     beta= 0.70
     Davidson diagonalization with overlap
     ethr =  6.01E-10,  avg # of iterations =  4.0

     negative rho (up, down):  1.188E+00 1.188E+00

     total cpu time spent up to now is    24875.1 secs

     total energy              =   -4656.68773555 Ry
     estimated scf accuracy    <       0.00000439 Ry

     total magnetization       =     0.99 Bohr mag/cell
     absolute magnetization    =     1.01 Bohr mag/cell

     iteration # 79     ecut=   120.00 Ry     beta= 0.70
     Davidson diagonalization with overlap
     ethr =  6.01E-10,  avg # of iterations =  4.0

     negative rho (up, down):  1.188E+00 1.188E+00

     total cpu time spent up to now is    25180.1 secs

     total energy              =   -4656.68747322 Ry
     estimated scf accuracy    <       0.00000457 Ry

     total magnetization       =     0.99 Bohr mag/cell
     absolute magnetization    =     1.01 Bohr mag/cell

     iteration # 80     ecut=   120.00 Ry     beta= 0.70
     Davidson diagonalization with overlap
     ethr =  6.01E-10,  avg # of iterations =  3.5

     negative rho (up, down):  1.188E+00 1.188E+00

     total cpu time spent up to now is    25483.9 secs

     total energy              =   -4656.68862835 Ry
     estimated scf accuracy    <       0.00000417 Ry

     total magnetization       =     0.99 Bohr mag/cell
     absolute magnetization    =     1.01 Bohr mag/cell

     iteration # 81     ecut=   120.00 Ry     beta= 0.70
     Davidson diagonalization with overlap
     ethr =  6.01E-10,  avg # of iterations =  4.5

     negative rho (up, down):  1.188E+00 1.188E+00

     total cpu time spent up to now is    25789.1 secs

     total energy              =   -4656.68652232 Ry
     estimated scf accuracy    <       0.00000447 Ry

     total magnetization       =     0.99 Bohr mag/cell
     absolute magnetization    =     1.01 Bohr mag/cell

     iteration # 82     ecut=   120.00 Ry     beta= 0.70
     Davidson diagonalization with overlap
     ethr =  6.01E-10,  avg # of iterations =  5.0

     negative rho (up, down):  1.188E+00 1.188E+00

     total cpu time spent up to now is    26096.2 secs

     total energy              =   -4656.68636511 Ry
     estimated scf accuracy    <       0.00000543 Ry

     total magnetization       =     0.99 Bohr mag/cell
     absolute magnetization    =     1.01 Bohr mag/cell

     iteration # 83     ecut=   120.00 Ry     beta= 0.70
     Davidson diagonalization with overlap
     ethr =  6.01E-10,  avg # of iterations =  3.5

     negative rho (up, down):  1.188E+00 1.188E+00

     total cpu time spent up to now is    26399.7 secs

     total energy              =   -4656.68743822 Ry
     estimated scf accuracy    <       0.00000598 Ry

     total magnetization       =     0.99 Bohr mag/cell
     absolute magnetization    =     1.01 Bohr mag/cell

     iteration # 84     ecut=   120.00 Ry     beta= 0.70
     Davidson diagonalization with overlap
     ethr =  6.01E-10,  avg # of iterations =  4.5

     negative rho (up, down):  1.188E+00 1.188E+00

     total cpu time spent up to now is    26708.9 secs

     total energy              =   -4656.68740711 Ry
     estimated scf accuracy    <       0.00000725 Ry

     total magnetization       =     0.99 Bohr mag/cell
     absolute magnetization    =     1.01 Bohr mag/cell

     iteration # 85     ecut=   120.00 Ry     beta= 0.70
     Davidson diagonalization with overlap
     ethr =  6.01E-10,  avg # of iterations =  4.0

     negative rho (up, down):  1.188E+00 1.188E+00

     total cpu time spent up to now is    27013.4 secs

     total energy              =   -4656.68566297 Ry
     estimated scf accuracy    <       0.00000502 Ry

     total magnetization       =     0.99 Bohr mag/cell
     absolute magnetization    =     1.01 Bohr mag/cell

     iteration # 86     ecut=   120.00 Ry     beta= 0.70
     Davidson diagonalization with overlap
     ethr =  6.01E-10,  avg # of iterations =  5.5

     negative rho (up, down):  1.188E+00 1.188E+00

     total cpu time spent up to now is    27320.1 secs

     total energy              =   -4656.68564494 Ry
     estimated scf accuracy    <       0.00000869 Ry

     total magnetization       =     0.99 Bohr mag/cell
     absolute magnetization    =     1.01 Bohr mag/cell

     iteration # 87     ecut=   120.00 Ry     beta= 0.70
     Davidson diagonalization with overlap
     ethr =  6.01E-10,  avg # of iterations =  4.0

     negative rho (up, down):  1.188E+00 1.188E+00

     total cpu time spent up to now is    27626.4 secs

     total energy              =   -4656.68717969 Ry
     estimated scf accuracy    <       0.00000810 Ry

     total magnetization       =     0.99 Bohr mag/cell
     absolute magnetization    =     1.01 Bohr mag/cell

     iteration # 88     ecut=   120.00 Ry     beta= 0.70
     Davidson diagonalization with overlap
     ethr =  6.01E-10,  avg # of iterations =  5.5

     negative rho (up, down):  1.188E+00 1.188E+00

     total cpu time spent up to now is    27936.6 secs

     total energy              =   -4656.68512308 Ry
     estimated scf accuracy    <       0.00000922 Ry

     total magnetization       =     0.99 Bohr mag/cell
     absolute magnetization    =     1.01 Bohr mag/cell

     iteration # 89     ecut=   120.00 Ry     beta= 0.70
     Davidson diagonalization with overlap
     ethr =  6.01E-10,  avg # of iterations =  5.5

     negative rho (up, down):  1.188E+00 1.188E+00

     total cpu time spent up to now is    28254.8 secs

     total energy              =   -4656.68615684 Ry
     estimated scf accuracy    <       0.00000988 Ry

     total magnetization       =     0.99 Bohr mag/cell
     absolute magnetization    =     1.01 Bohr mag/cell

     iteration # 90     ecut=   120.00 Ry     beta= 0.70
     Davidson diagonalization with overlap
     ethr =  6.01E-10,  avg # of iterations =  5.5

     negative rho (up, down):  1.188E+00 1.188E+00

     total cpu time spent up to now is    28564.2 secs

     total energy              =   -4656.68766774 Ry
     estimated scf accuracy    <       0.00000738 Ry

     total magnetization       =     0.99 Bohr mag/cell
     absolute magnetization    =     1.01 Bohr mag/cell

     iteration # 91     ecut=   120.00 Ry     beta= 0.70
     Davidson diagonalization with overlap
     ethr =  6.01E-10,  avg # of iterations =  4.5

     negative rho (up, down):  1.188E+00 1.188E+00

     total cpu time spent up to now is    28869.1 secs

     total energy              =   -4656.68769859 Ry
     estimated scf accuracy    <       0.00000578 Ry

     total magnetization       =     0.99 Bohr mag/cell
     absolute magnetization    =     1.01 Bohr mag/cell

     iteration # 92     ecut=   120.00 Ry     beta= 0.70
     Davidson diagonalization with overlap
     ethr =  6.01E-10,  avg # of iterations =  5.0

     negative rho (up, down):  1.188E+00 1.188E+00

     total cpu time spent up to now is    29177.8 secs

     total energy              =   -4656.68892159 Ry
     estimated scf accuracy    <       0.00000682 Ry

     total magnetization       =     0.99 Bohr mag/cell
     absolute magnetization    =     1.01 Bohr mag/cell

     iteration # 93     ecut=   120.00 Ry     beta= 0.70
     Davidson diagonalization with overlap
     ethr =  6.01E-10,  avg # of iterations =  5.0

     negative rho (up, down):  1.188E+00 1.188E+00

     total cpu time spent up to now is    29484.6 secs

     total energy              =   -4656.69000075 Ry
     estimated scf accuracy    <       0.00000682 Ry

     total magnetization       =     0.99 Bohr mag/cell
     absolute magnetization    =     1.01 Bohr mag/cell

     iteration # 94     ecut=   120.00 Ry     beta= 0.70
     Davidson diagonalization with overlap
     ethr =  6.01E-10,  avg # of iterations =  5.0

     negative rho (up, down):  1.188E+00 1.188E+00

     total cpu time spent up to now is    29793.8 secs

     total energy              =   -4656.68757308 Ry
     estimated scf accuracy    <       0.00001014 Ry

     total magnetization       =     0.99 Bohr mag/cell
     absolute magnetization    =     1.01 Bohr mag/cell

     iteration # 95     ecut=   120.00 Ry     beta= 0.70
     Davidson diagonalization with overlap
     ethr =  6.01E-10,  avg # of iterations =  6.0

     negative rho (up, down):  1.188E+00 1.188E+00

     total cpu time spent up to now is    30106.4 secs

     total energy              =   -4656.68870801 Ry
     estimated scf accuracy    <       0.00000823 Ry

     total magnetization       =     0.99 Bohr mag/cell
     absolute magnetization    =     1.01 Bohr mag/cell

     iteration # 96     ecut=   120.00 Ry     beta= 0.70
     Davidson diagonalization with overlap
     ethr =  6.01E-10,  avg # of iterations =  4.5

     negative rho (up, down):  1.188E+00 1.188E+00

     total cpu time spent up to now is    30489.2 secs

     total energy              =   -4656.69193414 Ry
     estimated scf accuracy    <       0.00000547 Ry

     total magnetization       =     0.99 Bohr mag/cell
     absolute magnetization    =     1.01 Bohr mag/cell

     iteration # 97     ecut=   120.00 Ry     beta= 0.70
     Davidson diagonalization with overlap
     ethr =  6.01E-10,  avg # of iterations =  6.0

     negative rho (up, down):  1.188E+00 1.188E+00

     total cpu time spent up to now is    30839.8 secs

     total energy              =   -4656.69123835 Ry
     estimated scf accuracy    <       0.00000613 Ry

     total magnetization       =     0.99 Bohr mag/cell
     absolute magnetization    =     1.01 Bohr mag/cell

     iteration # 98     ecut=   120.00 Ry     beta= 0.70
     Davidson diagonalization with overlap
     ethr =  6.01E-10,  avg # of iterations =  4.0

     negative rho (up, down):  1.188E+00 1.188E+00

     total cpu time spent up to now is    31142.3 secs

     total energy              =   -4656.69175142 Ry
     estimated scf accuracy    <       0.00000489 Ry

     total magnetization       =     0.99 Bohr mag/cell
     absolute magnetization    =     1.01 Bohr mag/cell

     iteration # 99     ecut=   120.00 Ry     beta= 0.70
     Davidson diagonalization with overlap
     ethr =  6.01E-10,  avg # of iterations =  4.5

     negative rho (up, down):  1.188E+00 1.188E+00

     total cpu time spent up to now is    31449.1 secs

     total energy              =   -4656.69320669 Ry
     estimated scf accuracy    <       0.00000390 Ry

     total magnetization       =     0.99 Bohr mag/cell
     absolute magnetization    =     1.01 Bohr mag/cell

     iteration #100     ecut=   120.00 Ry     beta= 0.70
     Davidson diagonalization with overlap
     ethr =  6.01E-10,  avg # of iterations =  5.0

     negative rho (up, down):  1.188E+00 1.188E+00

     total cpu time spent up to now is    31757.4 secs

     total energy              =   -4656.69549269 Ry
     estimated scf accuracy    <       0.00000463 Ry

     total magnetization       =     0.99 Bohr mag/cell
     absolute magnetization    =     1.01 Bohr mag/cell

     End of self-consistent calculation

     convergence NOT achieved after 100 iterations: stopping

     Writing config to output data dir ./pwscf.save/

     init_run     :    198.41s CPU    201.92s WALL (       1 calls)
     electrons    :  31272.05s CPU  31555.31s WALL (       1 calls)

     Called by init_run:
     wfcinit      :    175.70s CPU    176.90s WALL (       1 calls)
     potinit      :      3.42s CPU      3.61s WALL (       1 calls)
     hinit0       :      4.75s CPU      4.86s WALL (       1 calls)

     Called by electrons:
     c_bands      :  25317.91s CPU  25428.12s WALL (     100 calls)
     sum_band     :   4528.64s CPU   4624.18s WALL (     100 calls)
     v_of_rho     :     60.71s CPU     62.48s WALL (     101 calls)
     newd         :   1355.70s CPU   1432.78s WALL (     101 calls)
     mix_rho      :     21.67s CPU     21.96s WALL (     100 calls)

     Called by c_bands:
     init_us_2    :     31.14s CPU     31.27s WALL (     402 calls)
     init_us_2:cp :     31.14s CPU     31.26s WALL (     402 calls)
     cegterg      :  25128.16s CPU  25238.04s WALL (     200 calls)

     Called by *egterg:
     cdiaghg      :    175.34s CPU    178.01s WALL (    1252 calls)
     h_psi        :  10418.41s CPU  10493.66s WALL (    1254 calls)
     s_psi        :   4126.73s CPU   4129.96s WALL (    1254 calls)
     g_psi        :      5.76s CPU      5.77s WALL (    1052 calls)

     Called by h_psi:
     h_psi:calbec :   4546.35s CPU   4550.68s WALL (    1254 calls)
     vloc_psi     :   1719.78s CPU   1776.94s WALL (    1254 calls)
     add_vuspsi   :   4144.42s CPU   4147.64s WALL (    1254 calls)

     General routines
     calbec       :   6703.65s CPU   6709.85s WALL (    1454 calls)
     fft          :     64.39s CPU     66.70s WALL (    2121 calls)
     ffts         :      2.67s CPU      2.88s WALL (     200 calls)
     fftw         :   1719.94s CPU   1774.96s WALL (  281800 calls)
     davcio       :      0.01s CPU      0.87s WALL (      20 calls)

     Parallel routines

     PWSCF        :      8h44m CPU      8h49m WALL


   This run was terminated on:  11: 7:41  30May2023            

=------------------------------------------------------------------------------=
   JOB DONE.
=------------------------------------------------------------------------------=
