
     Program PWSCF v.7.2 starts on  4May2023 at 20:49:24 

     This program is part of the open-source Quantum ESPRESSO suite
     for quantum simulation of materials; please cite
         "P. Giannozzi et al., J. Phys.:Condens. Matter 21 395502 (2009);
         "P. Giannozzi et al., J. Phys.:Condens. Matter 29 465901 (2017);
         "P. Giannozzi et al., J. Chem. Phys. 152 154105 (2020);
          URL http://www.quantum-espresso.org", 
     in publications or presentations arising from this work. More details at
     http://www.quantum-espresso.org/quote

     Parallel version (MPI), running on    12 processors

     MPI processes distributed on     1 nodes
     67490 MiB available memory on the printing compute node when the environment starts

     Reading input from ta_cell.in
Warning: card &CELL ignored
Warning: card / ignored

     Current dimensions of program PWSCF are:
     Max number of different atomic species (ntypx) = 10
     Max number of k-points (npk) =  40000
     Max angular momentum in pseudopotentials (lmaxx) =  4
     Found identity + (  0.2500  0.0000  0.0000) symmetry
     This is a supercell, fractional translations are disabled
     Message from routine setup:
     using ibrav=0 with symmetry is DISCOURAGED, use correct ibrav instead

     R & G space division:  proc/nbgrp/npool/nimage =      12
     Subspace diagonalization in iterative solution of the eigenvalue problem:
     one sub-group per band group will be used
     custom distributed-memory algorithm (size of sub-group:  3*  3 procs)


     Parallelization info
     --------------------
     sticks:   dense  smooth     PW     G-vecs:    dense   smooth      PW
     Min         351     351     87                13907    13907    1735
     Max         352     352     89                13910    13910    1736
     Sum        4215    4215   1051               166889   166889   20823

     Using Slab Decomposition



     bravais-lattice index     =            0
     lattice parameter (alat)  =      24.9882  a.u.
     unit-cell volume          =    7519.8255 (a.u.)^3
     number of atoms/cell      =           64
     number of atomic types    =            1
     number of electrons       =       832.00
     number of Kohn-Sham states=          499
     kinetic-energy cutoff     =      30.0000  Ry
     charge density cutoff     =     120.0000  Ry
     scf convergence threshold =      1.0E-08
     mixing beta               =       0.7000
     number of iterations used =            8  plain     mixing
     energy convergence thresh.=      1.0E-05
     force convergence thresh. =      1.0E-04
     Exchange-correlation= SLA  PW   PBE  PBE
                           (   1   4   3   4   0   0   0)
     nstep                     =           50


     celldm(1)=  24.988226  celldm(2)=   0.000000  celldm(3)=   0.000000
     celldm(4)=   0.000000  celldm(5)=   0.000000  celldm(6)=   0.000000

     crystal axes: (cart. coord. in units of alat)
               a(1) = (   1.000000   0.000000   0.000000 )  
               a(2) = (   0.500000   0.707107   0.000000 )  
               a(3) = (   0.000000   0.000000   0.681579 )  

     reciprocal axes: (cart. coord. in units 2 pi/alat)
               b(1) = (  1.000000 -0.707107  0.000000 )  
               b(2) = (  0.000000  1.414214  0.000000 )  
               b(3) = (  0.000000  0.000000  1.467180 )  


     PseudoPot. # 1 for Ta read from file:
     q-e/pseudo/ta_pbe_v1.uspp.F.UPF
     MD5 check sum: f8bbe9446314a3b8ea5d9f3e3836c939
     Pseudo is Ultrasoft + core correction, Zval = 13.0
     Generated by new atomic code, or converted to UPF format
     Using radial grid of  921 points,  7 beta functions with: 
                l(1) =   0
                l(2) =   0
                l(3) =   1
                l(4) =   1
                l(5) =   2
                l(6) =   2
                l(7) =   3
     Q(r) pseudized with  6 coefficients,  rinner =    1.300   1.300   1.300
                                                       1.300   1.300   1.300
                                                       1.300

     atomic species   valence    mass     pseudopotential
        Ta            13.00   180.94788     Ta( 1.00)

      4 Sym. Ops. (no inversion) found



   Cartesian axes

     site n.     atom                  positions (alat units)
         1           Ta  tau(   1) = (   0.0000000   0.1767767   0.0756247  )
         2           Ta  tau(   2) = (   0.2500000   0.1767767   0.0756247  )
         3           Ta  tau(   3) = (   0.5000000   0.1767767   0.0756247  )
         4           Ta  tau(   4) = (   0.7500000   0.1767767   0.0756247  )
         5           Ta  tau(   5) = (   0.1250000   0.3535534   0.0756247  )
         6           Ta  tau(   6) = (   0.3750000   0.3535534   0.0756247  )
         7           Ta  tau(   7) = (   0.6250000   0.3535534   0.0756247  )
         8           Ta  tau(   8) = (   0.8750000   0.3535534   0.0756247  )
         9           Ta  tau(   9) = (   0.2500000   0.5303301   0.0756247  )
        10           Ta  tau(  10) = (   0.5000000   0.5303301   0.0756247  )
        11           Ta  tau(  11) = (   0.7500000   0.5303301   0.0756247  )
        12           Ta  tau(  12) = (   1.0000000   0.5303301   0.0756247  )
        13           Ta  tau(  13) = (   0.3750000   0.7071068   0.0756247  )
        14           Ta  tau(  14) = (   0.6250000   0.7071068   0.0756247  )
        15           Ta  tau(  15) = (   0.8750000   0.7071068   0.0756247  )
        16           Ta  tau(  16) = (   1.1250000   0.7071068   0.0756247  )
        17           Ta  tau(  17) = (   0.0000000   0.0000000   0.2524014  )
        18           Ta  tau(  18) = (   0.2500000   0.0000000   0.2524014  )
        19           Ta  tau(  19) = (   0.5000000   0.0000000   0.2524014  )
        20           Ta  tau(  20) = (   0.7500000   0.0000000   0.2524014  )
        21           Ta  tau(  21) = (   0.1250000   0.1767767   0.2524014  )
        22           Ta  tau(  22) = (   0.3750000   0.1767767   0.2524014  )
        23           Ta  tau(  23) = (   0.6250000   0.1767767   0.2524014  )
        24           Ta  tau(  24) = (   0.8750000   0.1767767   0.2524014  )
        25           Ta  tau(  25) = (   0.2500000   0.3535534   0.2524014  )
        26           Ta  tau(  26) = (   0.5000000   0.3535534   0.2524014  )
        27           Ta  tau(  27) = (   0.7500000   0.3535534   0.2524014  )
        28           Ta  tau(  28) = (   1.0000000   0.3535534   0.2524014  )
        29           Ta  tau(  29) = (   0.3750000   0.5303301   0.2524014  )
        30           Ta  tau(  30) = (   0.6250000   0.5303301   0.2524014  )
        31           Ta  tau(  31) = (   0.8750000   0.5303301   0.2524014  )
        32           Ta  tau(  32) = (   1.1250000   0.5303301   0.2524014  )
        33           Ta  tau(  33) = (   0.0000000   0.1767767   0.4291781  )
        34           Ta  tau(  34) = (   0.2500000   0.1767767   0.4291781  )
        35           Ta  tau(  35) = (   0.5000000   0.1767767   0.4291781  )
        36           Ta  tau(  36) = (   0.7500000   0.1767767   0.4291781  )
        37           Ta  tau(  37) = (   0.1250000   0.3535534   0.4291781  )
        38           Ta  tau(  38) = (   0.3750000   0.3535534   0.4291781  )
        39           Ta  tau(  39) = (   0.6250000   0.3535534   0.4291781  )
        40           Ta  tau(  40) = (   0.8750000   0.3535534   0.4291781  )
        41           Ta  tau(  41) = (   0.2500000   0.5303301   0.4291781  )
        42           Ta  tau(  42) = (   0.5000000   0.5303301   0.4291781  )
        43           Ta  tau(  43) = (   0.7500000   0.5303301   0.4291781  )
        44           Ta  tau(  44) = (   1.0000000   0.5303301   0.4291781  )
        45           Ta  tau(  45) = (   0.3750000   0.7071068   0.4291781  )
        46           Ta  tau(  46) = (   0.6250000   0.7071068   0.4291781  )
        47           Ta  tau(  47) = (   0.8750000   0.7071068   0.4291781  )
        48           Ta  tau(  48) = (   1.1250000   0.7071068   0.4291781  )
        49           Ta  tau(  49) = (   0.0000000   0.0000000   0.6059547  )
        50           Ta  tau(  50) = (   0.2500000   0.0000000   0.6059547  )
        51           Ta  tau(  51) = (   0.5000000   0.0000000   0.6059547  )
        52           Ta  tau(  52) = (   0.7500000   0.0000000   0.6059547  )
        53           Ta  tau(  53) = (   0.1250000   0.1767767   0.6059547  )
        54           Ta  tau(  54) = (   0.3750000   0.1767767   0.6059547  )
        55           Ta  tau(  55) = (   0.6250000   0.1767767   0.6059547  )
        56           Ta  tau(  56) = (   0.8750000   0.1767767   0.6059547  )
        57           Ta  tau(  57) = (   0.2500000   0.3535534   0.6059547  )
        58           Ta  tau(  58) = (   0.5000000   0.3535534   0.6059547  )
        59           Ta  tau(  59) = (   0.7500000   0.3535534   0.6059547  )
        60           Ta  tau(  60) = (   1.0000000   0.3535534   0.6059547  )
        61           Ta  tau(  61) = (   0.3750000   0.5303301   0.6059547  )
        62           Ta  tau(  62) = (   0.6250000   0.5303301   0.6059547  )
        63           Ta  tau(  63) = (   0.8750000   0.5303301   0.6059547  )
        64           Ta  tau(  64) = (   1.1250000   0.5303301   0.6059547  )

     number of k points=     1  Gaussian smearing, width (Ry)=  0.0100
                       cart. coord. in units 2pi/alat
        k(    1) = (   0.0000000   0.0000000   0.0000000), wk =   2.0000000

     Dense  grid:   166889 G-vectors     FFT dimensions: (  90,  75,  60)

     Estimated max dynamical RAM per process >     181.03 MB

     Estimated total dynamical RAM >       2.12 GB

     Initial potential from superposition of free atoms

     starting charge     831.9288, renormalised to     832.0000

     negative rho (up, down):  5.990E+00 0.000E+00
     Starting wfcs are  832 randomized atomic wfcs

     total cpu time spent up to now is       37.2 secs

     Self-consistent Calculation

     iteration #  1     ecut=    30.00 Ry     beta= 0.70
     Davidson diagonalization with overlap
     ethr =  1.00E-02,  avg # of iterations =  2.0

     Threshold (ethr) on eigenvalues was too large:
     Diagonalizing with lowered threshold

     Davidson diagonalization with overlap
     ethr =  4.51E-04,  avg # of iterations =  2.0

     negative rho (up, down):  6.008E+00 0.000E+00

     total cpu time spent up to now is      154.0 secs

     total energy              =   -9077.45453357 Ry
     estimated scf accuracy    <       3.97100651 Ry

     iteration #  2     ecut=    30.00 Ry     beta= 0.70
     Davidson diagonalization with overlap
     ethr =  4.77E-04,  avg # of iterations = 13.0

     negative rho (up, down):  6.010E+00 0.000E+00

     total cpu time spent up to now is      303.2 secs

     total energy              =   -9055.30150574 Ry
     estimated scf accuracy    <     458.39520699 Ry

     iteration #  3     ecut=    30.00 Ry     beta= 0.70
     Davidson diagonalization with overlap
     ethr =  4.77E-04,  avg # of iterations =  7.0

     negative rho (up, down):  6.042E+00 0.000E+00

     total cpu time spent up to now is      442.1 secs

     total energy              =   -9079.72107845 Ry
     estimated scf accuracy    <       1.96542788 Ry

     iteration #  4     ecut=    30.00 Ry     beta= 0.70
     Davidson diagonalization with overlap
     ethr =  2.36E-04,  avg # of iterations =  2.0

     negative rho (up, down):  6.054E+00 0.000E+00

     total cpu time spent up to now is      508.1 secs

     total energy              =   -9079.81583684 Ry
     estimated scf accuracy    <       0.13727255 Ry

     iteration #  5     ecut=    30.00 Ry     beta= 0.70
     Davidson diagonalization with overlap
     ethr =  1.65E-05,  avg # of iterations =  8.0

     negative rho (up, down):  6.064E+00 0.000E+00

     total cpu time spent up to now is      587.5 secs

     total energy              =   -9079.83430134 Ry
     estimated scf accuracy    <       0.01124271 Ry

     iteration #  6     ecut=    30.00 Ry     beta= 0.70
     Davidson diagonalization with overlap
     c_bands:  2 eigenvalues not converged
     ethr =  1.35E-06,  avg # of iterations = 20.0

     negative rho (up, down):  6.068E+00 0.000E+00

     total cpu time spent up to now is      694.1 secs

     total energy              =   -9079.81995704 Ry
     estimated scf accuracy    <       0.40317473 Ry

     iteration #  7     ecut=    30.00 Ry     beta= 0.70
     Davidson diagonalization with overlap
     ethr =  1.35E-06,  avg # of iterations = 12.0

     negative rho (up, down):  6.069E+00 0.000E+00

     total cpu time spent up to now is      792.4 secs

     total energy              =   -9079.83332757 Ry
     estimated scf accuracy    <       0.08695108 Ry

     iteration #  8     ecut=    30.00 Ry     beta= 0.70
     Davidson diagonalization with overlap
     ethr =  1.35E-06,  avg # of iterations =  6.0

     negative rho (up, down):  6.069E+00 0.000E+00

     total cpu time spent up to now is      856.7 secs

     total energy              =   -9079.83664263 Ry
     estimated scf accuracy    <       0.01245308 Ry

     iteration #  9     ecut=    30.00 Ry     beta= 0.70
     Davidson diagonalization with overlap
     ethr =  1.35E-06,  avg # of iterations =  2.0

     negative rho (up, down):  6.070E+00 0.000E+00

     total cpu time spent up to now is      911.0 secs

     total energy              =   -9079.83719595 Ry
     estimated scf accuracy    <       0.00785766 Ry

     iteration # 10     ecut=    30.00 Ry     beta= 0.70
     Davidson diagonalization with overlap
     ethr =  9.44E-07,  avg # of iterations =  2.0

     negative rho (up, down):  6.071E+00 0.000E+00

     total cpu time spent up to now is      962.2 secs

     total energy              =   -9079.83729521 Ry
     estimated scf accuracy    <       0.00635338 Ry

     iteration # 11     ecut=    30.00 Ry     beta= 0.70
     Davidson diagonalization with overlap
     ethr =  7.64E-07,  avg # of iterations =  1.0

     negative rho (up, down):  6.070E+00 0.000E+00

     total cpu time spent up to now is     1012.5 secs

     total energy              =   -9079.83763482 Ry
     estimated scf accuracy    <       0.00101909 Ry

     iteration # 12     ecut=    30.00 Ry     beta= 0.70
     Davidson diagonalization with overlap
     ethr =  1.22E-07,  avg # of iterations =  2.0

     negative rho (up, down):  6.071E+00 0.000E+00

     total cpu time spent up to now is     1066.8 secs

     total energy              =   -9079.83772707 Ry
     estimated scf accuracy    <       0.00012366 Ry

     iteration # 13     ecut=    30.00 Ry     beta= 0.70
     Davidson diagonalization with overlap
     ethr =  1.49E-08,  avg # of iterations =  4.0

     negative rho (up, down):  6.071E+00 0.000E+00

     total cpu time spent up to now is     1135.0 secs

     total energy              =   -9079.83768915 Ry
     estimated scf accuracy    <       0.00089129 Ry

     iteration # 14     ecut=    30.00 Ry     beta= 0.70
     Davidson diagonalization with overlap
     ethr =  1.49E-08,  avg # of iterations =  4.0

     negative rho (up, down):  6.071E+00 0.000E+00

     total cpu time spent up to now is     1206.2 secs

     total energy              =   -9079.83775381 Ry
     estimated scf accuracy    <       0.00002689 Ry

     iteration # 15     ecut=    30.00 Ry     beta= 0.70
     Davidson diagonalization with overlap
     ethr =  3.23E-09,  avg # of iterations =  3.0

     negative rho (up, down):  6.071E+00 0.000E+00

     total cpu time spent up to now is     1267.4 secs

     total energy              =   -9079.83775742 Ry
     estimated scf accuracy    <       0.00000621 Ry

     iteration # 16     ecut=    30.00 Ry     beta= 0.70
     Davidson diagonalization with overlap
     ethr =  7.47E-10,  avg # of iterations =  3.0

     negative rho (up, down):  6.071E+00 0.000E+00

     total cpu time spent up to now is     1328.7 secs

     total energy              =   -9079.83775714 Ry
     estimated scf accuracy    <       0.00000764 Ry

     iteration # 17     ecut=    30.00 Ry     beta= 0.70
     Davidson diagonalization with overlap
     ethr =  7.47E-10,  avg # of iterations =  4.0

     negative rho (up, down):  6.071E+00 0.000E+00

     total cpu time spent up to now is     1392.1 secs

     total energy              =   -9079.83775512 Ry
     estimated scf accuracy    <       0.00009210 Ry

     iteration # 18     ecut=    30.00 Ry     beta= 0.70
     Davidson diagonalization with overlap
     ethr =  7.47E-10,  avg # of iterations =  3.0

     negative rho (up, down):  6.071E+00 0.000E+00

     total cpu time spent up to now is     1451.4 secs

     total energy              =   -9079.83775792 Ry
     estimated scf accuracy    <       0.00000366 Ry

     iteration # 19     ecut=    30.00 Ry     beta= 0.70
     Davidson diagonalization with overlap
     ethr =  4.40E-10,  avg # of iterations =  3.0

     negative rho (up, down):  6.071E+00 0.000E+00

     total cpu time spent up to now is     1503.4 secs

     total energy              =   -9079.83775748 Ry
     estimated scf accuracy    <       0.00000501 Ry

     iteration # 20     ecut=    30.00 Ry     beta= 0.70
     Davidson diagonalization with overlap
     ethr =  4.40E-10,  avg # of iterations =  4.0

     negative rho (up, down):  6.071E+00 0.000E+00

     total cpu time spent up to now is     1566.9 secs

     total energy              =   -9079.83775437 Ry
     estimated scf accuracy    <       0.00008537 Ry

     iteration # 21     ecut=    30.00 Ry     beta= 0.70
     Davidson diagonalization with overlap
     ethr =  4.40E-10,  avg # of iterations =  4.0

     negative rho (up, down):  6.071E+00 0.000E+00

     total cpu time spent up to now is     1627.3 secs

     total energy              =   -9079.83775783 Ry
     estimated scf accuracy    <       0.00000798 Ry

     iteration # 22     ecut=    30.00 Ry     beta= 0.70
     Davidson diagonalization with overlap
     ethr =  4.40E-10,  avg # of iterations =  2.0

     negative rho (up, down):  6.071E+00 0.000E+00

     total cpu time spent up to now is     1677.1 secs

     total energy              =   -9079.83775818 Ry
     estimated scf accuracy    <       0.00000061 Ry

     iteration # 23     ecut=    30.00 Ry     beta= 0.70
     Davidson diagonalization with overlap
     ethr =  7.34E-11,  avg # of iterations =  4.0

     negative rho (up, down):  6.071E+00 0.000E+00

     total cpu time spent up to now is     1733.5 secs

     total energy              =   -9079.83775810 Ry
     estimated scf accuracy    <       0.00000201 Ry

     iteration # 24     ecut=    30.00 Ry     beta= 0.70
     Davidson diagonalization with overlap
     ethr =  7.34E-11,  avg # of iterations =  4.0

     negative rho (up, down):  6.071E+00 0.000E+00

     total cpu time spent up to now is     1790.4 secs

     total energy              =   -9079.83775819 Ry
     estimated scf accuracy    <       0.00000106 Ry

     iteration # 25     ecut=    30.00 Ry     beta= 0.70
     Davidson diagonalization with overlap
     ethr =  7.34E-11,  avg # of iterations =  2.0

     negative rho (up, down):  6.071E+00 0.000E+00

     total cpu time spent up to now is     1840.9 secs

     total energy              =   -9079.83775826 Ry
     estimated scf accuracy    <       0.00000016 Ry

     iteration # 26     ecut=    30.00 Ry     beta= 0.70
     Davidson diagonalization with overlap
     ethr =  1.91E-11,  avg # of iterations =  4.0

     negative rho (up, down):  6.071E+00 0.000E+00

     total cpu time spent up to now is     1896.7 secs

     total energy              =   -9079.83775824 Ry
     estimated scf accuracy    <       0.00000057 Ry

     iteration # 27     ecut=    30.00 Ry     beta= 0.70
     Davidson diagonalization with overlap
     ethr =  1.91E-11,  avg # of iterations =  4.0

     negative rho (up, down):  6.071E+00 0.000E+00

     total cpu time spent up to now is     1950.9 secs

     total energy              =   -9079.83775822 Ry
     estimated scf accuracy    <       0.00000163 Ry

     iteration # 28     ecut=    30.00 Ry     beta= 0.70
     Davidson diagonalization with overlap
     ethr =  1.91E-11,  avg # of iterations =  4.0

     negative rho (up, down):  6.071E+00 0.000E+00

     total cpu time spent up to now is     2004.6 secs

     total energy              =   -9079.83775825 Ry
     estimated scf accuracy    <       0.00000043 Ry

     iteration # 29     ecut=    30.00 Ry     beta= 0.70
     Davidson diagonalization with overlap
     ethr =  1.91E-11,  avg # of iterations =  4.0

     negative rho (up, down):  6.071E+00 0.000E+00

     total cpu time spent up to now is     2057.9 secs

     total energy              =   -9079.83775827 Ry
     estimated scf accuracy    <       0.00000023 Ry

     iteration # 30     ecut=    30.00 Ry     beta= 0.70
     Davidson diagonalization with overlap
     ethr =  1.91E-11,  avg # of iterations =  2.0

     negative rho (up, down):  6.071E+00 0.000E+00

     total cpu time spent up to now is     2104.9 secs

     total energy              =   -9079.83775828 Ry
     estimated scf accuracy    <       0.00000003 Ry

     iteration # 31     ecut=    30.00 Ry     beta= 0.70
     Davidson diagonalization with overlap
     ethr =  3.86E-12,  avg # of iterations =  5.0

     negative rho (up, down):  6.071E+00 0.000E+00

     total cpu time spent up to now is     2168.7 secs

     total energy              =   -9079.83775826 Ry
     estimated scf accuracy    <       0.00000057 Ry

     iteration # 32     ecut=    30.00 Ry     beta= 0.70
     Davidson diagonalization with overlap
     ethr =  3.86E-12,  avg # of iterations =  5.0

     negative rho (up, down):  6.071E+00 0.000E+00

     total cpu time spent up to now is     2241.1 secs

     total energy              =   -9079.83775827 Ry
     estimated scf accuracy    <       0.00000039 Ry

     iteration # 33     ecut=    30.00 Ry     beta= 0.70
     Davidson diagonalization with overlap
     ethr =  3.86E-12,  avg # of iterations =  4.0

     negative rho (up, down):  6.071E+00 0.000E+00

     total cpu time spent up to now is     2303.3 secs

     total energy              =   -9079.83775829 Ry
     estimated scf accuracy    <       0.00000003 Ry

     iteration # 34     ecut=    30.00 Ry     beta= 0.70
     Davidson diagonalization with overlap
     ethr =  3.85E-12,  avg # of iterations =  2.0

     negative rho (up, down):  6.071E+00 0.000E+00

     total cpu time spent up to now is     2353.7 secs

     End of self-consistent calculation

          k = 0.0000 0.0000 0.0000 ( 20823 PWs)   bands (ev):

   -47.7736 -47.7327 -47.7327 -47.7327 -47.7327 -47.7182 -47.7182 -47.7127
   -47.6905 -47.6905 -47.6905 -47.6905 -47.6842 -47.6842 -47.6800 -47.6800
   -47.6800 -47.6800 -47.6765 -47.6765 -47.6755 -47.6755 -47.6754 -47.6754
   -47.6657 -47.6657 -47.6653 -47.6626 -47.6450 -47.6450 -47.6450 -47.6450
   -47.6189 -47.6139 -47.6139 -47.6138 -47.6138 -47.6065 -47.6065 -47.5495
   -47.5495 -47.5495 -47.5495 -47.5467 -47.5334 -47.5334 -47.5225 -47.5225
   -47.5225 -47.5225 -47.5120 -47.5120 -47.4857 -47.4845 -47.4845 -47.4845
   -47.4845 -47.4492 -47.4492 -47.4492 -47.4492 -47.4457 -47.4457 -47.4057
   -14.9909 -14.9909 -14.9909 -14.9909 -14.9891 -14.9200 -14.8309 -14.8309
   -14.8166 -14.8166 -14.8166 -14.8166 -14.8069 -14.8069 -14.7947 -14.7947
   -14.7947 -14.7947 -14.7881 -14.7881 -14.7881 -14.7881 -14.7878 -14.7878
   -14.7368 -14.6716 -14.6716 -14.6715 -14.6715 -14.6668 -14.6668 -14.6668
   -14.6668 -14.6540 -14.6309 -14.6309 -14.6309 -14.6309 -14.6199 -14.6196
   -14.6196 -14.6196 -14.6196 -14.6004 -14.5699 -14.5699 -14.5699 -14.5699
   -14.4720 -14.4720 -14.4720 -14.4720 -14.4075 -14.4075 -14.4065 -14.4028
   -14.4028 -14.3970 -14.3970 -14.3730 -14.3586 -14.3586 -14.3586 -14.3586
   -14.3512 -14.3178 -14.3178 -14.3165 -14.3165 -14.3106 -14.3106 -14.3106
   -14.3106 -14.2998 -14.2997 -14.2782 -14.2782 -14.2450 -14.2450 -14.2450
   -14.2450 -14.2247 -14.2049 -14.2049 -14.1962 -14.1956 -14.1956 -14.1917
   -14.1837 -14.1837 -14.1837 -14.1837 -14.1791 -14.1791 -14.1647 -14.1500
   -14.1500 -14.1500 -14.1500 -14.1474 -14.1474 -14.1132 -14.1132 -14.1033
   -14.1033 -14.1033 -14.1033 -14.0960 -14.0960 -14.0576 -14.0576 -14.0356
   -14.0356 -14.0356 -14.0356 -14.0356 -14.0282 -14.0282 -13.9998 -13.9998
   -13.9998 -13.9997 -13.9924 -13.9924 -13.9623 -13.9623 -13.9518 -13.9518
   -13.9518 -13.9518 -13.9353 -13.9233 -13.9233 -13.9233 -13.9233 -13.8967
   -13.8967 -13.8967 -13.8967 -13.8758 -13.8240 -13.8225 -13.8225 -13.8225
   -13.8225 -13.8089 -13.8089 -13.8089 -13.8089 -13.7803 -13.7803 -13.7803
   -13.7803 -13.7608 -13.7608 -13.7608 -13.7608 -13.7247 -13.7211 -13.7019
   -13.7019 -13.7019 -13.7019 -13.6925 -13.6925 -13.6233 -13.6208 -13.5927
   -13.5927 -13.5805 -13.5805 -13.5805 -13.5805 -13.5513 -13.5513 -13.5513
   -13.5513 -13.5394 -13.5394 -13.5089 -13.5020 -13.5020 -13.5020 -13.5020
   -13.5020 -13.5018 -13.5018 -13.5018 -13.5018 -13.4772 -13.4772 -13.4693
    11.3199  13.2179  13.2179  13.2179  13.2179  13.6416  13.6416  13.7150
    13.8725  14.7859  14.7859  14.7859  14.7859  14.7904  14.7944  14.8914
    14.8914  14.8914  14.8914  14.9055  14.9055  14.9055  14.9055  15.1933
    15.3395  15.5395  15.5395  15.6491  15.6491  15.7040  15.7040  16.0652
    16.0652  16.0842  16.0842  16.0842  16.0842  16.1646  16.1646  16.1646
    16.1646  16.2077  16.2077  16.2165  16.2165  16.2165  16.2165  16.2374
    16.2374  16.2374  16.2374  16.3092  16.3092  16.3846  16.3846  16.3846
    16.3846  16.4102  16.4541  16.5126  16.5126  16.5126  16.5126  16.6027
    16.6027  16.6027  16.6027  17.2295  17.2365  17.2365  17.3613  17.3680
    17.3680  17.4041  17.5195  17.6389  17.6389  17.6389  17.6389  17.6440
    17.6440  17.6440  17.6440  17.7058  17.7058  17.7058  17.7058  17.7993
    17.7993  18.0281  18.0281  18.0702  18.0702  18.0702  18.0702  18.0836
    18.0836  18.0836  18.0836  18.0934  18.0934  18.1175  18.1175  18.1175
    18.1175  18.1682  18.1682  18.1937  18.1937  18.1937  18.1937  18.2981
    18.2981  18.3261  18.3261  18.3641  18.3641  18.4187  18.4187  18.4257
    18.4257  18.4257  18.4257  18.5347  18.5347  18.5347  18.5348  18.5613
    18.6758  18.6758  18.6758  18.6758  18.7394  18.7394  18.7929  18.7929
    18.7929  18.7929  18.8112  18.8112  18.8112  18.8112  18.8239  18.8239
    18.8509  18.8509  18.8509  18.8509  18.9757  18.9810  19.0491  19.0491
    19.0491  19.0491  19.0635  19.0635  19.0635  19.0635  19.0753  19.0753
    19.0753  19.0753  19.1628  19.1628  19.5554  19.6159  19.6159  19.6159
    19.6159  19.6683  19.9845  19.9845  20.0930  20.1564  20.1631  20.1631
    20.1631  20.1631  20.3792  20.4681  20.4681  20.6213  20.6213  20.6446
    20.6446  20.7614  20.7614  20.7881  20.7881  20.7995  20.8042  20.8042
    20.9044  21.0090  21.0910  21.0910  21.0910  21.0910  21.0993  21.0993
    21.4218  21.8621  22.0778  22.0778  22.0778  22.0778  22.1438  22.1438
    22.1438  22.1438  22.2339  22.2339  22.2443  22.2682  22.2682  22.2682
    22.2682  22.2809  22.2809  22.2809  22.2809  22.4716  22.4716  22.4716
    22.4716  22.6059  22.6167  22.6167  22.6167  22.6167  22.6354  22.6354
    22.7291  22.7291  22.8498  22.8498  22.8498  22.8498  22.8900  23.0718
    23.1326  23.1352  23.1352

     the Fermi energy is    19.1365 ev

!    total energy              =   -9079.83775828 Ry
     estimated scf accuracy    <          9.6E-09 Ry
     smearing contrib. (-TS)   =      -0.06455223 Ry
     internal energy E=F+TS    =   -9079.77320605 Ry

     The total energy is F=E-TS. E is the sum of the following terms:
     one-electron contribution =    -936.55176271 Ry
     hartree contribution      =     910.72229603 Ry
     xc contribution           =   -2709.03797122 Ry
     ewald contribution        =   -6344.90576815 Ry

     convergence has been achieved in  34 iterations

     negative rho (up, down):  6.071E+00 0.000E+00

     Forces acting on atoms (cartesian axes, Ry/au):

     atom    1 type  1   force =     0.00000000    0.00000378    0.09369981
     atom    2 type  1   force =    -0.00000357    0.00000533    0.09369475
     atom    3 type  1   force =     0.00000000    0.00000980    0.09369381
     atom    4 type  1   force =     0.00000357    0.00000533    0.09369475
     atom    5 type  1   force =    -0.00000805   -0.00000047    0.09369766
     atom    6 type  1   force =     0.00000805    0.00000047    0.09369766
     atom    7 type  1   force =    -0.00000805    0.00000047    0.09369766
     atom    8 type  1   force =     0.00000805   -0.00000047    0.09369766
     atom    9 type  1   force =     0.00000357   -0.00000533    0.09369475
     atom   10 type  1   force =     0.00000000   -0.00000378    0.09369981
     atom   11 type  1   force =    -0.00000357   -0.00000533    0.09369475
     atom   12 type  1   force =     0.00000000   -0.00000980    0.09369381
     atom   13 type  1   force =     0.00000629    0.00000000    0.09370647
     atom   14 type  1   force =    -0.00000629    0.00000000    0.09370647
     atom   15 type  1   force =     0.00000442    0.00000000    0.09370032
     atom   16 type  1   force =    -0.00000442    0.00000000    0.09370032
     atom   17 type  1   force =     0.00000000    0.00000000    0.01455596
     atom   18 type  1   force =    -0.00000266   -0.00000000    0.01456612
     atom   19 type  1   force =     0.00000000    0.00000000    0.01457649
     atom   20 type  1   force =     0.00000266    0.00000000    0.01456612
     atom   21 type  1   force =    -0.00000126   -0.00000732    0.01455438
     atom   22 type  1   force =     0.00000531   -0.00000596    0.01456415
     atom   23 type  1   force =    -0.00000531   -0.00000596    0.01456415
     atom   24 type  1   force =     0.00000126   -0.00000732    0.01455438
     atom   25 type  1   force =     0.00000000    0.00000000    0.01454664
     atom   26 type  1   force =     0.00000000   -0.00000140    0.01454383
     atom   27 type  1   force =     0.00000000    0.00000000    0.01454664
     atom   28 type  1   force =     0.00000000    0.00000140    0.01454383
     atom   29 type  1   force =     0.00000126    0.00000732    0.01455438
     atom   30 type  1   force =    -0.00000126    0.00000732    0.01455438
     atom   31 type  1   force =     0.00000531    0.00000596    0.01456415
     atom   32 type  1   force =    -0.00000531    0.00000596    0.01456415
     atom   33 type  1   force =     0.00000000   -0.00000962   -0.01455492
     atom   34 type  1   force =     0.00000591   -0.00001318   -0.01455203
     atom   35 type  1   force =     0.00000000   -0.00001728   -0.01455200
     atom   36 type  1   force =    -0.00000591   -0.00001318   -0.01455203
     atom   37 type  1   force =    -0.00000264    0.00000670   -0.01455443
     atom   38 type  1   force =     0.00000264   -0.00000670   -0.01455443
     atom   39 type  1   force =    -0.00000264   -0.00000670   -0.01455443
     atom   40 type  1   force =     0.00000264    0.00000670   -0.01455443
     atom   41 type  1   force =    -0.00000591    0.00001318   -0.01455203
     atom   42 type  1   force =     0.00000000    0.00000962   -0.01455492
     atom   43 type  1   force =     0.00000591    0.00001318   -0.01455203
     atom   44 type  1   force =     0.00000000    0.00001728   -0.01455200
     atom   45 type  1   force =    -0.00000629    0.00000000   -0.01456212
     atom   46 type  1   force =     0.00000629    0.00000000   -0.01456212
     atom   47 type  1   force =     0.00000981    0.00000000   -0.01455830
     atom   48 type  1   force =    -0.00000981    0.00000000   -0.01455830
     atom   49 type  1   force =     0.00000000    0.00000000   -0.09369842
     atom   50 type  1   force =     0.00000092    0.00000000   -0.09371031
     atom   51 type  1   force =     0.00000000    0.00000000   -0.09372124
     atom   52 type  1   force =    -0.00000092    0.00000000   -0.09371031
     atom   53 type  1   force =     0.00000359    0.00000001   -0.09369738
     atom   54 type  1   force =     0.00000473   -0.00000179   -0.09370749
     atom   55 type  1   force =    -0.00000473   -0.00000179   -0.09370749
     atom   56 type  1   force =    -0.00000359    0.00000001   -0.09369738
     atom   57 type  1   force =     0.00000000    0.00000000   -0.09368961
     atom   58 type  1   force =     0.00000000   -0.00000432   -0.09368537
     atom   59 type  1   force =     0.00000000    0.00000000   -0.09368961
     atom   60 type  1   force =     0.00000000    0.00000432   -0.09368537
     atom   61 type  1   force =    -0.00000359   -0.00000001   -0.09369738
     atom   62 type  1   force =     0.00000359   -0.00000001   -0.09369738
     atom   63 type  1   force =     0.00000473    0.00000179   -0.09370749
     atom   64 type  1   force =    -0.00000473    0.00000179   -0.09370749
     The non-local contrib.  to forces
     atom    1 type  1   force =     0.00000000    0.00000329   -0.05301639
     atom    2 type  1   force =    -0.00000370    0.00000596   -0.05302217
     atom    3 type  1   force =     0.00000000    0.00000987   -0.05302266
     atom    4 type  1   force =     0.00000370    0.00000596   -0.05302217
     atom    5 type  1   force =    -0.00000846   -0.00000063   -0.05301954
     atom    6 type  1   force =     0.00000846    0.00000063   -0.05301954
     atom    7 type  1   force =    -0.00000846    0.00000063   -0.05301954
     atom    8 type  1   force =     0.00000846   -0.00000063   -0.05301954
     atom    9 type  1   force =     0.00000370   -0.00000596   -0.05302217
     atom   10 type  1   force =     0.00000000   -0.00000329   -0.05301639
     atom   11 type  1   force =    -0.00000370   -0.00000596   -0.05302217
     atom   12 type  1   force =    -0.00000000   -0.00000987   -0.05302266
     atom   13 type  1   force =     0.00000870   -0.00000000   -0.05301057
     atom   14 type  1   force =    -0.00000870    0.00000000   -0.05301057
     atom   15 type  1   force =     0.00000518    0.00000000   -0.05301745
     atom   16 type  1   force =    -0.00000518    0.00000000   -0.05301745
     atom   17 type  1   force =     0.00000000    0.00000000   -0.00430294
     atom   18 type  1   force =    -0.00000324    0.00000000   -0.00429209
     atom   19 type  1   force =     0.00000000    0.00000000   -0.00428141
     atom   20 type  1   force =     0.00000324    0.00000000   -0.00429209
     atom   21 type  1   force =    -0.00000137   -0.00000786   -0.00430513
     atom   22 type  1   force =     0.00000450   -0.00000588   -0.00429488
     atom   23 type  1   force =    -0.00000450   -0.00000588   -0.00429488
     atom   24 type  1   force =     0.00000137   -0.00000786   -0.00430513
     atom   25 type  1   force =     0.00000000    0.00000000   -0.00431217
     atom   26 type  1   force =    -0.00000000   -0.00000140   -0.00431615
     atom   27 type  1   force =     0.00000000    0.00000000   -0.00431217
     atom   28 type  1   force =     0.00000000    0.00000140   -0.00431615
     atom   29 type  1   force =     0.00000137    0.00000786   -0.00430513
     atom   30 type  1   force =    -0.00000137    0.00000786   -0.00430513
     atom   31 type  1   force =     0.00000450    0.00000588   -0.00429488
     atom   32 type  1   force =    -0.00000450    0.00000588   -0.00429488
     atom   33 type  1   force =     0.00000000   -0.00001118    0.00430362
     atom   34 type  1   force =     0.00000632   -0.00001267    0.00430682
     atom   35 type  1   force =     0.00000000   -0.00001782    0.00430680
     atom   36 type  1   force =    -0.00000632   -0.00001267    0.00430682
     atom   37 type  1   force =    -0.00000181    0.00000652    0.00430516
     atom   38 type  1   force =     0.00000181   -0.00000652    0.00430516
     atom   39 type  1   force =    -0.00000181   -0.00000652    0.00430516
     atom   40 type  1   force =     0.00000181    0.00000652    0.00430516
     atom   41 type  1   force =    -0.00000632    0.00001267    0.00430682
     atom   42 type  1   force =     0.00000000    0.00001118    0.00430362
     atom   43 type  1   force =     0.00000632    0.00001267    0.00430682
     atom   44 type  1   force =     0.00000000    0.00001782    0.00430680
     atom   45 type  1   force =    -0.00000478    0.00000000    0.00429662
     atom   46 type  1   force =     0.00000478    0.00000000    0.00429662
     atom   47 type  1   force =     0.00001061    0.00000000    0.00430060
     atom   48 type  1   force =    -0.00001061    0.00000000    0.00430060
     atom   49 type  1   force =     0.00000000    0.00000000    0.05301758
     atom   50 type  1   force =     0.00000158    0.00000000    0.05300524
     atom   51 type  1   force =     0.00000000    0.00000000    0.05299475
     atom   52 type  1   force =    -0.00000158    0.00000000    0.05300524
     atom   53 type  1   force =     0.00000384   -0.00000021    0.05301944
     atom   54 type  1   force =     0.00000390   -0.00000175    0.05300863
     atom   55 type  1   force =    -0.00000390   -0.00000175    0.05300863
     atom   56 type  1   force =    -0.00000384   -0.00000021    0.05301944
     atom   57 type  1   force =     0.00000000    0.00000000    0.05302569
     atom   58 type  1   force =    -0.00000000   -0.00000468    0.05303079
     atom   59 type  1   force =     0.00000000    0.00000000    0.05302569
     atom   60 type  1   force =     0.00000000    0.00000468    0.05303079
     atom   61 type  1   force =    -0.00000384    0.00000021    0.05301944
     atom   62 type  1   force =     0.00000384    0.00000021    0.05301944
     atom   63 type  1   force =     0.00000390    0.00000175    0.05300863
     atom   64 type  1   force =    -0.00000390    0.00000175    0.05300863
     The ionic contribution  to forces
     atom    1 type  1   force =    -0.00000000    0.00000000    7.53276475
     atom    2 type  1   force =    -0.00000000    0.00000000    7.53276475
     atom    3 type  1   force =    -0.00000000    0.00000000    7.53276475
     atom    4 type  1   force =     0.00000000    0.00000000    7.53276475
     atom    5 type  1   force =    -0.00000000   -0.00000000    7.53276475
     atom    6 type  1   force =    -0.00000000   -0.00000000    7.53276475
     atom    7 type  1   force =    -0.00000000   -0.00000000    7.53276475
     atom    8 type  1   force =     0.00000000   -0.00000000    7.53276475
     atom    9 type  1   force =    -0.00000000    0.00000000    7.53276475
     atom   10 type  1   force =     0.00000000    0.00000000    7.53276475
     atom   11 type  1   force =     0.00000000    0.00000000    7.53276475
     atom   12 type  1   force =    -0.00000000    0.00000000    7.53276475
     atom   13 type  1   force =    -0.00000000   -0.00000000    7.53276475
     atom   14 type  1   force =     0.00000000   -0.00000000    7.53276475
     atom   15 type  1   force =     0.00000000   -0.00000000    7.53276475
     atom   16 type  1   force =     0.00000000   -0.00000000    7.53276475
     atom   17 type  1   force =    -0.00000000   -0.00000000    2.89007932
     atom   18 type  1   force =    -0.00000000   -0.00000000    2.89007932
     atom   19 type  1   force =     0.00000000   -0.00000000    2.89007932
     atom   20 type  1   force =    -0.00000000   -0.00000000    2.89007932
     atom   21 type  1   force =     0.00000000    0.00000000    2.89007932
     atom   22 type  1   force =    -0.00000000    0.00000000    2.89007932
     atom   23 type  1   force =     0.00000000    0.00000000    2.89007932
     atom   24 type  1   force =     0.00000000    0.00000000    2.89007932
     atom   25 type  1   force =     0.00000000   -0.00000000    2.89007932
     atom   26 type  1   force =     0.00000000   -0.00000000    2.89007932
     atom   27 type  1   force =     0.00000000   -0.00000000    2.89007932
     atom   28 type  1   force =     0.00000000   -0.00000000    2.89007932
     atom   29 type  1   force =    -0.00000000    0.00000000    2.89007932
     atom   30 type  1   force =    -0.00000000    0.00000000    2.89007932
     atom   31 type  1   force =     0.00000000    0.00000000    2.89007932
     atom   32 type  1   force =    -0.00000000    0.00000000    2.89007932
     atom   33 type  1   force =    -0.00000000    0.00000000   -2.89007932
     atom   34 type  1   force =    -0.00000000    0.00000000   -2.89007932
     atom   35 type  1   force =     0.00000000    0.00000000   -2.89007932
     atom   36 type  1   force =     0.00000000    0.00000000   -2.89007932
     atom   37 type  1   force =    -0.00000000   -0.00000000   -2.89007932
     atom   38 type  1   force =    -0.00000000   -0.00000000   -2.89007932
     atom   39 type  1   force =    -0.00000000   -0.00000000   -2.89007932
     atom   40 type  1   force =    -0.00000000   -0.00000000   -2.89007932
     atom   41 type  1   force =    -0.00000000    0.00000000   -2.89007932
     atom   42 type  1   force =     0.00000000    0.00000000   -2.89007932
     atom   43 type  1   force =     0.00000000    0.00000000   -2.89007932
     atom   44 type  1   force =    -0.00000000    0.00000000   -2.89007932
     atom   45 type  1   force =    -0.00000000   -0.00000000   -2.89007932
     atom   46 type  1   force =     0.00000000   -0.00000000   -2.89007932
     atom   47 type  1   force =     0.00000000   -0.00000000   -2.89007932
     atom   48 type  1   force =     0.00000000   -0.00000000   -2.89007932
     atom   49 type  1   force =    -0.00000000   -0.00000000   -7.53276475
     atom   50 type  1   force =    -0.00000000   -0.00000000   -7.53276475
     atom   51 type  1   force =    -0.00000000   -0.00000000   -7.53276475
     atom   52 type  1   force =     0.00000000   -0.00000000   -7.53276475
     atom   53 type  1   force =     0.00000000    0.00000000   -7.53276475
     atom   54 type  1   force =     0.00000000    0.00000000   -7.53276475
     atom   55 type  1   force =     0.00000000    0.00000000   -7.53276475
     atom   56 type  1   force =     0.00000000    0.00000000   -7.53276475
     atom   57 type  1   force =     0.00000000   -0.00000000   -7.53276475
     atom   58 type  1   force =     0.00000000   -0.00000000   -7.53276475
     atom   59 type  1   force =    -0.00000000   -0.00000000   -7.53276475
     atom   60 type  1   force =     0.00000000   -0.00000000   -7.53276475
     atom   61 type  1   force =    -0.00000000    0.00000000   -7.53276475
     atom   62 type  1   force =    -0.00000000    0.00000000   -7.53276475
     atom   63 type  1   force =     0.00000000    0.00000000   -7.53276475
     atom   64 type  1   force =    -0.00000000    0.00000000   -7.53276475
     The local contribution  to forces
     atom    1 type  1   force =    -0.00000000    0.00002461   -7.38541833
     atom    2 type  1   force =    -0.00001900    0.00003182   -7.38545035
     atom    3 type  1   force =    -0.00000000    0.00006259   -7.38546080
     atom    4 type  1   force =     0.00001900    0.00003182   -7.38545035
     atom    5 type  1   force =    -0.00003761   -0.00000382   -7.38543730
     atom    6 type  1   force =     0.00003761    0.00000382   -7.38543730
     atom    7 type  1   force =    -0.00003761    0.00000382   -7.38543730
     atom    8 type  1   force =     0.00003761   -0.00000382   -7.38543730
     atom    9 type  1   force =     0.00001900   -0.00003182   -7.38545035
     atom   10 type  1   force =    -0.00000000   -0.00002461   -7.38541833
     atom   11 type  1   force =    -0.00001900   -0.00003182   -7.38545035
     atom   12 type  1   force =    -0.00000000   -0.00006258   -7.38546080
     atom   13 type  1   force =     0.00003003   -0.00000000   -7.38538838
     atom   14 type  1   force =    -0.00003003   -0.00000000   -7.38538838
     atom   15 type  1   force =     0.00000877   -0.00000000   -7.38543266
     atom   16 type  1   force =    -0.00000877   -0.00000000   -7.38543266
     atom   17 type  1   force =    -0.00000000   -0.00000000   -2.87249213
     atom   18 type  1   force =    -0.00000931   -0.00000000   -2.87240694
     atom   19 type  1   force =    -0.00000000   -0.00000000   -2.87235003
     atom   20 type  1   force =     0.00000931   -0.00000000   -2.87240694
     atom   21 type  1   force =    -0.00001922   -0.00004410   -2.87249652
     atom   22 type  1   force =     0.00004092   -0.00003726   -2.87242454
     atom   23 type  1   force =    -0.00004092   -0.00003726   -2.87242454
     atom   24 type  1   force =     0.00001922   -0.00004410   -2.87249652
     atom   25 type  1   force =    -0.00000000   -0.00000000   -2.87252431
     atom   26 type  1   force =    -0.00000000   -0.00001304   -2.87254568
     atom   27 type  1   force =     0.00000000   -0.00000000   -2.87252431
     atom   28 type  1   force =    -0.00000000    0.00001303   -2.87254568
     atom   29 type  1   force =     0.00001922    0.00004411   -2.87249652
     atom   30 type  1   force =    -0.00001922    0.00004411   -2.87249652
     atom   31 type  1   force =     0.00004092    0.00003726   -2.87242454
     atom   32 type  1   force =    -0.00004092    0.00003726   -2.87242454
     atom   33 type  1   force =    -0.00000000   -0.00004860    2.87246488
     atom   34 type  1   force =     0.00004777   -0.00008249    2.87248951
     atom   35 type  1   force =    -0.00000000   -0.00010477    2.87249469
     atom   36 type  1   force =    -0.00004777   -0.00008249    2.87248951
     atom   37 type  1   force =    -0.00000825    0.00004784    2.87248507
     atom   38 type  1   force =     0.00000825   -0.00004784    2.87248507
     atom   39 type  1   force =    -0.00000825   -0.00004784    2.87248507
     atom   40 type  1   force =     0.00000825    0.00004784    2.87248507
     atom   41 type  1   force =    -0.00004777    0.00008249    2.87248951
     atom   42 type  1   force =    -0.00000000    0.00004861    2.87246488
     atom   43 type  1   force =     0.00004777    0.00008249    2.87248951
     atom   44 type  1   force =    -0.00000000    0.00010477    2.87249469
     atom   45 type  1   force =    -0.00005617   -0.00000000    2.87243413
     atom   46 type  1   force =     0.00005617   -0.00000000    2.87243413
     atom   47 type  1   force =     0.00005246   -0.00000000    2.87246612
     atom   48 type  1   force =    -0.00005246   -0.00000000    2.87246612
     atom   49 type  1   force =    -0.00000000   -0.00000000    7.38545180
     atom   50 type  1   force =     0.00001672   -0.00000000    7.38536039
     atom   51 type  1   force =    -0.00000000   -0.00000000    7.38530075
     atom   52 type  1   force =    -0.00001672   -0.00000000    7.38536039
     atom   53 type  1   force =     0.00000768    0.00000402    7.38545116
     atom   54 type  1   force =     0.00004358   -0.00001037    7.38537712
     atom   55 type  1   force =    -0.00004358   -0.00001037    7.38537712
     atom   56 type  1   force =    -0.00000768    0.00000402    7.38545116
     atom   57 type  1   force =    -0.00000000   -0.00000000    7.38548076
     atom   58 type  1   force =    -0.00000000   -0.00003341    7.38550668
     atom   59 type  1   force =     0.00000000   -0.00000000    7.38548076
     atom   60 type  1   force =    -0.00000000    0.00003341    7.38550668
     atom   61 type  1   force =    -0.00000768   -0.00000401    7.38545116
     atom   62 type  1   force =     0.00000768   -0.00000401    7.38545116
     atom   63 type  1   force =     0.00004358    0.00001037    7.38537712
     atom   64 type  1   force =    -0.00004358    0.00001037    7.38537712
     The core correction contribution to forces
     atom    1 type  1   force =    -0.00000051    0.00000007   -0.00060369
     atom    2 type  1   force =     0.00000047   -0.00000069   -0.00060401
     atom    3 type  1   force =    -0.00000051    0.00000004   -0.00060361
     atom    4 type  1   force =     0.00000055   -0.00000069   -0.00060401
     atom    5 type  1   force =    -0.00000104    0.00000025   -0.00060382
     atom    6 type  1   force =     0.00000104   -0.00000025   -0.00060382
     atom    7 type  1   force =    -0.00000104    0.00000018   -0.00060382
     atom    8 type  1   force =     0.00000104   -0.00000018   -0.00060382
     atom    9 type  1   force =    -0.00000047    0.00000069   -0.00060401
     atom   10 type  1   force =     0.00000051   -0.00000007   -0.00060369
     atom   11 type  1   force =    -0.00000055    0.00000069   -0.00060401
     atom   12 type  1   force =     0.00000051   -0.00000004   -0.00060361
     atom   13 type  1   force =    -0.00000017    0.00000054   -0.00060359
     atom   14 type  1   force =     0.00000017   -0.00000054   -0.00060359
     atom   15 type  1   force =     0.00000000    0.00000054   -0.00060363
     atom   16 type  1   force =    -0.00000000   -0.00000054   -0.00060363
     atom   17 type  1   force =     0.00000000    0.00000000    0.00128415
     atom   18 type  1   force =    -0.00000012    0.00000000    0.00128370
     atom   19 type  1   force =    -0.00000000    0.00000000    0.00128415
     atom   20 type  1   force =     0.00000012   -0.00000000    0.00128370
     atom   21 type  1   force =     0.00000053    0.00000010    0.00128392
     atom   22 type  1   force =    -0.00000046   -0.00000029    0.00128383
     atom   23 type  1   force =     0.00000046    0.00000013    0.00128379
     atom   24 type  1   force =    -0.00000054   -0.00000031    0.00128396
     atom   25 type  1   force =    -0.00000000    0.00000000    0.00128360
     atom   26 type  1   force =     0.00000000    0.00000005    0.00128384
     atom   27 type  1   force =    -0.00000000    0.00000000    0.00128360
     atom   28 type  1   force =    -0.00000000   -0.00000005    0.00128384
     atom   29 type  1   force =    -0.00000053   -0.00000010    0.00128392
     atom   30 type  1   force =     0.00000054    0.00000031    0.00128396
     atom   31 type  1   force =    -0.00000046   -0.00000013    0.00128379
     atom   32 type  1   force =     0.00000046    0.00000029    0.00128383
     atom   33 type  1   force =    -0.00000044    0.00000005   -0.00128348
     atom   34 type  1   force =     0.00000031   -0.00000035   -0.00128374
     atom   35 type  1   force =    -0.00000044    0.00000025   -0.00128368
     atom   36 type  1   force =     0.00000058   -0.00000035   -0.00128374
     atom   37 type  1   force =    -0.00000094    0.00000001   -0.00128377
     atom   38 type  1   force =     0.00000094   -0.00000001   -0.00128377
     atom   39 type  1   force =    -0.00000094    0.00000022   -0.00128377
     atom   40 type  1   force =     0.00000094   -0.00000022   -0.00128377
     atom   41 type  1   force =    -0.00000031    0.00000035   -0.00128374
     atom   42 type  1   force =     0.00000044   -0.00000005   -0.00128348
     atom   43 type  1   force =    -0.00000058    0.00000035   -0.00128374
     atom   44 type  1   force =     0.00000044   -0.00000025   -0.00128368
     atom   45 type  1   force =     0.00000016    0.00000053   -0.00128376
     atom   46 type  1   force =    -0.00000016   -0.00000053   -0.00128376
     atom   47 type  1   force =     0.00000002    0.00000053   -0.00128384
     atom   48 type  1   force =    -0.00000002   -0.00000053   -0.00128384
     atom   49 type  1   force =     0.00000000    0.00000000    0.00060337
     atom   50 type  1   force =    -0.00000011   -0.00000000    0.00060338
     atom   51 type  1   force =     0.00000000    0.00000000    0.00060328
     atom   52 type  1   force =     0.00000011    0.00000000    0.00060338
     atom   53 type  1   force =     0.00000052   -0.00000022    0.00060345
     atom   54 type  1   force =    -0.00000049   -0.00000048    0.00060360
     atom   55 type  1   force =     0.00000049   -0.00000015    0.00060352
     atom   56 type  1   force =    -0.00000052   -0.00000054    0.00060353
     atom   57 type  1   force =    -0.00000000    0.00000000    0.00060364
     atom   58 type  1   force =    -0.00000000    0.00000009    0.00060405
     atom   59 type  1   force =     0.00000000    0.00000000    0.00060364
     atom   60 type  1   force =     0.00000000   -0.00000009    0.00060405
     atom   61 type  1   force =    -0.00000052    0.00000022    0.00060345
     atom   62 type  1   force =     0.00000052    0.00000054    0.00060353
     atom   63 type  1   force =    -0.00000049    0.00000015    0.00060352
     atom   64 type  1   force =     0.00000049    0.00000048    0.00060360
     The Hubbard contrib.    to forces
     atom    1 type  1   force =     0.00000000    0.00000000    0.00000000
     atom    2 type  1   force =     0.00000000    0.00000000    0.00000000
     atom    3 type  1   force =     0.00000000    0.00000000    0.00000000
     atom    4 type  1   force =     0.00000000    0.00000000    0.00000000
     atom    5 type  1   force =     0.00000000    0.00000000    0.00000000
     atom    6 type  1   force =     0.00000000    0.00000000    0.00000000
     atom    7 type  1   force =     0.00000000    0.00000000    0.00000000
     atom    8 type  1   force =     0.00000000    0.00000000    0.00000000
     atom    9 type  1   force =     0.00000000    0.00000000    0.00000000
     atom   10 type  1   force =     0.00000000    0.00000000    0.00000000
     atom   11 type  1   force =     0.00000000    0.00000000    0.00000000
     atom   12 type  1   force =     0.00000000    0.00000000    0.00000000
     atom   13 type  1   force =     0.00000000    0.00000000    0.00000000
     atom   14 type  1   force =     0.00000000    0.00000000    0.00000000
     atom   15 type  1   force =     0.00000000    0.00000000    0.00000000
     atom   16 type  1   force =     0.00000000    0.00000000    0.00000000
     atom   17 type  1   force =     0.00000000    0.00000000    0.00000000
     atom   18 type  1   force =     0.00000000    0.00000000    0.00000000
     atom   19 type  1   force =     0.00000000    0.00000000    0.00000000
     atom   20 type  1   force =     0.00000000    0.00000000    0.00000000
     atom   21 type  1   force =     0.00000000    0.00000000    0.00000000
     atom   22 type  1   force =     0.00000000    0.00000000    0.00000000
     atom   23 type  1   force =     0.00000000    0.00000000    0.00000000
     atom   24 type  1   force =     0.00000000    0.00000000    0.00000000
     atom   25 type  1   force =     0.00000000    0.00000000    0.00000000
     atom   26 type  1   force =     0.00000000    0.00000000    0.00000000
     atom   27 type  1   force =     0.00000000    0.00000000    0.00000000
     atom   28 type  1   force =     0.00000000    0.00000000    0.00000000
     atom   29 type  1   force =     0.00000000    0.00000000    0.00000000
     atom   30 type  1   force =     0.00000000    0.00000000    0.00000000
     atom   31 type  1   force =     0.00000000    0.00000000    0.00000000
     atom   32 type  1   force =     0.00000000    0.00000000    0.00000000
     atom   33 type  1   force =     0.00000000    0.00000000    0.00000000
     atom   34 type  1   force =     0.00000000    0.00000000    0.00000000
     atom   35 type  1   force =     0.00000000    0.00000000    0.00000000
     atom   36 type  1   force =     0.00000000    0.00000000    0.00000000
     atom   37 type  1   force =     0.00000000    0.00000000    0.00000000
     atom   38 type  1   force =     0.00000000    0.00000000    0.00000000
     atom   39 type  1   force =     0.00000000    0.00000000    0.00000000
     atom   40 type  1   force =     0.00000000    0.00000000    0.00000000
     atom   41 type  1   force =     0.00000000    0.00000000    0.00000000
     atom   42 type  1   force =     0.00000000    0.00000000    0.00000000
     atom   43 type  1   force =     0.00000000    0.00000000    0.00000000
     atom   44 type  1   force =     0.00000000    0.00000000    0.00000000
     atom   45 type  1   force =     0.00000000    0.00000000    0.00000000
     atom   46 type  1   force =     0.00000000    0.00000000    0.00000000
     atom   47 type  1   force =     0.00000000    0.00000000    0.00000000
     atom   48 type  1   force =     0.00000000    0.00000000    0.00000000
     atom   49 type  1   force =     0.00000000    0.00000000    0.00000000
     atom   50 type  1   force =     0.00000000    0.00000000    0.00000000
     atom   51 type  1   force =     0.00000000    0.00000000    0.00000000
     atom   52 type  1   force =     0.00000000    0.00000000    0.00000000
     atom   53 type  1   force =     0.00000000    0.00000000    0.00000000
     atom   54 type  1   force =     0.00000000    0.00000000    0.00000000
     atom   55 type  1   force =     0.00000000    0.00000000    0.00000000
     atom   56 type  1   force =     0.00000000    0.00000000    0.00000000
     atom   57 type  1   force =     0.00000000    0.00000000    0.00000000
     atom   58 type  1   force =     0.00000000    0.00000000    0.00000000
     atom   59 type  1   force =     0.00000000    0.00000000    0.00000000
     atom   60 type  1   force =     0.00000000    0.00000000    0.00000000
     atom   61 type  1   force =     0.00000000    0.00000000    0.00000000
     atom   62 type  1   force =     0.00000000    0.00000000    0.00000000
     atom   63 type  1   force =     0.00000000    0.00000000    0.00000000
     atom   64 type  1   force =     0.00000000    0.00000000    0.00000000
     The SCF correction term to forces
     atom    1 type  1   force =     0.00000000   -0.00002418   -0.00002676
     atom    2 type  1   force =     0.00001917   -0.00003176    0.00000629
     atom    3 type  1   force =     0.00000000   -0.00006270    0.00001589
     atom    4 type  1   force =    -0.00001917   -0.00003176    0.00000629
     atom    5 type  1   force =     0.00003907    0.00000395   -0.00000666
     atom    6 type  1   force =    -0.00003907   -0.00000395   -0.00000666
     atom    7 type  1   force =     0.00003907   -0.00000395   -0.00000666
     atom    8 type  1   force =    -0.00003907    0.00000395   -0.00000666
     atom    9 type  1   force =    -0.00001917    0.00003176    0.00000629
     atom   10 type  1   force =    -0.00000000    0.00002418   -0.00002676
     atom   11 type  1   force =     0.00001917    0.00003176    0.00000629
     atom   12 type  1   force =    -0.00000000    0.00006270    0.00001589
     atom   13 type  1   force =    -0.00003227   -0.00000000   -0.00005599
     atom   14 type  1   force =     0.00003227    0.00000000   -0.00005599
     atom   15 type  1   force =    -0.00000953   -0.00000000   -0.00001093
     atom   16 type  1   force =     0.00000953    0.00000000   -0.00001093
     atom   17 type  1   force =    -0.00000000    0.00000000   -0.00001268
     atom   18 type  1   force =     0.00001002   -0.00000000   -0.00009810
     atom   19 type  1   force =     0.00000000    0.00000000   -0.00015578
     atom   20 type  1   force =    -0.00001002    0.00000000   -0.00009810
     atom   21 type  1   force =     0.00001879    0.00004475   -0.00000747
     atom   22 type  1   force =    -0.00003965    0.00003726   -0.00007980
     atom   23 type  1   force =     0.00003965    0.00003726   -0.00007980
     atom   24 type  1   force =    -0.00001879    0.00004475   -0.00000747
     atom   25 type  1   force =    -0.00000000    0.00000000    0.00001995
     atom   26 type  1   force =    -0.00000000    0.00001299    0.00004226
     atom   27 type  1   force =    -0.00000000    0.00000000    0.00001995
     atom   28 type  1   force =     0.00000000   -0.00001299    0.00004226
     atom   29 type  1   force =    -0.00001879   -0.00004475   -0.00000747
     atom   30 type  1   force =     0.00001879   -0.00004475   -0.00000747
     atom   31 type  1   force =    -0.00003965   -0.00003726   -0.00007980
     atom   32 type  1   force =     0.00003965   -0.00003726   -0.00007980
     atom   33 type  1   force =     0.00000000    0.00005011    0.00003914
     atom   34 type  1   force =    -0.00004805    0.00008233    0.00001447
     atom   35 type  1   force =    -0.00000000    0.00010505    0.00000926
     atom   36 type  1   force =     0.00004805    0.00008233    0.00001447
     atom   37 type  1   force =     0.00000836   -0.00004755    0.00001818
     atom   38 type  1   force =    -0.00000836    0.00004755    0.00001818
     atom   39 type  1   force =     0.00000836    0.00004755    0.00001818
     atom   40 type  1   force =    -0.00000836   -0.00004755    0.00001818
     atom   41 type  1   force =     0.00004805   -0.00008233    0.00001447
     atom   42 type  1   force =    -0.00000000   -0.00005011    0.00003914
     atom   43 type  1   force =    -0.00004805   -0.00008233    0.00001447
     atom   44 type  1   force =     0.00000000   -0.00010505    0.00000926
     atom   45 type  1   force =     0.00005449    0.00000000    0.00006996
     atom   46 type  1   force =    -0.00005449   -0.00000000    0.00006996
     atom   47 type  1   force =    -0.00005327    0.00000000    0.00003790
     atom   48 type  1   force =     0.00005327   -0.00000000    0.00003790
     atom   49 type  1   force =    -0.00000000    0.00000000   -0.00000665
     atom   50 type  1   force =    -0.00001727   -0.00000000    0.00008518
     atom   51 type  1   force =     0.00000000    0.00000000    0.00014449
     atom   52 type  1   force =     0.00001727    0.00000000    0.00008518
     atom   53 type  1   force =    -0.00000844   -0.00000342   -0.00000696
     atom   54 type  1   force =    -0.00004226    0.00001065    0.00006771
     atom   55 type  1   force =     0.00004226    0.00001065    0.00006771
     atom   56 type  1   force =     0.00000844   -0.00000342   -0.00000696
     atom   57 type  1   force =    -0.00000000    0.00000000   -0.00003519
     atom   58 type  1   force =    -0.00000000    0.00003369   -0.00006238
     atom   59 type  1   force =    -0.00000000    0.00000000   -0.00003519
     atom   60 type  1   force =     0.00000000   -0.00003369   -0.00006238
     atom   61 type  1   force =     0.00000844    0.00000342   -0.00000696
     atom   62 type  1   force =    -0.00000844    0.00000342   -0.00000696
     atom   63 type  1   force =    -0.00004226   -0.00001065    0.00006771
     atom   64 type  1   force =     0.00004226   -0.00001065    0.00006771

     Total force =     0.536402     Total SCF correction =     0.000552


     Computing stress (Cartesian axis) and pressure


     negative rho (up, down):  6.071E+00 0.000E+00
          total   stress  (Ry/bohr**3)                   (kbar)     P=      107.26
   0.00056715   0.00000000   0.00000000           83.43        0.00        0.00
   0.00000000   0.00062536   0.00000000            0.00       91.99        0.00
   0.00000000   0.00000000   0.00099493            0.00        0.00      146.36


     BFGS Geometry Optimization
     Energy error            =      0.0E+00 Ry
     Gradient error          =      9.4E-02 Ry/Bohr

     number of scf cycles    =   1
     number of bfgs steps    =   0

     energy             new  =   -9079.8377582805 Ry

     new trust radius        =       0.0937212384 bohr
     new conv_thr            =       0.0000000100 Ry


ATOMIC_POSITIONS (angstrom)
Ta            0.0000000000        2.3375556000        1.0495838017
Ta            3.3057981106        2.3375564165        1.0495811288
Ta            6.6116000000        2.3375587851        1.0495806273
Ta            9.9174018894        2.3375564165        1.0495811288
Ta            1.6528957402        4.6751069476        1.0495826683
Ta            4.9587042598        4.6751074414        1.0495826683
Ta            8.2644957402        4.6751074414        1.0495826683
Ta           11.5703042598        4.6751069476        1.0495826683
Ta            3.3058018894        7.0126579724        1.0495811288
Ta            6.6116000000        7.0126587889        1.0495838017
Ta            9.9173981106        7.0126579724        1.0495811288
Ta           13.2232000000        7.0126556038        1.0495806273
Ta            4.9587033295        9.3502143890        1.0495873285
Ta            8.2644966705        9.3502143890        1.0495873285
Ta           11.5703023398        9.3502143890        1.0495840741
Ta           14.8760976602        9.3502143890        1.0495840741
Ta            0.0000000000        0.0000000000        3.3452562800
Ta            3.3057985942       -0.0000000000        3.3452616580
Ta            6.6116000000        0.0000000000        3.3452671423
Ta            9.9174014058        0.0000000000        3.3452616580
Ta            1.6528993316        2.3375497234        3.3452554460
Ta            4.9587028081        2.3375504444        3.3452606135
Ta            8.2644971919        2.3375504444        3.3452606135
Ta           11.5703006684        2.3375497234        3.3452554460
Ta            3.3058000000        4.6751071945        3.3452513475
Ta            6.6116000000        4.6751064522        3.3452498592
Ta            9.9174000000        4.6751071945        3.3452513475
Ta           13.2232000000        4.6751079368        3.3452498592
Ta            4.9587006684        7.0126646655        3.3452554460
Ta            8.2644993316        7.0126646655        3.3452554460
Ta           11.5703028081        7.0126639445        3.3452606135
Ta           14.8760971919        7.0126639445        3.3452606135
Ta            0.0000000000        2.3375485081        5.6674050608
Ta            3.3058031300        2.3375466233        5.6674065936
Ta            6.6116000000        2.3375444530        5.6674066081
Ta            9.9173968700        2.3375466233        5.6674065936
Ta            1.6528986030        4.6751107392        5.6674053198
Ta            4.9587013970        4.6751036498        5.6674053198
Ta            8.2644986030        4.6751036498        5.6674053198
Ta           11.5703013970        4.6751107392        5.6674053198
Ta            3.3057968700        7.0126677656        5.6674065936
Ta            6.6116000000        7.0126658808        5.6674050608
Ta            9.9174031300        7.0126677656        5.6674065936
Ta           13.2232000000        7.0126699359        5.6674066081
Ta            4.9586966711        9.3502143890        5.6674012502
Ta            8.2645033289        9.3502143890        5.6674012502
Ta           11.5703051924        9.3502143890        5.6674032760
Ta           14.8760948076        9.3502143890        5.6674032760
Ta            0.0000000000        0.0000000000        7.9630777237
Ta            3.3058004886        0.0000000000        7.9630714289
Ta            6.6116000000        0.0000000000        7.9630656482
Ta            9.9173995114        0.0000000000        7.9630714289
Ta            1.6529019021        2.3375536042        7.9630782747
Ta            4.9587025020        2.3375526516        7.9630729226
Ta            8.2644974980        2.3375526516        7.9630729226
Ta           11.5702980979        2.3375536042        7.9630782747
Ta            3.3058000000        4.6751071945        7.9630823863
Ta            6.6116000000        4.6751049064        7.9630846293
Ta            9.9174000000        4.6751071945        7.9630823863
Ta           13.2232000000        4.6751094826        7.9630846293
Ta            4.9586980979        7.0126607847        7.9630782747
Ta            8.2645019021        7.0126607847        7.9630782747
Ta           11.5703025020        7.0126617373        7.9630729226
Ta           14.8760974980        7.0126617373        7.9630729226



     Writing config-only to output data dir ./pwscf.save/
     NEW-OLD atomic charge density approx. for the potential

     negative rho (up, down):  6.086E+00 0.000E+00

     total cpu time spent up to now is     2440.0 secs

     Self-consistent Calculation

     iteration #  1     ecut=    30.00 Ry     beta= 0.70
     Davidson diagonalization with overlap
     ethr =  1.00E-06,  avg # of iterations = 17.0

     negative rho (up, down):  6.086E+00 0.000E+00

     total cpu time spent up to now is     2602.1 secs

     total energy              =   -9079.69261655 Ry
     estimated scf accuracy    <       0.44951250 Ry

     iteration #  2     ecut=    30.00 Ry     beta= 0.70
     Davidson diagonalization with overlap
     ethr =  5.40E-05,  avg # of iterations = 19.0

     negative rho (up, down):  6.086E+00 0.000E+00

     total cpu time spent up to now is     2707.1 secs

     total energy              =   -9076.49140225 Ry
     estimated scf accuracy    <      77.98376468 Ry

     iteration #  3     ecut=    30.00 Ry     beta= 0.70
     Davidson diagonalization with overlap
     ethr =  5.40E-05,  avg # of iterations =  8.0

     negative rho (up, down):  6.086E+00 0.000E+00

     total cpu time spent up to now is     2807.7 secs

     total energy              =   -9080.04472791 Ry
     estimated scf accuracy    <       0.05119718 Ry

     iteration #  4     ecut=    30.00 Ry     beta= 0.70
     Davidson diagonalization with overlap
     ethr =  6.15E-06,  avg # of iterations =  3.0

     negative rho (up, down):  6.086E+00 0.000E+00

     total cpu time spent up to now is     2867.7 secs

     total energy              =   -9080.05236214 Ry
     estimated scf accuracy    <       0.00490250 Ry

     iteration #  5     ecut=    30.00 Ry     beta= 0.70
     Davidson diagonalization with overlap
     ethr =  5.89E-07,  avg # of iterations =  7.0

     negative rho (up, down):  6.086E+00 0.000E+00

     total cpu time spent up to now is     2958.6 secs

     total energy              =   -9080.04590069 Ry
     estimated scf accuracy    <       0.26902532 Ry

     iteration #  6     ecut=    30.00 Ry     beta= 0.70
     Davidson diagonalization with overlap
     c_bands:  1 eigenvalues not converged
     ethr =  5.89E-07,  avg # of iterations = 20.0

     negative rho (up, down):  6.086E+00 0.000E+00

     total cpu time spent up to now is     3069.7 secs

     total energy              =   -9080.05402291 Ry
     estimated scf accuracy    <       0.00212876 Ry

     iteration #  7     ecut=    30.00 Ry     beta= 0.70
     Davidson diagonalization with overlap
     ethr =  2.56E-07,  avg # of iterations =  2.0

     negative rho (up, down):  6.086E+00 0.000E+00

     total cpu time spent up to now is     3133.4 secs

     total energy              =   -9080.05415620 Ry
     estimated scf accuracy    <       0.00054754 Ry

     iteration #  8     ecut=    30.00 Ry     beta= 0.70
     Davidson diagonalization with overlap
     ethr =  6.58E-08,  avg # of iterations =  3.0

     negative rho (up, down):  6.086E+00 0.000E+00

     total cpu time spent up to now is     3200.7 secs

     total energy              =   -9080.05416602 Ry
     estimated scf accuracy    <       0.00102888 Ry

     iteration #  9     ecut=    30.00 Ry     beta= 0.70
     Davidson diagonalization with overlap
     ethr =  6.58E-08,  avg # of iterations =  2.0

     negative rho (up, down):  6.086E+00 0.000E+00

     total cpu time spent up to now is     3257.3 secs

     total energy              =   -9080.05422613 Ry
     estimated scf accuracy    <       0.00005929 Ry

     iteration # 10     ecut=    30.00 Ry     beta= 0.70
     Davidson diagonalization with overlap
     ethr =  7.13E-09,  avg # of iterations =  3.0

     negative rho (up, down):  6.086E+00 0.000E+00

     total cpu time spent up to now is     3318.3 secs

     total energy              =   -9080.05423231 Ry
     estimated scf accuracy    <       0.00001875 Ry

     iteration # 11     ecut=    30.00 Ry     beta= 0.70
     Davidson diagonalization with overlap
     ethr =  2.25E-09,  avg # of iterations =  3.0

     negative rho (up, down):  6.086E+00 0.000E+00

     total cpu time spent up to now is     3384.8 secs

     total energy              =   -9080.05423192 Ry
     estimated scf accuracy    <       0.00002502 Ry

     iteration # 12     ecut=    30.00 Ry     beta= 0.70
     Davidson diagonalization with overlap
     ethr =  2.25E-09,  avg # of iterations =  2.0

     negative rho (up, down):  6.086E+00 0.000E+00

     total cpu time spent up to now is     3447.7 secs

     total energy              =   -9080.05423308 Ry
     estimated scf accuracy    <       0.00001379 Ry

     iteration # 13     ecut=    30.00 Ry     beta= 0.70
     Davidson diagonalization with overlap
     ethr =  1.66E-09,  avg # of iterations =  2.0

     negative rho (up, down):  6.086E+00 0.000E+00

     total cpu time spent up to now is     3509.7 secs

     total energy              =   -9080.05423381 Ry
     estimated scf accuracy    <       0.00000222 Ry

     iteration # 14     ecut=    30.00 Ry     beta= 0.70
     Davidson diagonalization with overlap
     ethr =  2.67E-10,  avg # of iterations =  4.0

     negative rho (up, down):  6.086E+00 0.000E+00

     total cpu time spent up to now is     3577.3 secs

     total energy              =   -9080.05423368 Ry
     estimated scf accuracy    <       0.00000977 Ry

     iteration # 15     ecut=    30.00 Ry     beta= 0.70
     Davidson diagonalization with overlap
     ethr =  2.67E-10,  avg # of iterations =  4.0

     negative rho (up, down):  6.086E+00 0.000E+00

     total cpu time spent up to now is     3637.2 secs

     total energy              =   -9080.05423331 Ry
     estimated scf accuracy    <       0.00002224 Ry

     iteration # 16     ecut=    30.00 Ry     beta= 0.70
     Davidson diagonalization with overlap
     ethr =  2.67E-10,  avg # of iterations =  4.0

     negative rho (up, down):  6.086E+00 0.000E+00

     total cpu time spent up to now is     3688.4 secs

     total energy              =   -9080.05423413 Ry
     estimated scf accuracy    <       0.00000285 Ry

     iteration # 17     ecut=    30.00 Ry     beta= 0.70
     Davidson diagonalization with overlap
     ethr =  2.67E-10,  avg # of iterations =  1.0

     negative rho (up, down):  6.086E+00 0.000E+00

     total cpu time spent up to now is     3729.4 secs

     total energy              =   -9080.05423426 Ry
     estimated scf accuracy    <       0.00000020 Ry

     iteration # 18     ecut=    30.00 Ry     beta= 0.70
     Davidson diagonalization with overlap
     ethr =  2.43E-11,  avg # of iterations =  3.0

     negative rho (up, down):  6.086E+00 0.000E+00

     total cpu time spent up to now is     3782.9 secs

     total energy              =   -9080.05423427 Ry
     estimated scf accuracy    <       0.00000028 Ry

     iteration # 19     ecut=    30.00 Ry     beta= 0.70
     Davidson diagonalization with overlap
     ethr =  2.43E-11,  avg # of iterations =  2.0

     negative rho (up, down):  6.086E+00 0.000E+00

     total cpu time spent up to now is     3833.7 secs

     total energy              =   -9080.05423428 Ry
     estimated scf accuracy    <       0.00000032 Ry

     iteration # 20     ecut=    30.00 Ry     beta= 0.70
     Davidson diagonalization with overlap
     ethr =  2.43E-11,  avg # of iterations =  2.0

     negative rho (up, down):  6.086E+00 0.000E+00

     total cpu time spent up to now is     3880.6 secs

     total energy              =   -9080.05423429 Ry
     estimated scf accuracy    <       0.00000005 Ry

     iteration # 21     ecut=    30.00 Ry     beta= 0.70
     Davidson diagonalization with overlap
     ethr =  6.29E-12,  avg # of iterations =  3.0

     negative rho (up, down):  6.086E+00 0.000E+00

     total cpu time spent up to now is     3932.3 secs

     total energy              =   -9080.05423429 Ry
     estimated scf accuracy    <       0.00000012 Ry

     iteration # 22     ecut=    30.00 Ry     beta= 0.70
     Davidson diagonalization with overlap
     ethr =  6.29E-12,  avg # of iterations =  3.0

     negative rho (up, down):  6.086E+00 0.000E+00

     total cpu time spent up to now is     3983.9 secs

     total energy              =   -9080.05423430 Ry
     estimated scf accuracy    <       0.00000005 Ry

     iteration # 23     ecut=    30.00 Ry     beta= 0.70
     Davidson diagonalization with overlap
     ethr =  6.10E-12,  avg # of iterations =  2.0

     negative rho (up, down):  6.086E+00 0.000E+00

     total cpu time spent up to now is     4039.7 secs

     total energy              =   -9080.05423430 Ry
     estimated scf accuracy    <       0.00000001 Ry

     iteration # 24     ecut=    30.00 Ry     beta= 0.70
     Davidson diagonalization with overlap
     ethr =  1.52E-12,  avg # of iterations =  2.0

     negative rho (up, down):  6.086E+00 0.000E+00

     total cpu time spent up to now is     4088.4 secs

     End of self-consistent calculation

          k = 0.0000 0.0000 0.0000 ( 20823 PWs)   bands (ev):

   -47.7443 -47.6994 -47.6994 -47.6994 -47.6994 -47.6872 -47.6872 -47.6772
   -47.6596 -47.6534 -47.6534 -47.6534 -47.6533 -47.6459 -47.6459 -47.6413
   -47.6413 -47.6413 -47.6413 -47.6399 -47.6399 -47.6399 -47.6399 -47.6377
   -47.6377 -47.6297 -47.6293 -47.6293 -47.6194 -47.6194 -47.6194 -47.6194
   -47.6070 -47.6070 -47.6070 -47.6070 -47.6052 -47.6052 -47.5816 -47.5610
   -47.5610 -47.5610 -47.5610 -47.5589 -47.5589 -47.5510 -47.5510 -47.5510
   -47.5510 -47.5499 -47.5431 -47.5431 -47.5355 -47.5287 -47.5287 -47.5287
   -47.5287 -47.4940 -47.4940 -47.4910 -47.4910 -47.4910 -47.4910 -47.4527
   -14.9581 -14.9372 -14.9372 -14.9372 -14.9372 -14.8946 -14.7722 -14.7722
   -14.7562 -14.7562 -14.7456 -14.7456 -14.7456 -14.7456 -14.7402 -14.7402
   -14.7402 -14.7402 -14.7368 -14.7368 -14.7320 -14.7320 -14.7320 -14.7320
   -14.6953 -14.6510 -14.6510 -14.6510 -14.6510 -14.6476 -14.6303 -14.6303
   -14.6303 -14.6303 -14.5894 -14.5894 -14.5894 -14.5894 -14.5848 -14.5848
   -14.5848 -14.5848 -14.5737 -14.5654 -14.5654 -14.5654 -14.5654 -14.5557
   -14.4616 -14.4616 -14.4616 -14.4616 -14.4123 -14.3623 -14.3623 -14.3409
   -14.3390 -14.3390 -14.3354 -14.3354 -14.3325 -14.3325 -14.3325 -14.3325
   -14.3011 -14.3011 -14.2939 -14.2904 -14.2904 -14.2844 -14.2844 -14.2818
   -14.2818 -14.2818 -14.2818 -14.2587 -14.2587 -14.2442 -14.2441 -14.2441
   -14.2441 -14.2248 -14.2240 -14.2240 -14.2205 -14.1789 -14.1789 -14.1692
   -14.1692 -14.1692 -14.1692 -14.1601 -14.1601 -14.1409 -14.1228 -14.1228
   -14.1228 -14.1228 -14.1157 -14.1157 -14.1157 -14.1157 -14.1061 -14.0909
   -14.0909 -14.0826 -14.0826 -14.0767 -14.0767 -14.0538 -14.0538 -14.0530
   -14.0217 -14.0217 -14.0215 -14.0215 -14.0122 -14.0122 -14.0122 -14.0122
   -13.9960 -13.9960 -13.9960 -13.9960 -13.9925 -13.9925 -13.9243 -13.9205
   -13.9205 -13.9205 -13.9205 -13.9075 -13.9075 -13.9075 -13.9075 -13.8797
   -13.8721 -13.8721 -13.8721 -13.8721 -13.8145 -13.8078 -13.8078 -13.8078
   -13.8078 -13.7858 -13.7858 -13.7858 -13.7858 -13.7634 -13.7634 -13.7633
   -13.7633 -13.7572 -13.7572 -13.7572 -13.7572 -13.7409 -13.7409 -13.7228
   -13.7228 -13.7228 -13.7228 -13.6943 -13.6907 -13.6710 -13.6710 -13.6710
   -13.6710 -13.6435 -13.6435 -13.6394 -13.6385 -13.6200 -13.6200 -13.6101
   -13.6101 -13.6101 -13.6101 -13.5927 -13.5927 -13.5927 -13.5927 -13.5558
   -13.5558 -13.5558 -13.5558 -13.5527 -13.5505 -13.5302 -13.5302 -13.5154
    11.3155  13.2106  13.2106  13.2106  13.2106  13.6295  13.6295  13.7499
    13.8331  14.8008  14.8024  14.8024  14.8024  14.8024  14.8379  14.9053
    14.9053  14.9053  14.9053  14.9057  14.9057  14.9057  14.9057  15.2719
    15.3476  15.5376  15.5376  15.6543  15.6543  15.6911  15.6911  16.0773
    16.0773  16.0773  16.0773  16.1365  16.1365  16.1798  16.1798  16.1798
    16.1798  16.2084  16.2084  16.2545  16.2545  16.2651  16.2652  16.2652
    16.2652  16.2727  16.2727  16.2727  16.2727  16.4214  16.4368  16.4368
    16.4368  16.4368  16.4443  16.5532  16.5532  16.5532  16.5532  16.5725
    16.5725  16.5725  16.5725  17.2870  17.4162  17.4162  17.4239  17.4445
    17.4602  17.4602  17.5343  17.6768  17.6768  17.6768  17.6768  17.7483
    17.7483  17.7483  17.7483  17.7524  17.7524  17.7524  17.7524  17.7645
[...]
     atom   32 type  1   force =     0.00000025    0.00000064    0.00000013
     atom   33 type  1   force =    -0.00000050    0.00000004   -0.00000014
     atom   34 type  1   force =     0.00000058   -0.00000074   -0.00000016
     atom   35 type  1   force =    -0.00000050   -0.00000010   -0.00000013
     atom   36 type  1   force =     0.00000042   -0.00000074   -0.00000016
     atom   37 type  1   force =    -0.00000096    0.00000022   -0.00000016
     atom   38 type  1   force =     0.00000096   -0.00000022   -0.00000016
     atom   39 type  1   force =    -0.00000096    0.00000010   -0.00000016
     atom   40 type  1   force =     0.00000096   -0.00000010   -0.00000016
     atom   41 type  1   force =    -0.00000058    0.00000074   -0.00000016
     atom   42 type  1   force =     0.00000050   -0.00000004   -0.00000014
     atom   43 type  1   force =    -0.00000042    0.00000074   -0.00000016
     atom   44 type  1   force =     0.00000050    0.00000010   -0.00000013
     atom   45 type  1   force =    -0.00000021    0.00000057   -0.00000010
     atom   46 type  1   force =     0.00000021   -0.00000057   -0.00000010
     atom   47 type  1   force =     0.00000004    0.00000057   -0.00000006
     atom   48 type  1   force =    -0.00000004   -0.00000057   -0.00000006
     atom   49 type  1   force =     0.00000000    0.00000000    0.00000040
     atom   50 type  1   force =     0.00000018   -0.00000000    0.00000041
     atom   51 type  1   force =     0.00000000    0.00000000    0.00000037
     atom   52 type  1   force =    -0.00000018    0.00000000    0.00000041
     atom   53 type  1   force =     0.00000040   -0.00000025    0.00000033
     atom   54 type  1   force =    -0.00000023   -0.00000079    0.00000034
     atom   55 type  1   force =     0.00000022   -0.00000038    0.00000034
     atom   56 type  1   force =    -0.00000040   -0.00000066    0.00000033
     atom   57 type  1   force =    -0.00000000    0.00000000    0.00000027
     atom   58 type  1   force =     0.00000000   -0.00000008    0.00000024
     atom   59 type  1   force =     0.00000000    0.00000000    0.00000027
     atom   60 type  1   force =    -0.00000000    0.00000008    0.00000024
     atom   61 type  1   force =    -0.00000040    0.00000025    0.00000033
     atom   62 type  1   force =     0.00000040    0.00000066    0.00000033
     atom   63 type  1   force =    -0.00000022    0.00000038    0.00000034
     atom   64 type  1   force =     0.00000023    0.00000079    0.00000034
     The Hubbard contrib.    to forces
     atom    1 type  1   force =     0.00000000    0.00000000    0.00000000
     atom    2 type  1   force =     0.00000000    0.00000000    0.00000000
     atom    3 type  1   force =     0.00000000    0.00000000    0.00000000
     atom    4 type  1   force =     0.00000000    0.00000000    0.00000000
     atom    5 type  1   force =     0.00000000    0.00000000    0.00000000
     atom    6 type  1   force =     0.00000000    0.00000000    0.00000000
     atom    7 type  1   force =     0.00000000    0.00000000    0.00000000
     atom    8 type  1   force =     0.00000000    0.00000000    0.00000000
     atom    9 type  1   force =     0.00000000    0.00000000    0.00000000
     atom   10 type  1   force =     0.00000000    0.00000000    0.00000000
     atom   11 type  1   force =     0.00000000    0.00000000    0.00000000
     atom   12 type  1   force =     0.00000000    0.00000000    0.00000000
     atom   13 type  1   force =     0.00000000    0.00000000    0.00000000
     atom   14 type  1   force =     0.00000000    0.00000000    0.00000000
     atom   15 type  1   force =     0.00000000    0.00000000    0.00000000
     atom   16 type  1   force =     0.00000000    0.00000000    0.00000000
     atom   17 type  1   force =     0.00000000    0.00000000    0.00000000
     atom   18 type  1   force =     0.00000000    0.00000000    0.00000000
     atom   19 type  1   force =     0.00000000    0.00000000    0.00000000
     atom   20 type  1   force =     0.00000000    0.00000000    0.00000000
     atom   21 type  1   force =     0.00000000    0.00000000    0.00000000
     atom   22 type  1   force =     0.00000000    0.00000000    0.00000000
     atom   23 type  1   force =     0.00000000    0.00000000    0.00000000
     atom   24 type  1   force =     0.00000000    0.00000000    0.00000000
     atom   25 type  1   force =     0.00000000    0.00000000    0.00000000
     atom   26 type  1   force =     0.00000000    0.00000000    0.00000000
     atom   27 type  1   force =     0.00000000    0.00000000    0.00000000
     atom   28 type  1   force =     0.00000000    0.00000000    0.00000000
     atom   29 type  1   force =     0.00000000    0.00000000    0.00000000
     atom   30 type  1   force =     0.00000000    0.00000000    0.00000000
     atom   31 type  1   force =     0.00000000    0.00000000    0.00000000
     atom   32 type  1   force =     0.00000000    0.00000000    0.00000000
     atom   33 type  1   force =     0.00000000    0.00000000    0.00000000
     atom   34 type  1   force =     0.00000000    0.00000000    0.00000000
     atom   35 type  1   force =     0.00000000    0.00000000    0.00000000
     atom   36 type  1   force =     0.00000000    0.00000000    0.00000000
     atom   37 type  1   force =     0.00000000    0.00000000    0.00000000
     atom   38 type  1   force =     0.00000000    0.00000000    0.00000000
     atom   39 type  1   force =     0.00000000    0.00000000    0.00000000
     atom   40 type  1   force =     0.00000000    0.00000000    0.00000000
     atom   41 type  1   force =     0.00000000    0.00000000    0.00000000
     atom   42 type  1   force =     0.00000000    0.00000000    0.00000000
     atom   43 type  1   force =     0.00000000    0.00000000    0.00000000
     atom   44 type  1   force =     0.00000000    0.00000000    0.00000000
     atom   45 type  1   force =     0.00000000    0.00000000    0.00000000
     atom   46 type  1   force =     0.00000000    0.00000000    0.00000000
     atom   47 type  1   force =     0.00000000    0.00000000    0.00000000
     atom   48 type  1   force =     0.00000000    0.00000000    0.00000000
     atom   49 type  1   force =     0.00000000    0.00000000    0.00000000
     atom   50 type  1   force =     0.00000000    0.00000000    0.00000000
     atom   51 type  1   force =     0.00000000    0.00000000    0.00000000
     atom   52 type  1   force =     0.00000000    0.00000000    0.00000000
     atom   53 type  1   force =     0.00000000    0.00000000    0.00000000
     atom   54 type  1   force =     0.00000000    0.00000000    0.00000000
     atom   55 type  1   force =     0.00000000    0.00000000    0.00000000
     atom   56 type  1   force =     0.00000000    0.00000000    0.00000000
     atom   57 type  1   force =     0.00000000    0.00000000    0.00000000
     atom   58 type  1   force =     0.00000000    0.00000000    0.00000000
     atom   59 type  1   force =     0.00000000    0.00000000    0.00000000
     atom   60 type  1   force =     0.00000000    0.00000000    0.00000000
     atom   61 type  1   force =     0.00000000    0.00000000    0.00000000
     atom   62 type  1   force =     0.00000000    0.00000000    0.00000000
     atom   63 type  1   force =     0.00000000    0.00000000    0.00000000
     atom   64 type  1   force =     0.00000000    0.00000000    0.00000000
     The SCF correction term to forces
     atom    1 type  1   force =    -0.00000000    0.00000406    0.00000037
     atom    2 type  1   force =     0.00000455    0.00000108    0.00000147
     atom    3 type  1   force =    -0.00000000   -0.00000130    0.00000371
     atom    4 type  1   force =    -0.00000455    0.00000108    0.00000147
     atom    5 type  1   force =    -0.00000285    0.00000336    0.00000033
     atom    6 type  1   force =     0.00000285   -0.00000336    0.00000033
     atom    7 type  1   force =    -0.00000285   -0.00000336    0.00000033
     atom    8 type  1   force =     0.00000285    0.00000336    0.00000033
     atom    9 type  1   force =    -0.00000455   -0.00000108    0.00000147
     atom   10 type  1   force =     0.00000000   -0.00000406    0.00000037
     atom   11 type  1   force =     0.00000455   -0.00000108    0.00000147
     atom   12 type  1   force =     0.00000000    0.00000130    0.00000371
     atom   13 type  1   force =    -0.00000173   -0.00000000    0.00000195
     atom   14 type  1   force =     0.00000173    0.00000000    0.00000195
     atom   15 type  1   force =     0.00000649   -0.00000000    0.00000565
     atom   16 type  1   force =    -0.00000649    0.00000000    0.00000565
     atom   17 type  1   force =     0.00000000   -0.00000000    0.00000262
     atom   18 type  1   force =     0.00000735   -0.00000000    0.00000203
     atom   19 type  1   force =     0.00000000   -0.00000000    0.00000104
     atom   20 type  1   force =    -0.00000735    0.00000000    0.00000203
     atom   21 type  1   force =     0.00000083    0.00000069    0.00000142
     atom   22 type  1   force =     0.00000659   -0.00000432    0.00000093
     atom   23 type  1   force =    -0.00000659   -0.00000432    0.00000093
     atom   24 type  1   force =    -0.00000083    0.00000069    0.00000142
     atom   25 type  1   force =    -0.00000000   -0.00000000   -0.00000071
     atom   26 type  1   force =     0.00000000   -0.00000538   -0.00000098
     atom   27 type  1   force =     0.00000000   -0.00000000   -0.00000071
     atom   28 type  1   force =    -0.00000000    0.00000538   -0.00000098
     atom   29 type  1   force =    -0.00000083   -0.00000069    0.00000142
     atom   30 type  1   force =     0.00000083   -0.00000069    0.00000142
     atom   31 type  1   force =     0.00000659    0.00000432    0.00000093
     atom   32 type  1   force =    -0.00000659    0.00000432    0.00000093
     atom   33 type  1   force =    -0.00000000    0.00000046    0.00000062
     atom   34 type  1   force =     0.00000437   -0.00000192   -0.00000007
     atom   35 type  1   force =     0.00000000   -0.00000374   -0.00000199
     atom   36 type  1   force =    -0.00000437   -0.00000192   -0.00000007
     atom   37 type  1   force =    -0.00000236    0.00000346    0.00000070
     atom   38 type  1   force =     0.00000236   -0.00000346    0.00000070
     atom   39 type  1   force =    -0.00000236   -0.00000346    0.00000070
     atom   40 type  1   force =     0.00000236    0.00000346    0.00000070
     atom   41 type  1   force =    -0.00000437    0.00000192   -0.00000007
     atom   42 type  1   force =     0.00000000   -0.00000046    0.00000062
     atom   43 type  1   force =     0.00000437    0.00000192   -0.00000007
     atom   44 type  1   force =    -0.00000000    0.00000374   -0.00000199
     atom   45 type  1   force =    -0.00000174    0.00000000   -0.00000076
     atom   46 type  1   force =     0.00000174   -0.00000000   -0.00000076
     atom   47 type  1   force =     0.00000552   -0.00000000   -0.00000377
     atom   48 type  1   force =    -0.00000552    0.00000000   -0.00000377
     atom   49 type  1   force =    -0.00000000    0.00000000   -0.00000377
     atom   50 type  1   force =     0.00000401    0.00000000   -0.00000363
     atom   51 type  1   force =    -0.00000000   -0.00000000   -0.00000309
     atom   52 type  1   force =    -0.00000401   -0.00000000   -0.00000363
     atom   53 type  1   force =     0.00000032    0.00000238   -0.00000251
     atom   54 type  1   force =     0.00000405    0.00000019   -0.00000251
     atom   55 type  1   force =    -0.00000405    0.00000019   -0.00000251
     atom   56 type  1   force =    -0.00000032    0.00000238   -0.00000251
     atom   57 type  1   force =    -0.00000000    0.00000000   -0.00000033
     atom   58 type  1   force =     0.00000000   -0.00000370   -0.00000019
     atom   59 type  1   force =    -0.00000000    0.00000000   -0.00000033
     atom   60 type  1   force =    -0.00000000    0.00000370   -0.00000019
     atom   61 type  1   force =    -0.00000032   -0.00000238   -0.00000251
     atom   62 type  1   force =     0.00000032   -0.00000238   -0.00000251
     atom   63 type  1   force =     0.00000405   -0.00000019   -0.00000251
     atom   64 type  1   force =    -0.00000405   -0.00000019   -0.00000251

     Total force =     0.000095     Total SCF correction =     0.000037
     SCF correction compared to forces is large: reduce conv_thr to get better values


     Computing stress (Cartesian axis) and pressure


     negative rho (up, down):  6.084E+00 0.000E+00
          total   stress  (Ry/bohr**3)                   (kbar)     P=       87.47
   0.00052822   0.00000000   0.00000000           77.70        0.00        0.00
   0.00000000   0.00072752   0.00000000            0.00      107.02        0.00
   0.00000000   0.00000000   0.00052800            0.00        0.00       77.67

     Energy error            =      1.5E-06 Ry
     Gradient error          =      1.5E-05 Ry/Bohr

     bfgs converged in   8 scf cycles and   7 bfgs steps
     (criteria: energy <  1.0E-05 Ry, force <  1.0E-04 Ry/Bohr)

     End of BFGS Geometry Optimization

     Final energy             =   -9080.1782655290 Ry

     File ./pwscf.bfgs deleted, as requested
Begin final coordinates

ATOMIC_POSITIONS (angstrom)
Ta            0.0000000000        2.3375520278        1.1266003817
Ta            3.3057989149        2.3375552352        1.1265998049
Ta            6.6116000000        2.3375537297        1.1266005566
Ta            9.9174010851        2.3375552352        1.1265998049
Ta            1.6528990575        4.6751060312        1.1266007328
Ta            4.9587009425        4.6751083578        1.1266007328
Ta            8.2644990575        4.6751083578        1.1266007328
Ta           11.5703009425        4.6751060312        1.1266007328
Ta            3.3058010851        7.0126591537        1.1265998049
Ta            6.6116000000        7.0126623611        1.1266003817
Ta            9.9173989149        7.0126591537        1.1265998049
Ta           13.2232000000        7.0126606592        1.1266005566
Ta            4.9587048675        9.3502143890        1.1266024465
Ta            8.2644951325        9.3502143890        1.1266024465
Ta           11.5703007410        9.3502143890        1.1266027565
Ta           14.8760992590        9.3502143890        1.1266027565
Ta            0.0000000000        0.0000000000        3.3797720090
Ta            3.3057982817        0.0000000000        3.3797725472
Ta            6.6116000000        0.0000000000        3.3797716007
Ta            9.9174017183        0.0000000000        3.3797725472
Ta            1.6529017010        2.3375522438        3.3797707930
Ta            4.9586960214        2.3375542641        3.3797710071
Ta            8.2645039786        2.3375542641        3.3797710071
Ta           11.5702982990        2.3375522438        3.3797707930
Ta            3.3058000000        4.6751071945        3.3797688011
Ta            6.6116000000        4.6751091091        3.3797686686
Ta            9.9174000000        4.6751071945        3.3797688011
Ta           13.2232000000        4.6751052799        3.3797686686
Ta            4.9586982990        7.0126621451        3.3797707930
Ta            8.2645017010        7.0126621451        3.3797707930
Ta           11.5702960214        7.0126601248        3.3797710071
Ta           14.8761039786        7.0126601248        3.3797710071
Ta            0.0000000000        2.3375506613        5.6328892420
Ta            3.3057983873        2.3375545168        5.6328908835
Ta            6.6116000000        2.3375536723        5.6328899471
Ta            9.9174016127        2.3375545168        5.6328908835
Ta            1.6528995353        4.6751059232        5.6328897102
Ta            4.9587004647        4.6751084658        5.6328897102
Ta            8.2644995353        4.6751084658        5.6328897102
Ta           11.5703004647        4.6751059232        5.6328897102
Ta            3.3058016127        7.0126598721        5.6328908835
Ta            6.6116000000        7.0126637276        5.6328892420
Ta            9.9173983873        7.0126598721        5.6328908835
Ta           13.2232000000        7.0126607166        5.6328899471
Ta            4.9587049478        9.3502143890        5.6328873905
Ta            8.2644950522        9.3502143890        5.6328873905
Ta           11.5702994701        9.3502143890        5.6328875377
Ta           14.8761005299        9.3502143890        5.6328875377
Ta            0.0000000000        0.0000000000        7.8860588298
Ta            3.3057969110        0.0000000000        7.8860584650
Ta            6.6116000000        0.0000000000        7.8860606318
Ta            9.9174030890        0.0000000000        7.8860584650
Ta            1.6529019559        2.3375531916        7.8860603093
Ta            4.9586947699        2.3375552100        7.8860604256
Ta            8.2645052301        2.3375552100        7.8860604256
Ta           11.5702980441        2.3375531916        7.8860603093
Ta            3.3058000000        4.6751071945        7.8860617623
Ta            6.6116000000        4.6751084236        7.8860632961
Ta            9.9174000000        4.6751071945        7.8860617623
Ta           13.2232000000        4.6751059654        7.8860632961
Ta            4.9586980441        7.0126611973        7.8860603093
Ta            8.2645019559        7.0126611973        7.8860603093
Ta           11.5702947699        7.0126591789        7.8860604256
Ta           14.8761052301        7.0126591789        7.8860604256
End final coordinates



     Writing all to output data dir ./pwscf.save/

     init_run     :     36.72s CPU     37.04s WALL (       1 calls)
     electrons    :  10271.50s CPU  10335.37s WALL (       8 calls)
     update_pot   :      1.29s CPU      1.30s WALL (       7 calls)
     forces       :    141.75s CPU    142.47s WALL (       8 calls)
     stress       :    501.05s CPU    502.47s WALL (       8 calls)

     Called by init_run:
     wfcinit      :     34.89s CPU     35.16s WALL (       1 calls)
     potinit      :      0.10s CPU      0.10s WALL (       1 calls)
     hinit0       :      0.40s CPU      0.42s WALL (       1 calls)

     Called by electrons:
     c_bands      :   9231.32s CPU   9280.90s WALL (     167 calls)
     sum_band     :    858.81s CPU    869.25s WALL (     167 calls)
     v_of_rho     :      3.67s CPU      3.81s WALL (     172 calls)
     newd         :    185.12s CPU    188.89s WALL (     172 calls)
     mix_rho      :      0.89s CPU      0.90s WALL (     167 calls)

     Called by c_bands:
     init_us_2    :      5.19s CPU      5.22s WALL (     335 calls)
     init_us_2:cp :      5.19s CPU      5.22s WALL (     335 calls)
     cegterg      :   9201.64s CPU   9251.09s WALL (     167 calls)

     Called by *egterg:
     cdiaghg      :    961.88s CPU    972.03s WALL (     835 calls)
     h_psi        :   3340.34s CPU   3369.62s WALL (     846 calls)
     s_psi        :   1496.90s CPU   1498.44s WALL (     846 calls)
     g_psi        :      1.00s CPU      1.00s WALL (     678 calls)

     Called by h_psi:
     h_psi:calbec :   1591.80s CPU   1595.78s WALL (     846 calls)
     vloc_psi     :    250.69s CPU    272.40s WALL (     846 calls)
     add_vuspsi   :   1496.27s CPU   1498.52s WALL (     846 calls)

     General routines
     calbec       :   2381.85s CPU   2387.71s WALL (    1053 calls)
     fft          :      2.49s CPU      2.60s WALL (    2102 calls)
     ffts         :      0.36s CPU      0.37s WALL (     167 calls)
     fftw         :    281.11s CPU    305.68s WALL (  492733 calls)

     Parallel routines

     PWSCF        :      3h 2m CPU      3h 3m WALL


   This run was terminated on:  23:53:11   4May2023            

=------------------------------------------------------------------------------=
   JOB DONE.
=------------------------------------------------------------------------------=
