
     Program PWSCF v.7.2 starts on  4Jun2023 at 18:55: 0 

     This program is part of the open-source Quantum ESPRESSO suite
     for quantum simulation of materials; please cite
         "P. Giannozzi et al., J. Phys.:Condens. Matter 21 395502 (2009);
         "P. Giannozzi et al., J. Phys.:Condens. Matter 29 465901 (2017);
         "P. Giannozzi et al., J. Chem. Phys. 152 154105 (2020);
          URL http://www.quantum-espresso.org", 
     in publications or presentations arising from this work. More details at
     http://www.quantum-espresso.org/quote

     Parallel version (MPI), running on    12 processors

     MPI processes distributed on     1 nodes
     77056 MiB available memory on the printing compute node when the environment starts

     Reading input from test2_materialscloud.in

     Current dimensions of program PWSCF are:
     Max number of different atomic species (ntypx) = 10
     Max number of k-points (npk) =  40000
     Max angular momentum in pseudopotentials (lmaxx) =  4

     gamma-point specific algorithms are used

     R & G space division:  proc/nbgrp/npool/nimage =      12
     Subspace diagonalization in iterative solution of the eigenvalue problem:
     one sub-group per band group will be used
     custom distributed-memory algorithm (size of sub-group:  2*  2 procs)


     Parallelization info
     --------------------
     sticks:   dense  smooth     PW     G-vecs:    dense   smooth      PW
     Min        1013     505    125                84173    29765    3705
     Max        1018     510    130                84176    29772    3708
     Sum       12185    6093   1517              1010093   357213   44473

     Using Slab Decomposition



     bravais-lattice index     =            0
     lattice parameter (alat)  =      12.6234  a.u.
     unit-cell volume          =    2011.5276 (a.u.)^3
     number of atoms/cell      =           32
     number of atomic types    =            4
     number of electrons       =       400.00
     number of Kohn-Sham states=          240
     kinetic-energy cutoff     =     120.0000  Ry
     charge density cutoff     =     960.0000  Ry
     scf convergence threshold =      1.0E-06
     mixing beta               =       0.4000
     number of iterations used =            8  plain     mixing
     energy convergence thresh.=      1.0E-03
     force convergence thresh. =      1.0E-02
     Exchange-correlation= SLA  PW   PBE  PBE
                           (   1   4   3   4   0   0   0)
     nstep                     =           50


     celldm(1)=  12.623371  celldm(2)=   0.000000  celldm(3)=   0.000000
     celldm(4)=   0.000000  celldm(5)=   0.000000  celldm(6)=   0.000000

     crystal axes: (cart. coord. in units of alat)
               a(1) = (   1.000000   0.000000   0.000000 )  
               a(2) = (   0.000000   1.000000   0.000000 )  
               a(3) = (   0.000000   0.000000   1.000000 )  

     reciprocal axes: (cart. coord. in units 2 pi/alat)
               b(1) = (  1.000000  0.000000  0.000000 )  
               b(2) = (  0.000000  1.000000  0.000000 )  
               b(3) = (  0.000000  0.000000  1.000000 )  


     PseudoPot. # 1 for Hf read from file:
     q-e/pseudo/hf_pbe_v1.uspp.F.UPF
     MD5 check sum: 8ee9378dfe14276e333edf04c5e4aa26
     Pseudo is Ultrasoft + core correction, Zval = 12.0
     Generated by new atomic code, or converted to UPF format
     Using radial grid of  921 points,  8 beta functions with: 
                l(1) =   0
                l(2) =   0
                l(3) =   0
                l(4) =   1
                l(5) =   1
                l(6) =   2
                l(7) =   2
                l(8) =   3
     Q(r) pseudized with  6 coefficients,  rinner =    1.200   1.200   1.200
                                                       1.200   1.200   1.200
                                                       1.200

     PseudoPot. # 2 for Ta read from file:
     q-e/pseudo/ta_pbe_v1.uspp.F.UPF
     MD5 check sum: f8bbe9446314a3b8ea5d9f3e3836c939
     Pseudo is Ultrasoft + core correction, Zval = 13.0
     Generated by new atomic code, or converted to UPF format
     Using radial grid of  921 points,  7 beta functions with: 
                l(1) =   0
                l(2) =   0
                l(3) =   1
                l(4) =   1
                l(5) =   2
                l(6) =   2
                l(7) =   3
     Q(r) pseudized with  6 coefficients,  rinner =    1.300   1.300   1.300
                                                       1.300   1.300   1.300
                                                       1.300

     PseudoPot. # 3 for Nb read from file:
     q-e/pseudo/nb_pbe_v1.uspp.F.UPF
     MD5 check sum: 573aab8a2fa660278ed4a62cd769473f
     Pseudo is Ultrasoft + core correction, Zval = 13.0
     Generated by new atomic code, or converted to UPF format
     Using radial grid of  887 points,  6 beta functions with: 
                l(1) =   0
                l(2) =   0
                l(3) =   1
                l(4) =   1
                l(5) =   2
                l(6) =   2
     Q(r) pseudized with  6 coefficients,  rinner =    1.000   1.000   1.000
                                                       1.000   1.000

     PseudoPot. # 4 for Zr read from file:
     q-e/pseudo/zr_pbe_v1.uspp.F.UPF
     MD5 check sum: 5db81b1e868ab7776c4564c113de050b
     Pseudo is Ultrasoft + core correction, Zval = 12.0
     Generated by new atomic code, or converted to UPF format
     Using radial grid of  887 points,  6 beta functions with: 
                l(1) =   0
                l(2) =   0
                l(3) =   1
                l(4) =   1
                l(5) =   2
                l(6) =   2
     Q(r) pseudized with  6 coefficients,  rinner =    1.200   1.200   1.200
                                                       1.200   1.200

     atomic species   valence    mass     pseudopotential
        Hf            12.00   178.49000     Hf( 1.00)
        Ta            13.00   180.94788     Ta( 1.00)
        Nb            13.00    92.90637     Nb( 1.00)
        Zr            12.00    91.22400     Zr( 1.00)

     No symmetry found


                                    s                        frac. trans.

      isym =  1     identity                                     

 cryst.   s( 1) = (     1          0          0      )
                  (     0          1          0      )
                  (     0          0          1      )

 cart.    s( 1) = (  1.0000000  0.0000000  0.0000000 )
                  (  0.0000000  1.0000000  0.0000000 )
                  (  0.0000000  0.0000000  1.0000000 )


   Cartesian axes

     site n.     atom                  positions (alat units)
         1           Hf  tau(   1) = (   0.2500000   0.7500000   0.3750000  )
         2           Hf  tau(   2) = (   0.2500000   0.7500000   0.8750000  )
         3           Hf  tau(   3) = (   0.5000000   0.5000000   0.7500000  )
         4           Hf  tau(   4) = (   0.5000000   0.0000000   0.2500000  )
         5           Hf  tau(   5) = (   0.5000000   0.0000000   0.7500000  )
         6           Hf  tau(   6) = (   0.7500000   0.7500000   0.6250000  )
         7           Hf  tau(   7) = (   0.0000000   0.5000000   0.0000000  )
         8           Hf  tau(   8) = (   0.0000000   0.0000000   0.7500000  )
         9           Ta  tau(   9) = (   0.2500000   0.2500000   0.6250000  )
        10           Ta  tau(  10) = (   0.2500000   0.2500000   0.8750000  )
        11           Ta  tau(  11) = (   0.5000000   0.0000000   0.0000000  )
        12           Ta  tau(  12) = (   0.7500000   0.2500000   0.3750000  )
        13           Ta  tau(  13) = (   0.7500000   0.2500000   0.6250000  )
        14           Ta  tau(  14) = (   0.7500000   0.2500000   0.8750000  )
        15           Ta  tau(  15) = (   0.7500000   0.7500000   0.1250000  )
        16           Ta  tau(  16) = (   0.0000000   0.5000000   0.5000000  )
        17           Nb  tau(  17) = (   0.2500000   0.2500000   0.3750000  )
        18           Nb  tau(  18) = (   0.5000000   0.5000000   0.2500000  )
        19           Nb  tau(  19) = (   0.5000000   0.5000000   0.5000000  )
        20           Nb  tau(  20) = (   0.5000000   0.0000000   0.5000000  )
        21           Nb  tau(  21) = (   0.7500000   0.7500000   0.3750000  )
        22           Nb  tau(  22) = (   0.0000000   0.5000000   0.2500000  )
        23           Nb  tau(  23) = (   0.0000000   0.0000000   0.2500000  )
        24           Nb  tau(  24) = (   0.0000000   0.0000000   0.0000000  )
        25           Zr  tau(  25) = (   0.2500000   0.2500000   0.1250000  )
        26           Zr  tau(  26) = (   0.2500000   0.7500000   0.1250000  )
        27           Zr  tau(  27) = (   0.2500000   0.7500000   0.6250000  )
        28           Zr  tau(  28) = (   0.5000000   0.5000000   0.0000000  )
        29           Zr  tau(  29) = (   0.7500000   0.2500000   0.1250000  )
        30           Zr  tau(  30) = (   0.7500000   0.7500000   0.8750000  )
        31           Zr  tau(  31) = (   0.0000000   0.5000000   0.7500000  )
        32           Zr  tau(  32) = (   0.0000000   0.0000000   0.5000000  )

   Crystallographic axes

     site n.     atom                  positions (cryst. coord.)
         1           Hf  tau(   1) = (  0.2500000  0.7500000  0.3750000  )
         2           Hf  tau(   2) = (  0.2500000  0.7500000  0.8750000  )
         3           Hf  tau(   3) = (  0.5000000  0.5000000  0.7500000  )
         4           Hf  tau(   4) = (  0.5000000  0.0000000  0.2500000  )
         5           Hf  tau(   5) = (  0.5000000  0.0000000  0.7500000  )
         6           Hf  tau(   6) = (  0.7500000  0.7500000  0.6250000  )
         7           Hf  tau(   7) = (  0.0000000  0.5000000  0.0000000  )
         8           Hf  tau(   8) = (  0.0000000  0.0000000  0.7500000  )
         9           Ta  tau(   9) = (  0.2500000  0.2500000  0.6250000  )
        10           Ta  tau(  10) = (  0.2500000  0.2500000  0.8750000  )
        11           Ta  tau(  11) = (  0.5000000  0.0000000  0.0000000  )
        12           Ta  tau(  12) = (  0.7500000  0.2500000  0.3750000  )
        13           Ta  tau(  13) = (  0.7500000  0.2500000  0.6250000  )
        14           Ta  tau(  14) = (  0.7500000  0.2500000  0.8750000  )
        15           Ta  tau(  15) = (  0.7500000  0.7500000  0.1250000  )
        16           Ta  tau(  16) = (  0.0000000  0.5000000  0.5000000  )
        17           Nb  tau(  17) = (  0.2500000  0.2500000  0.3750000  )
        18           Nb  tau(  18) = (  0.5000000  0.5000000  0.2500000  )
        19           Nb  tau(  19) = (  0.5000000  0.5000000  0.5000000  )
        20           Nb  tau(  20) = (  0.5000000  0.0000000  0.5000000  )
        21           Nb  tau(  21) = (  0.7500000  0.7500000  0.3750000  )
        22           Nb  tau(  22) = (  0.0000000  0.5000000  0.2500000  )
        23           Nb  tau(  23) = (  0.0000000  0.0000000  0.2500000  )
        24           Nb  tau(  24) = (  0.0000000  0.0000000  0.0000000  )
        25           Zr  tau(  25) = (  0.2500000  0.2500000  0.1250000  )
        26           Zr  tau(  26) = (  0.2500000  0.7500000  0.1250000  )
        27           Zr  tau(  27) = (  0.2500000  0.7500000  0.6250000  )
        28           Zr  tau(  28) = (  0.5000000  0.5000000  0.0000000  )
        29           Zr  tau(  29) = (  0.7500000  0.2500000  0.1250000  )
        30           Zr  tau(  30) = (  0.7500000  0.7500000  0.8750000  )
        31           Zr  tau(  31) = (  0.0000000  0.5000000  0.7500000  )
        32           Zr  tau(  32) = (  0.0000000  0.0000000  0.5000000  )

     number of k points=     1  Marzari-Vanderbilt smearing, width (Ry)=  0.0147
                       cart. coord. in units 2pi/alat
        k(    1) = (   0.0000000   0.0000000   0.0000000), wk =   2.0000000

                       cryst. coord.
        k(    1) = (   0.0000000   0.0000000   0.0000000), wk =   2.0000000

     Dense  grid:   505047 G-vectors     FFT dimensions: ( 125, 125, 125)

     Smooth grid:   178607 G-vectors     FFT dimensions: (  90,  90,  90)

     Dynamical RAM for                 wfc:       6.81 MB

     Dynamical RAM for     wfc (w. buffer):       6.81 MB

     Dynamical RAM for           str. fact:       2.57 MB

     Dynamical RAM for           local pot:       0.00 MB

     Dynamical RAM for          nlocal pot:      19.75 MB

     Dynamical RAM for                qrad:      23.86 MB

     Dynamical RAM for          rho,v,vnew:       5.86 MB

     Dynamical RAM for               rhoin:       1.95 MB

     Dynamical RAM for            rho*nmix:      10.28 MB

     Dynamical RAM for           G-vectors:       2.52 MB

     Dynamical RAM for          h,s,v(r/c):       1.32 MB

     Dynamical RAM for          <psi|beta>:       1.27 MB

     Dynamical RAM for                 psi:      13.62 MB

     Dynamical RAM for                hpsi:      13.62 MB

     Dynamical RAM for                spsi:      13.62 MB

     Dynamical RAM for      wfcinit/wfcrot:      27.58 MB

     Dynamical RAM for           addusdens:     247.89 MB

     Dynamical RAM for          addusforce:     257.27 MB

     Estimated static dynamical RAM per process >      73.09 MB

     Estimated max dynamical RAM per process >     340.64 MB

     Estimated total dynamical RAM >       3.99 GB

     Initial potential from superposition of free atoms

     starting charge     383.9520, renormalised to     400.0000

     negative rho (up, down):  2.005E+00 0.000E+00
     Starting wfcs are  416 randomized atomic wfcs

     total cpu time spent up to now is       10.8 secs

     Self-consistent Calculation

     iteration #  1     ecut=   120.00 Ry     beta= 0.40
     Davidson diagonalization with overlap

---- Real-time Memory Report at c_bands before calling an iterative solver
           328 MiB given to the printing process from OS
             0 MiB allocation reported by mallinfo(arena+hblkhd)
         75682 MiB available memory on the node where the printing process lives
------------------
     ethr =  1.00E-02,  avg # of iterations =  2.0

     negative rho (up, down):  1.926E+00 0.000E+00

     total cpu time spent up to now is       28.2 secs

     total energy              =   -4005.87109933 Ry
     estimated scf accuracy    <     174.92940765 Ry

     iteration #  2     ecut=   120.00 Ry     beta= 0.40
     Davidson diagonalization with overlap

---- Real-time Memory Report at c_bands before calling an iterative solver
           357 MiB given to the printing process from OS
             0 MiB allocation reported by mallinfo(arena+hblkhd)
         75664 MiB available memory on the node where the printing process lives
------------------
     ethr =  1.00E-02,  avg # of iterations =  6.0

     negative rho (up, down):  1.893E+00 0.000E+00

     total cpu time spent up to now is       55.1 secs

     total energy              =   -4013.23682705 Ry
     estimated scf accuracy    <    1049.39424450 Ry

     iteration #  3     ecut=   120.00 Ry     beta= 0.40
     Davidson diagonalization with overlap

---- Real-time Memory Report at c_bands before calling an iterative solver
           357 MiB given to the printing process from OS
             0 MiB allocation reported by mallinfo(arena+hblkhd)
         75667 MiB available memory on the node where the printing process lives
------------------
     ethr =  1.00E-02,  avg # of iterations =  4.0

     negative rho (up, down):  1.894E+00 0.000E+00

     total cpu time spent up to now is       77.0 secs

     total energy              =   -4096.42126955 Ry
     estimated scf accuracy    <      29.32806768 Ry

     iteration #  4     ecut=   120.00 Ry     beta= 0.40
     Davidson diagonalization with overlap

---- Real-time Memory Report at c_bands before calling an iterative solver
           357 MiB given to the printing process from OS
             0 MiB allocation reported by mallinfo(arena+hblkhd)
         75627 MiB available memory on the node where the printing process lives
------------------
     ethr =  7.33E-03,  avg # of iterations =  3.0

     negative rho (up, down):  1.892E+00 0.000E+00

     total cpu time spent up to now is       92.4 secs

     total energy              =   -4097.60853207 Ry
     estimated scf accuracy    <       6.88049037 Ry

     iteration #  5     ecut=   120.00 Ry     beta= 0.40
     Davidson diagonalization with overlap

---- Real-time Memory Report at c_bands before calling an iterative solver
           359 MiB given to the printing process from OS
             0 MiB allocation reported by mallinfo(arena+hblkhd)
         75638 MiB available memory on the node where the printing process lives
------------------
     ethr =  1.72E-03,  avg # of iterations =  3.0

     negative rho (up, down):  1.888E+00 0.000E+00

     total cpu time spent up to now is      108.1 secs

     total energy              =   -4097.77643019 Ry
     estimated scf accuracy    <       2.79991565 Ry

     iteration #  6     ecut=   120.00 Ry     beta= 0.40
     Davidson diagonalization with overlap

---- Real-time Memory Report at c_bands before calling an iterative solver
           360 MiB given to the printing process from OS
             0 MiB allocation reported by mallinfo(arena+hblkhd)
         75630 MiB available memory on the node where the printing process lives
------------------
     ethr =  7.00E-04,  avg # of iterations = 10.0

     negative rho (up, down):  1.881E+00 0.000E+00

     total cpu time spent up to now is      124.4 secs

     total energy              =   -4097.83225840 Ry
     estimated scf accuracy    <       0.76376300 Ry

     iteration #  7     ecut=   120.00 Ry     beta= 0.40
     Davidson diagonalization with overlap

---- Real-time Memory Report at c_bands before calling an iterative solver
           362 MiB given to the printing process from OS
             0 MiB allocation reported by mallinfo(arena+hblkhd)
         75621 MiB available memory on the node where the printing process lives
------------------
     ethr =  1.91E-04,  avg # of iterations =  7.0

     negative rho (up, down):  1.872E+00 0.000E+00

     total cpu time spent up to now is      141.2 secs

     total energy              =   -4097.85183781 Ry
     estimated scf accuracy    <       0.32950950 Ry

     iteration #  8     ecut=   120.00 Ry     beta= 0.40
     Davidson diagonalization with overlap

---- Real-time Memory Report at c_bands before calling an iterative solver
           362 MiB given to the printing process from OS
             0 MiB allocation reported by mallinfo(arena+hblkhd)
         75606 MiB available memory on the node where the printing process lives
------------------
     ethr =  8.24E-05,  avg # of iterations =  7.0

     negative rho (up, down):  1.866E+00 0.000E+00

     total cpu time spent up to now is      157.6 secs

     total energy              =   -4097.85960912 Ry
     estimated scf accuracy    <       0.13937974 Ry

     iteration #  9     ecut=   120.00 Ry     beta= 0.40
     Davidson diagonalization with overlap

---- Real-time Memory Report at c_bands before calling an iterative solver
           363 MiB given to the printing process from OS
             0 MiB allocation reported by mallinfo(arena+hblkhd)
         75586 MiB available memory on the node where the printing process lives
------------------
     ethr =  3.48E-05,  avg # of iterations =  5.0

     negative rho (up, down):  1.862E+00 0.000E+00

     total cpu time spent up to now is      175.8 secs

     total energy              =   -4097.86594656 Ry
     estimated scf accuracy    <       0.22691134 Ry

     iteration # 10     ecut=   120.00 Ry     beta= 0.40
     Davidson diagonalization with overlap

---- Real-time Memory Report at c_bands before calling an iterative solver
           363 MiB given to the printing process from OS
             0 MiB allocation reported by mallinfo(arena+hblkhd)
         75535 MiB available memory on the node where the printing process lives
------------------
     ethr =  3.48E-05,  avg # of iterations =  2.0

     negative rho (up, down):  1.862E+00 0.000E+00

     total cpu time spent up to now is      192.1 secs

     total energy              =   -4097.87970179 Ry
     estimated scf accuracy    <       0.02543973 Ry

     iteration # 11     ecut=   120.00 Ry     beta= 0.40
     Davidson diagonalization with overlap

---- Real-time Memory Report at c_bands before calling an iterative solver
           363 MiB given to the printing process from OS
             0 MiB allocation reported by mallinfo(arena+hblkhd)
         75596 MiB available memory on the node where the printing process lives
------------------
     c_bands:  1 eigenvalues not converged
     ethr =  6.36E-06,  avg # of iterations = 20.0

     negative rho (up, down):  1.862E+00 0.000E+00

     total cpu time spent up to now is      209.9 secs

     total energy              =   -4097.88141514 Ry
     estimated scf accuracy    <       0.00786563 Ry

     iteration # 12     ecut=   120.00 Ry     beta= 0.40
     Davidson diagonalization with overlap

---- Real-time Memory Report at c_bands before calling an iterative solver
           363 MiB given to the printing process from OS
             0 MiB allocation reported by mallinfo(arena+hblkhd)
         75565 MiB available memory on the node where the printing process lives
------------------
     ethr =  1.97E-06,  avg # of iterations = 12.0

     negative rho (up, down):  1.861E+00 0.000E+00

     total cpu time spent up to now is      226.6 secs

     total energy              =   -4097.88221639 Ry
     estimated scf accuracy    <       0.00106876 Ry

     iteration # 13     ecut=   120.00 Ry     beta= 0.40
     Davidson diagonalization with overlap

---- Real-time Memory Report at c_bands before calling an iterative solver
           363 MiB given to the printing process from OS
             0 MiB allocation reported by mallinfo(arena+hblkhd)
         75580 MiB available memory on the node where the printing process lives
------------------
     ethr =  2.67E-07,  avg # of iterations =  3.0

     negative rho (up, down):  1.861E+00 0.000E+00

     total cpu time spent up to now is      242.8 secs

     total energy              =   -4097.88226839 Ry
     estimated scf accuracy    <       0.00070910 Ry

     iteration # 14     ecut=   120.00 Ry     beta= 0.40
     Davidson diagonalization with overlap

---- Real-time Memory Report at c_bands before calling an iterative solver
           363 MiB given to the printing process from OS
             0 MiB allocation reported by mallinfo(arena+hblkhd)
         75597 MiB available memory on the node where the printing process lives
------------------
     ethr =  1.77E-07,  avg # of iterations =  3.0

     negative rho (up, down):  1.861E+00 0.000E+00

     total cpu time spent up to now is      258.7 secs

     total energy              =   -4097.88232423 Ry
     estimated scf accuracy    <       0.00056957 Ry

     iteration # 15     ecut=   120.00 Ry     beta= 0.40
     Davidson diagonalization with overlap

---- Real-time Memory Report at c_bands before calling an iterative solver
           363 MiB given to the printing process from OS
             0 MiB allocation reported by mallinfo(arena+hblkhd)
         75573 MiB available memory on the node where the printing process lives
------------------
     ethr =  1.42E-07,  avg # of iterations =  2.0

     negative rho (up, down):  1.861E+00 0.000E+00

     total cpu time spent up to now is      273.9 secs

     total energy              =   -4097.88235825 Ry
     estimated scf accuracy    <       0.00008401 Ry

     iteration # 16     ecut=   120.00 Ry     beta= 0.40
     Davidson diagonalization with overlap

---- Real-time Memory Report at c_bands before calling an iterative solver
           363 MiB given to the printing process from OS
             0 MiB allocation reported by mallinfo(arena+hblkhd)
         75571 MiB available memory on the node where the printing process lives
------------------
     ethr =  2.10E-08,  avg # of iterations =  4.0

     negative rho (up, down):  1.861E+00 0.000E+00

     total cpu time spent up to now is      291.3 secs

     total energy              =   -4097.88235422 Ry
     estimated scf accuracy    <       0.00031222 Ry

     iteration # 17     ecut=   120.00 Ry     beta= 0.40
     Davidson diagonalization with overlap

---- Real-time Memory Report at c_bands before calling an iterative solver
           363 MiB given to the printing process from OS
             0 MiB allocation reported by mallinfo(arena+hblkhd)
         75569 MiB available memory on the node where the printing process lives
------------------
     ethr =  2.10E-08,  avg # of iterations =  3.0

     negative rho (up, down):  1.861E+00 0.000E+00

     total cpu time spent up to now is      307.9 secs

     total energy              =   -4097.88237408 Ry
     estimated scf accuracy    <       0.00004060 Ry

     iteration # 18     ecut=   120.00 Ry     beta= 0.40
     Davidson diagonalization with overlap

---- Real-time Memory Report at c_bands before calling an iterative solver
           363 MiB given to the printing process from OS
             0 MiB allocation reported by mallinfo(arena+hblkhd)
         75580 MiB available memory on the node where the printing process lives
------------------
     ethr =  1.02E-08,  avg # of iterations =  2.0

     negative rho (up, down):  1.861E+00 0.000E+00

     total cpu time spent up to now is      323.2 secs

     total energy              =   -4097.88237747 Ry
     estimated scf accuracy    <       0.00000454 Ry

     iteration # 19     ecut=   120.00 Ry     beta= 0.40
     Davidson diagonalization with overlap

---- Real-time Memory Report at c_bands before calling an iterative solver
           363 MiB given to the printing process from OS
             0 MiB allocation reported by mallinfo(arena+hblkhd)
         75573 MiB available memory on the node where the printing process lives
------------------
     ethr =  1.14E-09,  avg # of iterations =  3.0

     negative rho (up, down):  1.861E+00 0.000E+00

     total cpu time spent up to now is      339.6 secs

     total energy              =   -4097.88237755 Ry
     estimated scf accuracy    <       0.00000804 Ry

     iteration # 20     ecut=   120.00 Ry     beta= 0.40
     Davidson diagonalization with overlap

---- Real-time Memory Report at c_bands before calling an iterative solver
           363 MiB given to the printing process from OS
             0 MiB allocation reported by mallinfo(arena+hblkhd)
         75550 MiB available memory on the node where the printing process lives
------------------
     ethr =  1.14E-09,  avg # of iterations =  3.0

     negative rho (up, down):  1.861E+00 0.000E+00

     total cpu time spent up to now is      355.2 secs

     total energy              =   -4097.88237820 Ry
     estimated scf accuracy    <       0.00000124 Ry

     iteration # 21     ecut=   120.00 Ry     beta= 0.40
     Davidson diagonalization with overlap

---- Real-time Memory Report at c_bands before calling an iterative solver
           363 MiB given to the printing process from OS
             0 MiB allocation reported by mallinfo(arena+hblkhd)
         75578 MiB available memory on the node where the printing process lives
------------------
     ethr =  3.10E-10,  avg # of iterations =  2.0

     negative rho (up, down):  1.861E+00 0.000E+00

     total cpu time spent up to now is      371.0 secs

     End of self-consistent calculation

          k = 0.0000 0.0000 0.0000 ( 22237 PWs)   bands (ev):

   -34.8923 -34.0261 -33.1926 -32.5356 -32.4909 -32.2324 -30.2042 -29.4522
   -27.3111 -26.9898 -26.8885 -26.8751 -26.7930 -26.7290 -26.5830 -25.9873
   -21.8099 -21.7872 -20.1738 -19.6352 -19.3934 -18.3697 -18.3375 -18.1564
   -15.6536 -13.9826 -13.1419 -12.9607 -12.8695 -11.7964 -11.7432 -11.3782
    -9.7537  -8.6090  -8.4775  -7.6714  -7.6435  -6.4519  -6.3903  -5.8592
    -1.3086  -1.1696  -0.6489  -0.4010   0.2304   0.3072   0.4342   0.5225
     0.9685   1.1791   1.4820   1.7907   1.9417   2.0687   2.1803   2.3189
     2.4602   2.7631   2.8254   2.9619   3.0553   3.1313   3.1726   3.2847
     3.3212   3.5941   3.7134   3.7681   3.8198   4.1759   4.2843   4.4387
     4.5013   4.5193   4.5548   4.6106   4.6368   4.9987   5.0307   5.0620
     5.1040   5.3080   5.4853   5.5370   5.5772   5.6127   5.7078   5.7855
     5.9111   6.0393   6.0785   6.4687   6.5035   6.5631   6.6049   6.8651
     6.9221   7.0057   7.1824   7.4463   7.5173   7.8698   8.1728   8.1894
     8.6861   8.9476   9.9576   9.9687  10.1368  10.2418  10.4033  10.6331
    10.6620  10.6946  10.7613  10.7698  11.2863  11.3594  11.3991  11.4569
    19.3801  19.8655  20.2529  21.1610  21.3363  21.8619  21.8910  23.8309
    24.6676  25.2865  26.7707  26.9062  26.9298  26.9342  27.3008  27.3436
    27.5099  27.5341  28.2833  28.3128  28.3235  28.3336  28.3462  28.4165
    28.4578  28.5700  28.6412  28.7213  28.7639  28.7774  28.8606  28.9173
    29.2043  29.8915  29.9176  29.9492  29.9958  31.5441  31.6844  32.3392
    32.5009  32.5760  32.5790  32.6269  32.6977  32.7904  32.8635  32.9652
    32.9731  33.0041  33.2023  33.3753  33.4108  33.4252  33.4782  34.6065
    34.6310  34.7025  34.7368  34.9920  35.3814  35.4129  35.4327  35.5091
    35.5340  35.5377  35.5562  35.5631  35.8176  35.9292  36.4885  36.5457
    36.6423  36.7184  36.9295  37.1208  37.3027  37.3654  37.5656  37.6168
    37.6357  37.7127  37.7607  37.8021  37.8516  37.8802  37.9885  38.0973
    38.1521  38.2247  38.2490  38.2877  38.3337  38.4044  38.5203  38.5911
    38.7619  38.9020  39.0683  39.0885  39.1678  39.2291  39.5509  39.7811
    39.7983  40.0252  40.0447  40.0804  40.1518  40.6777  40.7316  40.9450
    40.9560  41.0214  41.1415  41.2280  41.4242  41.4941  41.5869  41.6593

     occupation numbers 
     1.0000   1.0000   1.0000   1.0000   1.0000   1.0000   1.0000   1.0000
     1.0000   1.0000   1.0000   1.0000   1.0000   1.0000   1.0000   1.0000
     1.0000   1.0000   1.0000   1.0000   1.0000   1.0000   1.0000   1.0000
     1.0000   1.0000   1.0000   1.0000   1.0000   1.0000   1.0000   1.0000
     1.0000   1.0000   1.0000   1.0000   1.0000   1.0000   1.0000   1.0000
     1.0000   1.0000   1.0000   1.0000   1.0000   1.0000   1.0000   1.0000
     1.0000   1.0000   1.0000   1.0000   1.0000   1.0000   1.0000   1.0000
     1.0000   1.0000   1.0000   1.0000   1.0000   1.0000   1.0000   1.0000
     1.0000   1.0000   1.0000   1.0000   1.0000   1.0000   1.0000   1.0000
     1.0000   1.0000   1.0000   1.0000   1.0000   1.0000   1.0000   1.0000
     1.0000   1.0000   1.0000   1.0000   1.0000   1.0000   1.0000   1.0000
     1.0000   1.0000   1.0000   1.0000   1.0000   1.0000   1.0000   1.0000
     1.0000   1.0000   1.0000   1.0000   1.0000   1.0000   1.0000   1.0000
     1.0000   1.0000   1.0000   1.0000   1.0000   1.0000   1.0000   1.0000
     1.0000   1.0000   1.0000   1.0000   1.0000   1.0000   1.0000   1.0000
     1.0000   1.0000   1.0000   1.0000   1.0000   1.0000   1.0000   1.0000
     1.0000   1.0000   1.0000   1.0000   1.0000   1.0000   1.0000   1.0000
     1.0000   1.0000   1.0000   1.0000   1.0000   1.0000   1.0000   1.0000
     1.0000   1.0000   1.0000   1.0000   1.0000   1.0000   1.0000   1.0000
     1.0000   1.0000   1.0000   1.0000   1.0000   1.0000   1.0000   1.0000
     1.0000   1.0000   1.0000   1.0000   1.0000   1.0000   1.0000   1.0000
     1.0000   1.0000   1.0000   1.0000   1.0000   1.0000   1.0000   1.0000
     1.0000   1.0000   1.0000   1.0000   1.0000   1.0000   1.0000   1.0000
     1.0000   1.0000   1.0000   1.0000   1.0000   1.0000   1.0000   1.0000
     1.0000   1.0000   1.0001   1.0086   1.0731   1.0816   0.6446   0.4540
     0.3883   0.1744   0.0925   0.0491   0.0207   0.0119   0.0010   0.0000
     0.0000   0.0000   0.0000   0.0000   0.0000   0.0000   0.0000   0.0000
     0.0000   0.0000   0.0000   0.0000   0.0000   0.0000   0.0000   0.0000
     0.0000   0.0000   0.0000   0.0000   0.0000   0.0000   0.0000   0.0000
     0.0000   0.0000   0.0000   0.0000   0.0000   0.0000   0.0000   0.0000

     the Fermi energy is    37.6321 ev

!    total energy              =   -4097.88237766 Ry
     estimated scf accuracy    <       0.00000086 Ry
     smearing contrib. (-TS)   =      -0.01293504 Ry
     internal energy E=F+TS    =   -4097.86944263 Ry

     The total energy is F=E-TS. E is the sum of the following terms:
     one-electron contribution =     253.92559908 Ry
     hartree contribution      =     360.51971596 Ry
     xc contribution           =   -1287.65067225 Ry
     ewald contribution        =   -3424.66408542 Ry

     convergence has been achieved in  21 iterations

     negative rho (up, down):  1.861E+00 0.000E+00

     Forces acting on atoms (cartesian axes, Ry/au):

     atom    1 type  1   force =    -0.00881384    0.01117747   -0.03797261
     atom    2 type  1   force =    -0.01010704   -0.01439611   -0.02281484
     atom    3 type  1   force =     0.01703318    0.04568709   -0.06844606
     atom    4 type  1   force =    -0.01682166    0.03004121    0.30358201
     atom    5 type  1   force =     0.00769148   -0.03225070   -0.42274612
     atom    6 type  1   force =     0.00383301    0.00815367   -0.03517966
     atom    7 type  1   force =    -0.00725221   -0.00538883    0.09859694
     atom    8 type  1   force =    -0.00030932   -0.03576681   -0.02874413
     atom    9 type  2   force =    -0.01785752   -0.00341383   -0.38635202
     atom   10 type  2   force =     0.00134201    0.01123675    0.37059611
     atom   11 type  2   force =     0.00282650    0.02398537    0.09107618
     atom   12 type  2   force =     0.02497656   -0.01641186   -0.44319301
     atom   13 type  2   force =     0.01934534   -0.01212054   -0.00781508
     atom   14 type  2   force =     0.00099986    0.02427690    0.35469805
     atom   15 type  2   force =    -0.00059408   -0.01131384    0.02195906
     atom   16 type  2   force =    -0.00307759   -0.01275208    0.02864668
     atom   17 type  3   force =    -0.00934436   -0.02339805   -0.35199001
     atom   18 type  3   force =    -0.01447386   -0.03019113    0.02019305
     atom   19 type  3   force =    -0.00371170    0.01173170   -0.21089524
     atom   20 type  3   force =     0.00737687   -0.02006966    0.02104457
     atom   21 type  3   force =     0.00601425    0.02853808    0.12591437
     atom   22 type  3   force =     0.02437795   -0.03729245   -0.20116902
     atom   23 type  3   force =     0.01070913    0.02391173    0.00371170
     atom   24 type  3   force =    -0.01725258    0.01837362    0.26211902
     atom   25 type  4   force =     0.01913690    0.02227825    0.35129005
     atom   26 type  4   force =    -0.00091627   -0.01677917    0.07753120
     atom   27 type  4   force =    -0.00202463    0.01307052   -0.00424982
     atom   28 type  4   force =     0.01041249   -0.01720892    0.26874158
     atom   29 type  4   force =    -0.02456325    0.02412503    0.08934996
     atom   30 type  4   force =     0.00775927   -0.03294248   -0.11178195
     atom   31 type  4   force =    -0.02426032    0.04533275    0.06877253
     atom   32 type  4   force =    -0.00245458   -0.02022367   -0.22447346
     The non-local contrib.  to forces
     atom    1 type  1   force =    -0.00946339    0.03434814   -0.00815728
     atom    2 type  1   force =    -0.01154876   -0.03181914   -0.01963959
     atom    3 type  1   force =     0.00978976    0.05850293   -0.03190653
     atom    4 type  1   force =    -0.02638940    0.01210594    0.03953450
     atom    5 type  1   force =     0.00644831   -0.04950294   -0.09872711
     atom    6 type  1   force =     0.01480125    0.01274395   -0.02164086
     atom    7 type  1   force =     0.00353424    0.01859521    0.04233374
     atom    8 type  1   force =    -0.00276961   -0.04898581    0.00674840
     atom    9 type  2   force =    -0.01985610    0.00157510   -0.05589602
     atom   10 type  2   force =    -0.00581055    0.02717278    0.01935357
     atom   11 type  2   force =    -0.00920260   -0.00694516    0.03701140
     atom   12 type  2   force =     0.01343332   -0.02178829   -0.07939159
     atom   13 type  2   force =     0.01283509   -0.01347894    0.01540109
     atom   14 type  2   force =     0.01054887    0.02810944    0.01847645
     atom   15 type  2   force =     0.00209959   -0.02158175    0.04811034
     atom   16 type  2   force =     0.01854992    0.03878866    0.00910118
     atom   17 type  3   force =     0.00396945   -0.01056977    0.12726452
     atom   18 type  3   force =     0.04381710   -0.03023817    0.03657574
     atom   19 type  3   force =     0.02200223   -0.03444582   -0.02574163
     atom   20 type  3   force =     0.02357199   -0.02028424    0.02666775
     atom   21 type  3   force =     0.00333654   -0.00100339   -0.04227911
     atom   22 type  3   force =    -0.04833309   -0.02725454    0.04360877
     atom   23 type  3   force =    -0.04065042   -0.00475064   -0.08339364
     atom   24 type  3   force =    -0.01509126    0.02131967    0.03597309
     atom   25 type  4   force =    -0.00448996   -0.00781768   -0.06002628
     atom   26 type  4   force =     0.00010900    0.01814052   -0.01393287
     atom   27 type  4   force =     0.01279810   -0.00116897    0.03072029
     atom   28 type  4   force =     0.01897291   -0.01519320    0.03301199
     atom   29 type  4   force =     0.01389318   -0.00661030   -0.02877110
     atom   30 type  4   force =    -0.00874397    0.03146310    0.05298298
     atom   31 type  4   force =    -0.01328887   -0.05818815   -0.05565997
     atom   32 type  4   force =    -0.03316116    0.01796488   -0.02972455
     The ionic contribution  to forces
     atom    1 type  1   force =    -0.00000000    0.74840501    0.31407063
     atom    2 type  1   force =    -0.00000000   -0.74840501   -0.52164102
     atom    3 type  1   force =    -0.41432986    2.32546975    2.76538813
     atom    4 type  1   force =    -1.16273488   -0.82865973   -0.72921141
     atom    5 type  1   force =    -0.41432986   -2.32546975    0.52164102
     atom    6 type  1   force =     0.37420251    0.37420251    3.36913261
     atom    7 type  1   force =     0.78853237    1.20286223   -2.57678442
     atom    8 type  1   force =     0.41432986   -2.32546975   -1.47117225
     atom    9 type  2   force =    -0.40538605   -0.40538605    1.35509013
     atom   10 type  2   force =    -0.00000000    0.81077210    1.86561493
     atom   11 type  2   force =    -0.85424340   -1.30310075   -0.49671291
     atom   12 type  2   force =     0.00000000   -0.81077210   -1.95456035
     atom   13 type  2   force =     0.40538605   -0.40538605    1.49101262
     atom   14 type  2   force =     0.00000000    0.81077210    1.72969243
     atom   15 type  2   force =    -0.40538605   -0.40538605   -3.42502575
     atom   16 type  2   force =     0.85424340    2.11387285    3.01638437
     atom   17 type  3   force =    -0.00000000   -0.81077210   -2.09048285
     atom   18 type  3   force =    -1.25962945    0.89771470   -3.22070506
     atom   19 type  3   force =    -0.85424340    2.11387285    2.88046187
     atom   20 type  3   force =    -0.85424340   -2.11387285    0.72158083
     atom   21 type  3   force =     0.00000000    0.81077210    2.49912423
     atom   22 type  3   force =     1.25962945    0.89771470   -3.08478256
     atom   23 type  3   force =     1.25962945   -0.89771470    1.36890202
     atom   24 type  3   force =     0.85424340   -1.30310075   -2.65559396
     atom   25 type  4   force =     0.37420251    0.37420251   -1.04328204
     atom   26 type  4   force =     0.37420251   -0.37420251   -1.16874896
     atom   27 type  4   force =    -0.37420251    0.37420251    1.37631935
     atom   28 type  4   force =    -0.78853237    1.20286223   -2.45131750
     atom   29 type  4   force =    -0.37420251    0.37420251   -1.16874896
     atom   30 type  4   force =     0.00000000   -0.74840501   -2.51445429
     atom   31 type  4   force =     0.41432986    2.32546975    2.63992121
     atom   32 type  4   force =     0.78853237   -1.95126725    2.65888788
     The local contribution  to forces
     atom    1 type  1   force =     0.00092450   -0.77570303   -0.34495381
     atom    2 type  1   force =     0.00254240    0.77187000    0.51521507
     atom    3 type  1   force =     0.42319587   -2.35250004   -2.81014254
     atom    4 type  1   force =     1.17962922    0.84852560    1.00062765
     atom    5 type  1   force =     0.41794966    2.35526937   -0.85499652
     atom    6 type  1   force =    -0.38887653   -0.37982896   -3.38890102
     atom    7 type  1   force =    -0.80281786   -1.22993055    2.64478452
     atom    8 type  1   force =    -0.41502974    2.35448789    1.44448587
     atom    9 type  2   force =     0.40957109    0.40169093   -1.69191311
     atom   10 type  2   force =     0.00759105   -0.82975644   -1.50962933
     atom   11 type  2   force =     0.86844521    1.33709902    0.55452158
     atom   12 type  2   force =     0.01060670    0.81574572    1.58907511
     atom   13 type  2   force =    -0.40164227    0.40689431   -1.51241471
     atom   14 type  2   force =    -0.00998435   -0.81803380   -1.39005335
     atom   15 type  2   force =     0.40425363    0.41822123    3.39766570
     atom   16 type  2   force =    -0.87655614   -2.17295746   -2.99968604
     atom   17 type  3   force =    -0.01307473    0.79802625    1.61382024
     atom   18 type  3   force =     1.20350215   -0.89977225    3.20551211
     atom   19 type  3   force =     0.82936388   -2.07037169   -3.06920506
     atom   20 type  3   force =     0.83932604    2.11512118   -0.72638643
     atom   21 type  3   force =     0.00274999   -0.78182425   -2.33147404
     atom   22 type  3   force =    -1.18931477   -0.90945209    2.84188035
     atom   23 type  3   force =    -1.21028441    0.92670139   -1.28422530
     atom   24 type  3   force =    -0.85647926    1.30184556    2.88568826
     atom   25 type  4   force =    -0.35045078   -0.34452986    1.45441460
     atom   26 type  4   force =    -0.37484941    0.34029862    1.26013647
     atom   27 type  4   force =     0.36036907   -0.36065423   -1.41027143
     atom   28 type  4   force =     0.78061987   -1.20689112    2.69157011
     atom   29 type  4   force =     0.33594252   -0.34386549    1.28574539
     atom   30 type  4   force =     0.01541437    0.68594576    2.35219384
     atom   31 type  4   force =    -0.42563267   -2.22716235   -2.51885058
     atom   32 type  4   force =    -0.75964460    1.91552111   -2.85799825
     The core correction contribution to forces
     atom    1 type  1   force =    -0.00024908    0.00377165    0.00108030
     atom    2 type  1   force =    -0.00086594   -0.00648135    0.00323597
     atom    3 type  1   force =    -0.00202697    0.01354058    0.00805024
     atom    4 type  1   force =    -0.00759318   -0.00102581   -0.00695647
     atom    5 type  1   force =    -0.00270609   -0.01184193    0.00896127
     atom    6 type  1   force =     0.00364535    0.00076622    0.00551066
     atom    7 type  1   force =     0.00392905    0.00232083   -0.01112730
     atom    8 type  1   force =     0.00350318   -0.01521826   -0.00945045
     atom    9 type  2   force =    -0.00204882   -0.00089829    0.00561216
     atom   10 type  2   force =    -0.00002823    0.00358142   -0.00445551
     atom   11 type  2   force =    -0.00263939   -0.00196880   -0.00311375
     atom   12 type  2   force =     0.00082022    0.00073277    0.00147499
     atom   13 type  2   force =     0.00261620    0.00017878   -0.00284247
     atom   14 type  2   force =    -0.00000729    0.00391059   -0.00321807
     atom   15 type  2   force =    -0.00175732   -0.00303872    0.00202386
     atom   16 type  2   force =     0.00107466    0.00668715    0.00203165
     atom   17 type  3   force =    -0.00013490    0.00032709   -0.00284826
     atom   18 type  3   force =    -0.00260608    0.00106698   -0.00079676
     atom   19 type  3   force =    -0.00123664    0.00185421    0.00298161
     atom   20 type  3   force =    -0.00157104   -0.00013013   -0.00154525
     atom   21 type  3   force =    -0.00008525    0.00027489    0.00069666
     atom   22 type  3   force =     0.00282466    0.00074629   -0.00123850
     atom   23 type  3   force =     0.00236289    0.00058006    0.00338012
     atom   24 type  3   force =     0.00056843   -0.00081734   -0.00347894
     atom   25 type  4   force =     0.00020741    0.00091903    0.00079478
     atom   26 type  4   force =    -0.00018388   -0.00150292    0.00078771
     atom   27 type  4   force =    -0.00088179    0.00031638   -0.00176686
     atom   28 type  4   force =    -0.00114447    0.00104773   -0.00416080
     atom   29 type  4   force =    -0.00055041    0.00083589    0.00203031
     atom   30 type  4   force =     0.00082732   -0.00237984   -0.00261764
     atom   31 type  4   force =     0.00076030    0.00448363    0.00282541
     atom   32 type  4   force =     0.00210068   -0.00172079    0.00375332
     The Hubbard contrib.    to forces
     atom    1 type  1   force =     0.00000000    0.00000000    0.00000000
     atom    2 type  1   force =     0.00000000    0.00000000    0.00000000
     atom    3 type  1   force =     0.00000000    0.00000000    0.00000000
     atom    4 type  1   force =     0.00000000    0.00000000    0.00000000
     atom    5 type  1   force =     0.00000000    0.00000000    0.00000000
     atom    6 type  1   force =     0.00000000    0.00000000    0.00000000
     atom    7 type  1   force =     0.00000000    0.00000000    0.00000000
     atom    8 type  1   force =     0.00000000    0.00000000    0.00000000
     atom    9 type  2   force =     0.00000000    0.00000000    0.00000000
     atom   10 type  2   force =     0.00000000    0.00000000    0.00000000
     atom   11 type  2   force =     0.00000000    0.00000000    0.00000000
     atom   12 type  2   force =     0.00000000    0.00000000    0.00000000
     atom   13 type  2   force =     0.00000000    0.00000000    0.00000000
     atom   14 type  2   force =     0.00000000    0.00000000    0.00000000
     atom   15 type  2   force =     0.00000000    0.00000000    0.00000000
     atom   16 type  2   force =     0.00000000    0.00000000    0.00000000
     atom   17 type  3   force =     0.00000000    0.00000000    0.00000000
     atom   18 type  3   force =     0.00000000    0.00000000    0.00000000
     atom   19 type  3   force =     0.00000000    0.00000000    0.00000000
     atom   20 type  3   force =     0.00000000    0.00000000    0.00000000
     atom   21 type  3   force =     0.00000000    0.00000000    0.00000000
     atom   22 type  3   force =     0.00000000    0.00000000    0.00000000
     atom   23 type  3   force =     0.00000000    0.00000000    0.00000000
     atom   24 type  3   force =     0.00000000    0.00000000    0.00000000
     atom   25 type  4   force =     0.00000000    0.00000000    0.00000000
     atom   26 type  4   force =     0.00000000    0.00000000    0.00000000
     atom   27 type  4   force =     0.00000000    0.00000000    0.00000000
     atom   28 type  4   force =     0.00000000    0.00000000    0.00000000
     atom   29 type  4   force =     0.00000000    0.00000000    0.00000000
     atom   30 type  4   force =     0.00000000    0.00000000    0.00000000
     atom   31 type  4   force =     0.00000000    0.00000000    0.00000000
     atom   32 type  4   force =     0.00000000    0.00000000    0.00000000
     The SCF correction term to forces
     atom    1 type  1   force =    -0.00002761    0.00035453   -0.00002243
     atom    2 type  1   force =    -0.00023649    0.00043824    0.00000474
     atom    3 type  1   force =     0.00040263    0.00067272    0.00015465
     atom    4 type  1   force =     0.00026483   -0.00090594   -0.00042224
     atom    5 type  1   force =     0.00032772   -0.00070660    0.00036523
     atom    6 type  1   force =     0.00005868    0.00026880    0.00070896
     atom    7 type  1   force =    -0.00043176    0.00076229   -0.00061958
     atom    8 type  1   force =    -0.00034475   -0.00058204    0.00063432
     atom    9 type  2   force =    -0.00013938   -0.00039667    0.00074484
     atom   10 type  2   force =    -0.00041201   -0.00053426   -0.00029754
     atom   11 type  2   force =     0.00046494   -0.00110009   -0.00064012
     atom   12 type  2   force =     0.00011457   -0.00033111    0.00019885
     atom   13 type  2   force =     0.00014852   -0.00032979    0.00101841
     atom   14 type  2   force =     0.00044087   -0.00048259   -0.00020939
     atom   15 type  2   force =     0.00019433    0.00047031   -0.00082508
     atom   16 type  2   force =    -0.00039117    0.00085556    0.00080554
     atom   17 type  3   force =    -0.00010593   -0.00041068    0.00024636
     atom   18 type  3   force =     0.00044068    0.00103647   -0.00040296
     atom   19 type  3   force =     0.00040049    0.00082100    0.00059798
     atom   20 type  3   force =     0.00029153   -0.00090477    0.00071769
     atom   21 type  3   force =     0.00001122    0.00031759   -0.00016335
     atom   22 type  3   force =    -0.00043005    0.00095203   -0.00064706
     atom   23 type  3   force =    -0.00035013   -0.00090553   -0.00096147
     atom   24 type  3   force =    -0.00049564   -0.00087467   -0.00047942
     atom   25 type  4   force =    -0.00033402   -0.00049689   -0.00062101
     atom   26 type  4   force =    -0.00019623    0.00048595   -0.00072112
     atom   27 type  4   force =    -0.00010925    0.00037368    0.00073884
     atom   28 type  4   force =     0.00049480    0.00096428   -0.00037221
     atom   29 type  4   force =     0.00035222   -0.00043873   -0.00091566
     atom   30 type  4   force =     0.00025980    0.00043237    0.00010318
     atom   31 type  4   force =    -0.00043069    0.00072872    0.00052647
     atom   32 type  4   force =    -0.00028361   -0.00072278    0.00059815

     Total force =     1.225939     Total SCF correction =     0.005362

     BFGS Geometry Optimization
     Energy error            =      0.0E+00 Ry
     Gradient error          =      4.4E-01 Ry/Bohr

     number of scf cycles    =   1
     number of bfgs steps    =   0

     energy             new  =   -4097.8823776644 Ry

     new trust radius        =       0.4441995273 bohr
     new conv_thr            =       0.0000010000 Ry


ATOMIC_POSITIONS (crystal)
Hf            0.2493017842        0.7508854582        0.3719918799
Hf            0.2491993394        0.7488595668        0.8731926504
Hf            0.5013493366        0.5036192464        0.7445778299
Hf            0.4986674191        0.0023798091        0.2740492039
Hf            0.5006093051       -0.0025548408        0.7165108366
Hf            0.7503036441        0.7506459185        0.6222131322
Hf           -0.0005745064        0.4995731065        0.0078106666
Hf           -0.0000245036       -0.0028333807        0.7477229432
Ta            0.2485853605        0.2497295628        0.5943939093
Ta            0.2501063117        0.2508901542        0.9043579363
Ta            0.5002239101        0.0019000767        0.0072148862
Ta            0.7519785968        0.2486998833        0.3398910719
Ta            0.7515325020        0.2490398330        0.6243809041
Ta            0.7500792068        0.2519231707        0.9030985215
Ta            0.7499529381        0.7491037387        0.1267395559
Ta           -0.0002438014        0.4989898035        0.5022693369
Nb            0.2492597572        0.2481464496        0.3471160041
Nb            0.4988534077        0.4976083150        0.2515996560
Nb            0.4997059658        0.5009293637        0.4832932699
Nb            0.5005843819       -0.0015898811        0.5016671118
Nb            0.7504764376        0.7522607341        0.3849747027
Nb            0.0019311758        0.4970457613        0.2340637632
Nb            0.0008483574        0.0018942431        0.2502940343
Nb           -0.0013667170        0.0014555241        0.0207645823
Zr            0.2515159893        0.2517648416        0.1528285459
Zr            0.2499274151        0.7486707852        0.1311418778
Zr            0.2498396128        0.7510354225        0.6246633369
Zr            0.5008248582        0.4986367410        0.0212892095
Zr            0.7480541449        0.2519111401        0.1320781385
Zr            0.7506146747        0.7473903581        0.8661448414
Zr           -0.0019218576        0.5035911767        0.7554480319
Zr           -0.0001944471       -0.0016020820        0.4822176292



     Writing config-only to output data dir ./outdir/pwscf.save/
     NEW-OLD atomic charge density approx. for the potential

     negative rho (up, down):  1.860E+00 0.000E+00

     total cpu time spent up to now is      382.1 secs

     Self-consistent Calculation

     iteration #  1     ecut=   120.00 Ry     beta= 0.40
     Davidson diagonalization with overlap

---- Real-time Memory Report at c_bands before calling an iterative solver
           368 MiB given to the printing process from OS
             0 MiB allocation reported by mallinfo(arena+hblkhd)
         75492 MiB available memory on the node where the printing process lives
------------------
     c_bands:  1 eigenvalues not converged
     ethr =  1.00E-06,  avg # of iterations = 20.0

     negative rho (up, down):  1.870E+00 0.000E+00

     total cpu time spent up to now is      444.7 secs

     total energy              =   -4084.52840594 Ry
     estimated scf accuracy    <      12.08170387 Ry

     iteration #  2     ecut=   120.00 Ry     beta= 0.40
     Davidson diagonalization with overlap

---- Real-time Memory Report at c_bands before calling an iterative solver
           368 MiB given to the printing process from OS
             0 MiB allocation reported by mallinfo(arena+hblkhd)
         75602 MiB available memory on the node where the printing process lives
------------------
     ethr =  3.02E-03,  avg # of iterations =  4.0

     negative rho (up, down):  1.872E+00 0.000E+00

     total cpu time spent up to now is      464.3 secs

     total energy              =   -4081.22216646 Ry
     estimated scf accuracy    <     101.99004962 Ry

     iteration #  3     ecut=   120.00 Ry     beta= 0.40
     Davidson diagonalization with overlap

---- Real-time Memory Report at c_bands before calling an iterative solver
           368 MiB given to the printing process from OS
             0 MiB allocation reported by mallinfo(arena+hblkhd)
         75616 MiB available memory on the node where the printing process lives
------------------
     ethr =  3.02E-03,  avg # of iterations =  3.0

     negative rho (up, down):  1.874E+00 0.000E+00

     total cpu time spent up to now is      482.3 secs

     total energy              =   -4090.24751133 Ry
     estimated scf accuracy    <       2.05829468 Ry

     iteration #  4     ecut=   120.00 Ry     beta= 0.40
     Davidson diagonalization with overlap

---- Real-time Memory Report at c_bands before calling an iterative solver
           368 MiB given to the printing process from OS
             0 MiB allocation reported by mallinfo(arena+hblkhd)
         75592 MiB available memory on the node where the printing process lives
------------------
     ethr =  5.15E-04,  avg # of iterations =  2.0

     negative rho (up, down):  1.875E+00 0.000E+00

     total cpu time spent up to now is      498.5 secs

     total energy              =   -4090.47528228 Ry
     estimated scf accuracy    <       0.77082363 Ry

     iteration #  5     ecut=   120.00 Ry     beta= 0.40
     Davidson diagonalization with overlap

---- Real-time Memory Report at c_bands before calling an iterative solver
           368 MiB given to the printing process from OS
             0 MiB allocation reported by mallinfo(arena+hblkhd)
         75588 MiB available memory on the node where the printing process lives
------------------
     ethr =  1.93E-04,  avg # of iterations =  3.0

     negative rho (up, down):  1.876E+00 0.000E+00

     total cpu time spent up to now is      513.7 secs

     total energy              =   -4090.53788197 Ry
     estimated scf accuracy    <       0.10013761 Ry

     iteration #  6     ecut=   120.00 Ry     beta= 0.40
     Davidson diagonalization with overlap

---- Real-time Memory Report at c_bands before calling an iterative solver
           368 MiB given to the printing process from OS
             0 MiB allocation reported by mallinfo(arena+hblkhd)
         75580 MiB available memory on the node where the printing process lives
------------------
     ethr =  2.50E-05,  avg # of iterations = 11.0

     negative rho (up, down):  1.877E+00 0.000E+00

     total cpu time spent up to now is      531.2 secs

     total energy              =   -4090.53869445 Ry
     estimated scf accuracy    <       0.07166971 Ry

     iteration #  7     ecut=   120.00 Ry     beta= 0.40
     Davidson diagonalization with overlap

---- Real-time Memory Report at c_bands before calling an iterative solver
           368 MiB given to the printing process from OS
             0 MiB allocation reported by mallinfo(arena+hblkhd)
         75572 MiB available memory on the node where the printing process lives
------------------
     ethr =  1.79E-05,  avg # of iterations =  2.0

     negative rho (up, down):  1.878E+00 0.000E+00

     total cpu time spent up to now is      548.9 secs

     total energy              =   -4090.54518547 Ry
     estimated scf accuracy    <       0.02679709 Ry

     iteration #  8     ecut=   120.00 Ry     beta= 0.40
     Davidson diagonalization with overlap

---- Real-time Memory Report at c_bands before calling an iterative solver
           368 MiB given to the printing process from OS
             0 MiB allocation reported by mallinfo(arena+hblkhd)
         75573 MiB available memory on the node where the printing process lives
------------------
     ethr =  6.70E-06,  avg # of iterations =  2.0

     negative rho (up, down):  1.879E+00 0.000E+00

     total cpu time spent up to now is      564.0 secs

     total energy              =   -4090.54658092 Ry
     estimated scf accuracy    <       0.00428825 Ry

     iteration #  9     ecut=   120.00 Ry     beta= 0.40
     Davidson diagonalization with overlap

---- Real-time Memory Report at c_bands before calling an iterative solver
           368 MiB given to the printing process from OS
             0 MiB allocation reported by mallinfo(arena+hblkhd)
         75544 MiB available memory on the node where the printing process lives
------------------
     ethr =  1.07E-06,  avg # of iterations =  9.0

     negative rho (up, down):  1.879E+00 0.000E+00

     total cpu time spent up to now is      581.2 secs

     total energy              =   -4090.54668881 Ry
     estimated scf accuracy    <       0.01157802 Ry

     iteration # 10     ecut=   120.00 Ry     beta= 0.40
     Davidson diagonalization with overlap

---- Real-time Memory Report at c_bands before calling an iterative solver
           368 MiB given to the printing process from OS
             0 MiB allocation reported by mallinfo(arena+hblkhd)
         75538 MiB available memory on the node where the printing process lives
------------------
     ethr =  1.07E-06,  avg # of iterations =  2.0

     negative rho (up, down):  1.879E+00 0.000E+00

     total cpu time spent up to now is      596.8 secs

     total energy              =   -4090.54753061 Ry
     estimated scf accuracy    <       0.00027532 Ry

     iteration # 11     ecut=   120.00 Ry     beta= 0.40
     Davidson diagonalization with overlap

---- Real-time Memory Report at c_bands before calling an iterative solver
           368 MiB given to the printing process from OS
             0 MiB allocation reported by mallinfo(arena+hblkhd)
         75541 MiB available memory on the node where the printing process lives
------------------
     ethr =  6.88E-08,  avg # of iterations =  4.0

     negative rho (up, down):  1.880E+00 0.000E+00

     total cpu time spent up to now is      613.5 secs

     total energy              =   -4090.54754168 Ry
     estimated scf accuracy    <       0.00026618 Ry

     iteration # 12     ecut=   120.00 Ry     beta= 0.40
     Davidson diagonalization with overlap

---- Real-time Memory Report at c_bands before calling an iterative solver
           368 MiB given to the printing process from OS
             0 MiB allocation reported by mallinfo(arena+hblkhd)
         75565 MiB available memory on the node where the printing process lives
------------------
     ethr =  6.65E-08,  avg # of iterations =  3.0

     negative rho (up, down):  1.880E+00 0.000E+00

     total cpu time spent up to now is      629.2 secs

     total energy              =   -4090.54756100 Ry
     estimated scf accuracy    <       0.00023071 Ry

     iteration # 13     ecut=   120.00 Ry     beta= 0.40
     Davidson diagonalization with overlap

---- Real-time Memory Report at c_bands before calling an iterative solver
           368 MiB given to the printing process from OS
             0 MiB allocation reported by mallinfo(arena+hblkhd)
         75553 MiB available memory on the node where the printing process lives
------------------
     ethr =  5.77E-08,  avg # of iterations =  2.0

     negative rho (up, down):  1.880E+00 0.000E+00

     total cpu time spent up to now is      645.3 secs

     total energy              =   -4090.54757802 Ry
     estimated scf accuracy    <       0.00007116 Ry

     iteration # 14     ecut=   120.00 Ry     beta= 0.40
     Davidson diagonalization with overlap

---- Real-time Memory Report at c_bands before calling an iterative solver
           368 MiB given to the printing process from OS
             0 MiB allocation reported by mallinfo(arena+hblkhd)
         75483 MiB available memory on the node where the printing process lives
------------------
     ethr =  1.78E-08,  avg # of iterations =  2.0

     negative rho (up, down):  1.880E+00 0.000E+00

     total cpu time spent up to now is      663.6 secs

     total energy              =   -4090.54758366 Ry
     estimated scf accuracy    <       0.00001267 Ry

     iteration # 15     ecut=   120.00 Ry     beta= 0.40
     Davidson diagonalization with overlap

---- Real-time Memory Report at c_bands before calling an iterative solver
           368 MiB given to the printing process from OS
             0 MiB allocation reported by mallinfo(arena+hblkhd)
         75544 MiB available memory on the node where the printing process lives
------------------
     ethr =  3.17E-09,  avg # of iterations =  3.0

     negative rho (up, down):  1.880E+00 0.000E+00

     total cpu time spent up to now is      681.4 secs

     total energy              =   -4090.54758348 Ry
     estimated scf accuracy    <       0.00002964 Ry

     iteration # 16     ecut=   120.00 Ry     beta= 0.40
     Davidson diagonalization with overlap

---- Real-time Memory Report at c_bands before calling an iterative solver
           368 MiB given to the printing process from OS
             0 MiB allocation reported by mallinfo(arena+hblkhd)
         75540 MiB available memory on the node where the printing process lives
------------------
     ethr =  3.17E-09,  avg # of iterations =  2.0

     negative rho (up, down):  1.880E+00 0.000E+00

     total cpu time spent up to now is      699.3 secs

     total energy              =   -4090.54758559 Ry
     estimated scf accuracy    <       0.00000490 Ry

     iteration # 17     ecut=   120.00 Ry     beta= 0.40
     Davidson diagonalization with overlap

---- Real-time Memory Report at c_bands before calling an iterative solver
           368 MiB given to the printing process from OS
             0 MiB allocation reported by mallinfo(arena+hblkhd)
         75536 MiB available memory on the node where the printing process lives
------------------
     ethr =  1.22E-09,  avg # of iterations =  2.0

     negative rho (up, down):  1.880E+00 0.000E+00

     total cpu time spent up to now is      716.4 secs

     End of self-consistent calculation

          k = 0.0000 0.0000 0.0000 ( 22237 PWs)   bands (ev):

   -36.0850 -33.4885 -32.4680 -32.1390 -32.0993 -31.9717 -31.1799 -30.9939
   -30.7951 -30.2656 -29.3344 -28.5605 -28.2015 -27.5852 -26.8607 -26.0990
   -25.9509 -24.7836 -24.5348 -19.8132 -19.5974 -19.4278 -19.2727 -17.8157
   -16.4115 -15.9225 -13.4291 -13.1534 -13.0598 -11.8627 -11.8227 -11.6098
    -9.9211  -8.8230  -7.9486  -7.8863  -7.8327  -6.4792  -6.3534  -6.0385
    -1.9133  -1.8605  -1.3579  -1.2335  -0.0021   0.0583   0.3831   0.4394
     0.5292   0.6665   0.7609   0.8334   1.2430   1.4279   1.4946   1.5748
     1.6173   1.6701   1.7023   1.8852   2.0857   2.1042   2.2757   2.3222
     2.3715   2.6313   2.6749   3.0065   3.1621   3.3079   3.3684   3.6691
     3.7784   3.9424   4.0191   4.2495   4.4522   4.5922   4.6788   4.8484
     5.0745   5.1825   5.3283   5.3470   5.5562   5.6845   5.6971   5.7920
     5.8450   6.1037   6.1361   6.2032   6.3126   6.6450   6.7812   7.0155
     7.0527   7.1877   7.2200   7.5419   7.5538   8.1063   8.4891   8.7532
     8.9429   8.9706   9.7479   9.8024   9.9675  10.2608  10.3254  10.5098
    10.5390  10.6374  10.6576  10.9407  11.0736  11.2271  11.4131  11.4598
    21.2535  21.5220  22.2373  22.2838  22.3400  22.8527  23.6821  24.3815
    24.9964  25.0202  26.5764  26.7540  26.7594  26.8228  27.1062  27.2240
    27.2747  27.2807  27.4846  27.6586  27.7612  27.8723  27.9402  27.9846
    28.0764  28.1715  28.2799  28.3399  28.4972  28.5224  28.6217  28.6553
    28.8253  29.5605  29.6247  29.8077  29.9688  30.8571  31.5858  31.6410
    31.9077  32.0214  32.3274  32.3775  32.4267  32.5360  32.6302  32.8490
    32.9519  32.9655  33.0434  33.3361  33.4152  33.7761  33.8421  33.8563
    34.0309  34.1588  34.4247  34.6665  35.1801  35.2508  35.2958  35.3390
    35.4097  35.4451  35.4560  35.5210  35.5587  35.6677  36.1211  36.3164
    36.4367  36.5512  36.5884  36.8363  36.9715  37.0582  37.0852  37.2205
    37.2531  37.4833  37.6033  37.7353  37.7878  37.8295  37.8364  37.9889
    38.0566  38.1716  38.2074  38.2618  38.3029  38.3347  38.5145  38.5575
    38.7758  38.9800  39.0175  39.0326  39.2157  39.2456  39.3103  39.3674
    39.4865  39.5620  39.8041  39.9421  40.0193  40.1222  40.1928  40.4842
    40.6209  40.6829  40.8741  40.8929  40.9252  41.1629  41.2596  41.4597

     occupation numbers 
     1.0000   1.0000   1.0000   1.0000   1.0000   1.0000   1.0000   1.0000
     1.0000   1.0000   1.0000   1.0000   1.0000   1.0000   1.0000   1.0000
     1.0000   1.0000   1.0000   1.0000   1.0000   1.0000   1.0000   1.0000
     1.0000   1.0000   1.0000   1.0000   1.0000   1.0000   1.0000   1.0000
     1.0000   1.0000   1.0000   1.0000   1.0000   1.0000   1.0000   1.0000
     1.0000   1.0000   1.0000   1.0000   1.0000   1.0000   1.0000   1.0000
     1.0000   1.0000   1.0000   1.0000   1.0000   1.0000   1.0000   1.0000
     1.0000   1.0000   1.0000   1.0000   1.0000   1.0000   1.0000   1.0000
     1.0000   1.0000   1.0000   1.0000   1.0000   1.0000   1.0000   1.0000
     1.0000   1.0000   1.0000   1.0000   1.0000   1.0000   1.0000   1.0000
     1.0000   1.0000   1.0000   1.0000   1.0000   1.0000   1.0000   1.0000
     1.0000   1.0000   1.0000   1.0000   1.0000   1.0000   1.0000   1.0000
     1.0000   1.0000   1.0000   1.0000   1.0000   1.0000   1.0000   1.0000
     1.0000   1.0000   1.0000   1.0000   1.0000   1.0000   1.0000   1.0000
     1.0000   1.0000   1.0000   1.0000   1.0000   1.0000   1.0000   1.0000
     1.0000   1.0000   1.0000   1.0000   1.0000   1.0000   1.0000   1.0000
     1.0000   1.0000   1.0000   1.0000   1.0000   1.0000   1.0000   1.0000
     1.0000   1.0000   1.0000   1.0000   1.0000   1.0000   1.0000   1.0000
     1.0000   1.0000   1.0000   1.0000   1.0000   1.0000   1.0000   1.0000
     1.0000   1.0000   1.0000   1.0000   1.0000   1.0000   1.0000   1.0000
     1.0000   1.0000   1.0000   1.0000   1.0000   1.0000   1.0000   1.0000
     1.0000   1.0000   1.0000   1.0000   1.0000   1.0000   1.0000   1.0000
     1.0000   1.0000   1.0000   1.0000   1.0000   1.0000   1.0000   1.0000
     1.0000   1.0000   1.0000   1.0000   1.0000   1.0000   1.0000   1.0000
     1.0000   1.0001   1.0003   1.0356   1.0832   1.0128   0.9581   0.5043
     0.3885   0.0158   0.0011   0.0000   0.0000   0.0000   0.0000   0.0000
     0.0000   0.0000   0.0000   0.0000   0.0000   0.0000   0.0000   0.0000
     0.0000   0.0000   0.0000   0.0000   0.0000   0.0000   0.0000   0.0000
     0.0000   0.0000   0.0000   0.0000   0.0000   0.0000   0.0000   0.0000
     0.0000   0.0000   0.0000   0.0000   0.0000   0.0000   0.0000   0.0000

     the Fermi energy is    37.2496 ev

!    total energy              =   -4090.54758540 Ry
     estimated scf accuracy    <       0.00000086 Ry
     smearing contrib. (-TS)   =       0.00111603 Ry
     internal energy E=F+TS    =   -4090.54870143 Ry

     The total energy is F=E-TS. E is the sum of the following terms:
     one-electron contribution =     184.48691420 Ry
     hartree contribution      =     391.08914047 Ry
     xc contribution           =   -1288.92758315 Ry
     ewald contribution        =   -3377.19717295 Ry

     convergence has been achieved in  17 iterations

     negative rho (up, down):  1.880E+00 0.000E+00

     Forces acting on atoms (cartesian axes, Ry/au):

     atom    1 type  1   force =    -0.08144709   -0.02169974    0.68931244
     atom    2 type  1   force =     0.02295313    0.02523261    0.43345714
     atom    3 type  1   force =    -0.02020197   -0.00550149    0.52631707
     atom    4 type  1   force =    -0.01980375    0.00794555   -2.91543325
     atom    5 type  1   force =    -0.03606856    0.03231105    5.39824586
     atom    6 type  1   force =     0.02600840   -0.03439279    0.54534405
     atom    7 type  1   force =     0.00072923    0.02852728   -2.11251161
     atom    8 type  1   force =     0.05991120    0.02174069    0.30813660
     atom    9 type  2   force =    -0.01449939    0.02690900    2.11033777
     atom   10 type  2   force =     0.03714082   -0.08470994   -2.03600695
     atom   11 type  2   force =    -0.01572529    0.04640372   -0.60440289
     atom   12 type  2   force =     0.19754311   -0.09996684    6.87948798
     atom   13 type  2   force =     0.01636678   -0.03149283   -0.08668459
     atom   14 type  2   force =    -0.02822358   -0.03203191   -3.37462579
     atom   15 type  2   force =    -0.03819705    0.01676821   -0.02621163
     atom   16 type  2   force =    -0.04166763   -0.07143489   -0.74193581
     atom   17 type  3   force =    -0.17919069   -0.14600567    7.03095173
     atom   18 type  3   force =    -0.03261413    0.04144253    0.09877361
     atom   19 type  3   force =     0.05270720    0.02509700    1.78570139
     atom   20 type  3   force =     0.08615604   -0.05347822   -1.89055213
     atom   21 type  3   force =     0.06433929    0.01660327   -1.42824809
     atom   22 type  3   force =     0.05683692   -0.01684905    2.92300982
     atom   23 type  3   force =     0.04002651   -0.04787614    0.12869691
     atom   24 type  3   force =    -0.03395791   -0.00997653   -2.37605135
     atom   25 type  4   force =     0.15396222    0.18295807   -7.18670462
     atom   26 type  4   force =     0.05958506   -0.01822316   -0.90995351
     atom   27 type  4   force =    -0.02709963    0.00257126   -0.14636515
     atom   28 type  4   force =     0.03615519    0.01131215   -2.44310890
     atom   29 type  4   force =    -0.19398453    0.12819983   -3.35265194
     atom   30 type  4   force =    -0.04921649   -0.04007085    0.94262887
     atom   31 type  4   force =    -0.02045127    0.08535259   -0.09396129
     atom   32 type  4   force =    -0.07807215    0.01433522    1.92500825
     The non-local contrib.  to forces
     atom    1 type  1   force =     0.01238125    0.03589409   -0.37014205
     atom    2 type  1   force =    -0.04382161   -0.04893656   -0.33105837
     atom    3 type  1   force =     0.02448019    0.15566830   -0.26279327
     atom    4 type  1   force =    -0.03814099    0.02698087    1.00462721
     atom    5 type  1   force =     0.03614286   -0.07145928   -2.26390467
     atom    6 type  1   force =    -0.01142042    0.01128741   -0.21175569
     atom    7 type  1   force =     0.02604831   -0.01500818    1.01301736
     atom    8 type  1   force =    -0.01898927   -0.14017673   -0.08094957
     atom    9 type  2   force =     0.03085156   -0.05132855   -1.10160557
     atom   10 type  2   force =    -0.03301478    0.07283999    1.00944347
     atom   11 type  2   force =     0.00779077    0.08215314    0.50929042
     atom   12 type  2   force =    -0.09271952   -0.01473131   -3.23510211
     atom   13 type  2   force =    -0.03312163   -0.06414252    0.22614151
     atom   14 type  2   force =     0.02347115    0.04544558    1.44942358
     atom   15 type  2   force =     0.03404798   -0.06087461    0.09618703
     atom   16 type  2   force =     0.03102395    0.05687559    0.47750677
     atom   17 type  3   force =    -0.03394152   -0.00141389    1.03571444
     atom   18 type  3   force =     0.05477179    0.11472035   -0.00683833
     atom   19 type  3   force =     0.04020119   -0.03363028    0.59873360
     atom   20 type  3   force =     0.00335541   -0.02158619   -0.25509345
     atom   21 type  3   force =     0.01369853   -0.04857410   -0.30565102
     atom   22 type  3   force =    -0.03908745    0.12648412    0.47163988
     atom   23 type  3   force =    -0.02662581   -0.10834499   -0.08695094
     atom   24 type  3   force =     0.01266582    0.00048020   -0.53176412
     atom   25 type  4   force =     0.03319987   -0.00307340   -1.50865895
     atom   26 type  4   force =     0.04147040    0.06151234   -0.23223752
     atom   27 type  4   force =    -0.01621898   -0.06281271   -0.01429552
     atom   28 type  4   force =    -0.00063056    0.03993606   -0.67403383
     atom   29 type  4   force =    -0.03222593    0.00635108   -0.73118410
     atom   30 type  4   force =     0.01467149    0.04236073    0.34457756
     atom   31 type  4   force =     0.02302355   -0.07582144   -0.16294919
     atom   32 type  4   force =    -0.05507217    0.02124298    0.69563678
     The ionic contribution  to forces
     atom    1 type  1   force =    -1.17241924   -0.57319600    5.06583086
     atom    2 type  1   force =     1.50112142    0.62674328   -0.03345616
     atom    3 type  1   force =    -1.87297502   -1.33366006    6.08416936
     atom    4 type  1   force =    -0.03418278   -4.02092256  -13.65954250
     atom    5 type  1   force =    -1.54893883    1.31372664   25.51432908
     atom    6 type  1   force =     1.46563013   -0.71761527    8.60951128
     atom    7 type  1   force =     1.42285345    2.77436730  -15.69795366
     atom    8 type  1   force =     1.66989202    1.21195256    1.37625140
     atom    9 type  2   force =    -1.43038785    1.00659314   22.79036124
     atom   10 type  2   force =     1.45744713   -0.74013837  -19.38892592
     atom   11 type  2   force =    -1.43543824   -3.44457662  -11.23749546
     atom   12 type  2   force =     1.01296123    0.11454769   26.56316068
     atom   13 type  2   force =     1.17000740    0.69423519    4.98869169
     atom   14 type  2   force =    -1.45458210   -0.95946111  -19.82845895
     atom   15 type  2   force =    -1.97554266    1.02475653   -7.17370694
     atom   16 type  2   force =     0.16560778    0.62366783    4.55455966
     atom   17 type  3   force =    -1.10408832   -0.29971385   24.63904212
     atom   18 type  3   force =    -0.02586182    4.61603998   -2.84910704
     atom   19 type  3   force =     0.01266854    0.60523461   18.16674870
     atom   20 type  3   force =    -0.11361860   -0.28301531    1.54960104
     atom   21 type  3   force =     1.39620620   -0.89208150   -2.31806392
     atom   22 type  3   force =     0.12608899    4.80557851    9.99210908
     atom   23 type  3   force =     0.33420613   -4.48272055    2.10987396
     atom   24 type  3   force =     1.29765059   -3.10142605  -21.97987287
     atom   25 type  4   force =     1.77395892   -0.43068314  -28.44021858
     atom   26 type  4   force =     1.82475208    1.02501040   -9.35725258
     atom   27 type  4   force =    -1.42617141   -0.84415868    4.42916856
     atom   28 type  4   force =    -1.44705213    3.29638005  -20.83799108
     atom   29 type  4   force =    -2.10859178   -0.68290047  -13.42325242
     atom   30 type  4   force =    -1.48350078    0.89690739    1.31731888
     atom   31 type  4   force =     1.90728023   -0.96262031    0.68416118
     atom   32 type  4   force =     0.09501931   -0.86685128   17.79040931
     The local contribution  to forces
     atom    1 type  1   force =     1.07254289    0.50928665   -3.96430552
     atom    2 type  1   force =    -1.43160916   -0.54411810    0.82634355
     atom    3 type  1   force =     1.82535595    1.15136823   -5.26864839
     atom    4 type  1   force =     0.05661155    3.97984309    9.53696393
     atom    5 type  1   force =     1.47338714   -1.19307523  -17.50130931
     atom    6 type  1   force =    -1.42563346    0.66507114   -7.82641195
     atom    7 type  1   force =    -1.45380293   -2.71602978   12.44552149
     atom    8 type  1   force =    -1.58952078   -1.02198556   -0.97214881
     atom    9 type  2   force =     1.37875908   -0.92407954  -19.48339116
     atom   10 type  2   force =    -1.38060859    0.57338330   16.25414612
     atom   11 type  2   force =     1.41288601    3.40070903   10.09820890
     atom   12 type  2   force =    -0.71330007   -0.19661740  -16.16973532
     atom   13 type  2   force =    -1.11331743   -0.65739946   -5.29502646
     atom   14 type  2   force =     1.39995606    0.87515387   14.84916134
     atom   15 type  2   force =     1.89696804   -0.93833009    7.03581159
     atom   16 type  2   force =    -0.24212259   -0.76038718   -5.78925887
     atom   17 type  3   force =     0.95677998    0.15475950  -18.56266733
     atom   18 type  3   force =    -0.05872338   -4.68254028    2.95196542
     atom   19 type  3   force =     0.00127025   -0.54882652  -16.95417167
     atom   20 type  3   force =     0.19648170    0.25027770   -3.19146071
     atom   21 type  3   force =    -1.34493304    0.95432224    1.18302486
     atom   22 type  3   force =    -0.03267161   -4.94150801   -7.52438237
     atom   23 type  3   force =    -0.26924191    4.53770790   -1.90031699
     atom   24 type  3   force =    -1.34291996    3.09061484   20.11418081
     atom   25 type  4   force =    -1.65031308    0.61686208   22.65291635
     atom   26 type  4   force =    -1.80353370   -1.10110100    8.66720215
     atom   27 type  4   force =     1.41453830    0.90556353   -4.56118550
     atom   28 type  4   force =     1.48348637   -3.32207105   19.03895970
     atom   29 type  4   force =     1.94431565    0.80467578   10.77061450
     atom   30 type  4   force =     1.41948560   -0.97645730   -0.70147238
     atom   31 type  4   force =    -1.94894412    1.11884649   -0.62067193
     atom   32 type  4   force =    -0.12091827    0.86135772  -16.52834515
     The core correction contribution to forces
     atom    1 type  1   force =     0.00626569    0.00607035   -0.04243844
     atom    2 type  1   force =    -0.00219799   -0.00851549   -0.02791001
     atom    3 type  1   force =     0.00234580    0.02123656   -0.02498747
     atom    4 type  1   force =    -0.00445022    0.02169065    0.20113572
     atom    5 type  1   force =     0.00279225   -0.01702054   -0.34914291
[...]
     atom   17 type  3   force =     0.00669624    0.71286464   -0.49667072
     atom   18 type  3   force =     1.03419792   -1.29118429    3.34850901
     atom   19 type  3   force =     0.80382651   -1.83445690   -4.64022057
     atom   20 type  3   force =     0.81709983    1.87805063   -1.44402756
     atom   21 type  3   force =    -0.11091739   -0.59425634   -1.98398773
     atom   22 type  3   force =    -1.02067192   -1.31599490    2.21039980
     atom   23 type  3   force =    -1.09918885    1.30165835   -1.11147673
     atom   24 type  3   force =    -0.88729955    1.40841200    4.48375488
     atom   25 type  4   force =    -0.46638911   -0.20122109    3.62450869
     atom   26 type  4   force =    -0.52842273    0.17731133    1.88092993
     atom   27 type  4   force =     0.42845221   -0.22619288   -1.88440914
     atom   28 type  4   force =     0.87821050   -1.36899504    4.20119314
     atom   29 type  4   force =     0.46848123   -0.20326693    1.83510235
     atom   30 type  4   force =     0.16316106    0.46548071    1.99835184
     atom   31 type  4   force =    -0.62112766   -1.89796478   -2.03242681
     atom   32 type  4   force =    -0.74721614    1.78986898   -4.37517621
     The core correction contribution to forces
     atom    1 type  1   force =     0.00022657    0.00428524   -0.00107353
     atom    2 type  1   force =    -0.00155649   -0.00673691    0.00326382
     atom    3 type  1   force =    -0.00143279    0.01539373    0.00535534
     atom    4 type  1   force =    -0.00838056    0.00066402    0.01747805
     atom    5 type  1   force =    -0.00110070   -0.01361872   -0.01445613
     atom    6 type  1   force =     0.00305630    0.00169408    0.00238005
     atom    7 type  1   force =     0.00344575    0.00199275   -0.00770712
     atom    8 type  1   force =     0.00255085   -0.01726939   -0.01010229
     atom    9 type  2   force =    -0.00115435   -0.00150959   -0.00843537
     atom   10 type  2   force =    -0.00147191    0.00411942    0.00840568
     atom   11 type  2   force =    -0.00304703   -0.00182124   -0.00199156
     atom   12 type  2   force =     0.00073986    0.00063933   -0.01444045
     atom   13 type  2   force =     0.00228406   -0.00027645   -0.00399423
     atom   14 type  2   force =     0.00086641    0.00467566    0.01250437
     atom   15 type  2   force =    -0.00090231   -0.00384195    0.00409000
     atom   16 type  2   force =     0.00102923    0.00771901    0.00126115
     atom   17 type  3   force =    -0.00022944   -0.00013311   -0.00677214
     atom   18 type  3   force =    -0.00298519    0.00023527   -0.00015495
     atom   19 type  3   force =    -0.00093252    0.00225215   -0.00009007
     atom   20 type  3   force =    -0.00163289   -0.00068456   -0.00212224
     atom   21 type  3   force =     0.00003182    0.00045593    0.00150958
     atom   22 type  3   force =     0.00309518    0.00010387   -0.00187167
     atom   23 type  3   force =     0.00248645    0.00115986    0.00375424
     atom   24 type  3   force =     0.00059914   -0.00066133   -0.00089368
     atom   25 type  4   force =    -0.00015879    0.00105549    0.00579761
     atom   26 type  4   force =    -0.00042197   -0.00172428    0.00134191
     atom   27 type  4   force =    -0.00074497    0.00057485   -0.00192344
     atom   28 type  4   force =    -0.00105209    0.00103743   -0.00103481
     atom   29 type  4   force =    -0.00031791    0.00101877    0.00266060
     atom   30 type  4   force =     0.00101779   -0.00251820   -0.00378728
     atom   31 type  4   force =     0.00060597    0.00481985    0.00404524
     atom   32 type  4   force =     0.00234708   -0.00211538    0.00011892
     The Hubbard contrib.    to forces
     atom    1 type  1   force =     0.00000000    0.00000000    0.00000000
     atom    2 type  1   force =     0.00000000    0.00000000    0.00000000
     atom    3 type  1   force =     0.00000000    0.00000000    0.00000000
     atom    4 type  1   force =     0.00000000    0.00000000    0.00000000
     atom    5 type  1   force =     0.00000000    0.00000000    0.00000000
     atom    6 type  1   force =     0.00000000    0.00000000    0.00000000
     atom    7 type  1   force =     0.00000000    0.00000000    0.00000000
     atom    8 type  1   force =     0.00000000    0.00000000    0.00000000
     atom    9 type  2   force =     0.00000000    0.00000000    0.00000000
     atom   10 type  2   force =     0.00000000    0.00000000    0.00000000
     atom   11 type  2   force =     0.00000000    0.00000000    0.00000000
     atom   12 type  2   force =     0.00000000    0.00000000    0.00000000
     atom   13 type  2   force =     0.00000000    0.00000000    0.00000000
     atom   14 type  2   force =     0.00000000    0.00000000    0.00000000
     atom   15 type  2   force =     0.00000000    0.00000000    0.00000000
     atom   16 type  2   force =     0.00000000    0.00000000    0.00000000
     atom   17 type  3   force =     0.00000000    0.00000000    0.00000000
     atom   18 type  3   force =     0.00000000    0.00000000    0.00000000
     atom   19 type  3   force =     0.00000000    0.00000000    0.00000000
     atom   20 type  3   force =     0.00000000    0.00000000    0.00000000
     atom   21 type  3   force =     0.00000000    0.00000000    0.00000000
     atom   22 type  3   force =     0.00000000    0.00000000    0.00000000
     atom   23 type  3   force =     0.00000000    0.00000000    0.00000000
     atom   24 type  3   force =     0.00000000    0.00000000    0.00000000
     atom   25 type  4   force =     0.00000000    0.00000000    0.00000000
     atom   26 type  4   force =     0.00000000    0.00000000    0.00000000
     atom   27 type  4   force =     0.00000000    0.00000000    0.00000000
     atom   28 type  4   force =     0.00000000    0.00000000    0.00000000
     atom   29 type  4   force =     0.00000000    0.00000000    0.00000000
     atom   30 type  4   force =     0.00000000    0.00000000    0.00000000
     atom   31 type  4   force =     0.00000000    0.00000000    0.00000000
     atom   32 type  4   force =     0.00000000    0.00000000    0.00000000
     The SCF correction term to forces
     atom    1 type  1   force =     0.00017409   -0.00016683    0.00001749
     atom    2 type  1   force =     0.00013608   -0.00024246   -0.00002343
     atom    3 type  1   force =     0.00001576    0.00008652    0.00003808
     atom    4 type  1   force =    -0.00005532    0.00003765    0.00005665
     atom    5 type  1   force =     0.00003482   -0.00008337   -0.00007306
     atom    6 type  1   force =    -0.00011235   -0.00015721    0.00006863
     atom    7 type  1   force =     0.00003812   -0.00000452   -0.00002434
     atom    8 type  1   force =    -0.00003213   -0.00008054   -0.00009918
     atom    9 type  2   force =     0.00014537    0.00021224   -0.00008422
     atom   10 type  2   force =     0.00015411    0.00028697    0.00012448
     atom   11 type  2   force =    -0.00002192   -0.00000672    0.00009160
     atom   12 type  2   force =    -0.00020785    0.00019730   -0.00003279
     atom   13 type  2   force =    -0.00015045    0.00019622   -0.00003705
     atom   14 type  2   force =    -0.00016448    0.00026921    0.00001642
     atom   15 type  2   force =    -0.00022380   -0.00025496   -0.00006594
     atom   16 type  2   force =     0.00001059    0.00004526    0.00004875
     atom   17 type  3   force =     0.00020539    0.00020228   -0.00011719
     atom   18 type  3   force =    -0.00008284   -0.00004903   -0.00004264
     atom   19 type  3   force =    -0.00000964    0.00004740   -0.00003913
     atom   20 type  3   force =     0.00000288   -0.00004934   -0.00007394
     atom   21 type  3   force =    -0.00020951   -0.00019036    0.00013889
     atom   22 type  3   force =     0.00007925   -0.00005848   -0.00003225
     atom   23 type  3   force =     0.00006514    0.00005641    0.00009393
     atom   24 type  3   force =     0.00002513    0.00001079   -0.00004979
     atom   25 type  4   force =     0.00018848    0.00024647    0.00006489
     atom   26 type  4   force =     0.00020783   -0.00025102    0.00002716
     atom   27 type  4   force =     0.00013518   -0.00019817   -0.00001684
     atom   28 type  4   force =    -0.00004535    0.00000556    0.00003614
     atom   29 type  4   force =    -0.00019131    0.00023626    0.00005173
     atom   30 type  4   force =    -0.00014697   -0.00024010   -0.00012859
     atom   31 type  4   force =    -0.00001346    0.00008470    0.00000757
     atom   32 type  4   force =    -0.00000126   -0.00004161    0.00006525

     Total force =     0.273307     Total SCF correction =     0.001234
     Energy error            =      3.5E-03 Ry
     Gradient error          =      5.7E-02 Ry/Bohr

     number of scf cycles    =   5
     number of bfgs steps    =   2

     energy             old  =   -4097.9493264327 Ry
     energy             new  =   -4097.9528053125 Ry

     CASE: energy            _new < energy            _old

     new trust radius        =       0.0247113502 bohr
     new conv_thr            =       0.0000000348 Ry


ATOMIC_POSITIONS (crystal)
Hf            0.2493081925        0.7504441317        0.3749352872
Hf            0.2495731973        0.7496142460        0.8753238529
Hf            0.5007690753        0.5021558860        0.7495740862
Hf            0.4990477914        0.0009802250        0.2523079925
Hf            0.5002014733       -0.0014977908        0.7473786382
Hf            0.7504350267        0.7501381244        0.6246095020
Hf           -0.0002453063        0.4998100682        0.0003911801
Hf            0.0002534070       -0.0018125700        0.7500711001
Ta            0.2490723328        0.2501668815        0.6222164676
Ta            0.2502351671        0.2499520311        0.8770842675
Ta            0.5001165044        0.0017393733        0.0002564248
Ta            0.7517608307        0.2489617921        0.3727681536
Ta            0.7511916227        0.2494519357        0.6246758643
Ta            0.7497005526        0.2508093011        0.8771105241
Ta            0.7495922200        0.7494722751        0.1254509600
Ta           -0.0004932785        0.4990793299        0.4994516853
Nb            0.2488901965        0.2486063319        0.3717143432
Nb            0.4989893403        0.4985148711        0.2506447143
Nb            0.5002447250        0.5007283821        0.4974933853
Nb            0.5007689939       -0.0010582520        0.4994250225
Nb            0.7503769724        0.7515197438        0.3759932420
Nb            0.0015361738        0.4982636033        0.2488748047
Nb            0.0007539266        0.0009027354        0.2502173923
Nb           -0.0007922037        0.0014277197        0.0027245573
Zr            0.2514395546        0.2514199236        0.1279318556
Zr            0.2503154875        0.7492040321        0.1258174414
Zr            0.2497811470        0.7504986403        0.6247908322
Zr            0.5005505349        0.4992353413        0.0026681861
Zr            0.7483696152        0.2513583068        0.1254176631
Zr            0.7501328852        0.7482174510        0.8741641527
Zr           -0.0013232647        0.5024318540        0.7510376429
Zr           -0.0005528935       -0.0007359249        0.4974787779



     Writing config-only to output data dir ./outdir/pwscf.save/
     NEW-OLD atomic charge density approx. for the potential

     negative rho (up, down):  1.865E+00 0.000E+00

     total cpu time spent up to now is     1782.5 secs

     Self-consistent Calculation

     iteration #  1     ecut=   120.00 Ry     beta= 0.40
     Davidson diagonalization with overlap

---- Real-time Memory Report at c_bands before calling an iterative solver
           369 MiB given to the printing process from OS
             0 MiB allocation reported by mallinfo(arena+hblkhd)
         75476 MiB available memory on the node where the printing process lives
------------------
     ethr =  1.00E-06,  avg # of iterations =  8.0

     negative rho (up, down):  1.865E+00 0.000E+00

     total cpu time spent up to now is     1817.3 secs

     total energy              =   -4097.96400507 Ry
     estimated scf accuracy    <       0.01522321 Ry

     iteration #  2     ecut=   120.00 Ry     beta= 0.40
     Davidson diagonalization with overlap

---- Real-time Memory Report at c_bands before calling an iterative solver
           369 MiB given to the printing process from OS
             0 MiB allocation reported by mallinfo(arena+hblkhd)
         75515 MiB available memory on the node where the printing process lives
------------------
     ethr =  3.81E-06,  avg # of iterations =  5.0

     negative rho (up, down):  1.865E+00 0.000E+00

     total cpu time spent up to now is     1840.1 secs

     total energy              =   -4097.95952512 Ry
     estimated scf accuracy    <       0.11274335 Ry

     iteration #  3     ecut=   120.00 Ry     beta= 0.40
     Davidson diagonalization with overlap

---- Real-time Memory Report at c_bands before calling an iterative solver
           369 MiB given to the printing process from OS
             0 MiB allocation reported by mallinfo(arena+hblkhd)
         75493 MiB available memory on the node where the printing process lives
------------------
     ethr =  3.81E-06,  avg # of iterations =  5.0

     negative rho (up, down):  1.865E+00 0.000E+00

     total cpu time spent up to now is     1858.8 secs

     total energy              =   -4097.96932479 Ry
     estimated scf accuracy    <       0.01079060 Ry

     iteration #  4     ecut=   120.00 Ry     beta= 0.40
     Davidson diagonalization with overlap

---- Real-time Memory Report at c_bands before calling an iterative solver
           369 MiB given to the printing process from OS
             0 MiB allocation reported by mallinfo(arena+hblkhd)
         75496 MiB available memory on the node where the printing process lives
------------------
     ethr =  2.70E-06,  avg # of iterations =  2.0

     negative rho (up, down):  1.865E+00 0.000E+00

     total cpu time spent up to now is     1874.9 secs

     total energy              =   -4097.97027213 Ry
     estimated scf accuracy    <       0.00156065 Ry

     iteration #  5     ecut=   120.00 Ry     beta= 0.40
     Davidson diagonalization with overlap

---- Real-time Memory Report at c_bands before calling an iterative solver
           369 MiB given to the printing process from OS
             0 MiB allocation reported by mallinfo(arena+hblkhd)
         75561 MiB available memory on the node where the printing process lives
------------------
     ethr =  3.90E-07,  avg # of iterations =  3.0

     negative rho (up, down):  1.864E+00 0.000E+00

     total cpu time spent up to now is     1890.7 secs

     total energy              =   -4097.97045051 Ry
     estimated scf accuracy    <       0.00071626 Ry

     iteration #  6     ecut=   120.00 Ry     beta= 0.40
     Davidson diagonalization with overlap

---- Real-time Memory Report at c_bands before calling an iterative solver
           369 MiB given to the printing process from OS
             0 MiB allocation reported by mallinfo(arena+hblkhd)
         75522 MiB available memory on the node where the printing process lives
------------------
     ethr =  1.79E-07,  avg # of iterations =  2.0

     negative rho (up, down):  1.864E+00 0.000E+00

     total cpu time spent up to now is     1905.9 secs

     total energy              =   -4097.97050143 Ry
     estimated scf accuracy    <       0.00013114 Ry

     iteration #  7     ecut=   120.00 Ry     beta= 0.40
     Davidson diagonalization with overlap

---- Real-time Memory Report at c_bands before calling an iterative solver
           369 MiB given to the printing process from OS
             0 MiB allocation reported by mallinfo(arena+hblkhd)
         75518 MiB available memory on the node where the printing process lives
------------------
     ethr =  3.28E-08,  avg # of iterations =  3.0

     negative rho (up, down):  1.864E+00 0.000E+00

     total cpu time spent up to now is     1921.8 secs

     total energy              =   -4097.97051395 Ry
     estimated scf accuracy    <       0.00010489 Ry

     iteration #  8     ecut=   120.00 Ry     beta= 0.40
     Davidson diagonalization with overlap

---- Real-time Memory Report at c_bands before calling an iterative solver
           369 MiB given to the printing process from OS
             0 MiB allocation reported by mallinfo(arena+hblkhd)
         75524 MiB available memory on the node where the printing process lives
------------------
     ethr =  2.62E-08,  avg # of iterations =  2.0

     negative rho (up, down):  1.864E+00 0.000E+00

     total cpu time spent up to now is     1937.0 secs

     total energy              =   -4097.97051927 Ry
     estimated scf accuracy    <       0.00003585 Ry

     iteration #  9     ecut=   120.00 Ry     beta= 0.40
     Davidson diagonalization with overlap

---- Real-time Memory Report at c_bands before calling an iterative solver
           369 MiB given to the printing process from OS
             0 MiB allocation reported by mallinfo(arena+hblkhd)
         75506 MiB available memory on the node where the printing process lives
------------------
     ethr =  8.96E-09,  avg # of iterations =  2.0

     negative rho (up, down):  1.864E+00 0.000E+00

     total cpu time spent up to now is     1952.8 secs

     total energy              =   -4097.97052297 Ry
     estimated scf accuracy    <       0.00000831 Ry

     iteration # 10     ecut=   120.00 Ry     beta= 0.40
     Davidson diagonalization with overlap

---- Real-time Memory Report at c_bands before calling an iterative solver
           369 MiB given to the printing process from OS
             0 MiB allocation reported by mallinfo(arena+hblkhd)
         75506 MiB available memory on the node where the printing process lives
------------------
     ethr =  2.08E-09,  avg # of iterations =  2.0

     negative rho (up, down):  1.864E+00 0.000E+00

     total cpu time spent up to now is     1968.5 secs

     total energy              =   -4097.97052356 Ry
     estimated scf accuracy    <       0.00000263 Ry

     iteration # 11     ecut=   120.00 Ry     beta= 0.40
     Davidson diagonalization with overlap

---- Real-time Memory Report at c_bands before calling an iterative solver
           369 MiB given to the printing process from OS
             0 MiB allocation reported by mallinfo(arena+hblkhd)
         75510 MiB available memory on the node where the printing process lives
------------------
     ethr =  6.57E-10,  avg # of iterations =  2.0

     negative rho (up, down):  1.864E+00 0.000E+00

     total cpu time spent up to now is     1986.1 secs

     total energy              =   -4097.97052379 Ry
     estimated scf accuracy    <       0.00000112 Ry

     iteration # 12     ecut=   120.00 Ry     beta= 0.40
     Davidson diagonalization with overlap

---- Real-time Memory Report at c_bands before calling an iterative solver
           369 MiB given to the printing process from OS
             0 MiB allocation reported by mallinfo(arena+hblkhd)
         75463 MiB available memory on the node where the printing process lives
------------------
     ethr =  2.80E-10,  avg # of iterations =  2.0

     negative rho (up, down):  1.864E+00 0.000E+00

     total cpu time spent up to now is     2001.8 secs

     total energy              =   -4097.97052386 Ry
     estimated scf accuracy    <       0.00000056 Ry

     iteration # 13     ecut=   120.00 Ry     beta= 0.40
     Davidson diagonalization with overlap

---- Real-time Memory Report at c_bands before calling an iterative solver
           369 MiB given to the printing process from OS
             0 MiB allocation reported by mallinfo(arena+hblkhd)
         75510 MiB available memory on the node where the printing process lives
------------------
